INSANE!
99552 
    1POPC   NC3    1  32.426  15.279   7.966 -0.2057 -0.0220  0.1005
    1POPC   PO4    2  32.621  15.490   8.202 -0.1112  0.2136 -0.1326
    1POPC   GL1    3  32.841  15.492   7.820  0.0173 -0.1072  0.0836
    1POPC   GL2    4  32.937  15.209   7.818  0.1839  0.2080 -0.0575
    1POPC   C1A    5  32.656  15.554   7.346  0.2786  0.2391 -0.1218
    1POPC   D2A    6  32.378  15.611   6.934  0.1881  0.0736  0.1524
    1POPC   C3A    7  32.161  15.341   6.639 -0.2619  0.0609 -0.1272
    1POPC   C4A    8  31.784  15.105   6.499  0.1174  0.0343 -0.2323
    1POPC   C1B    9  33.134  15.369   7.402 -0.0281 -0.1784  0.1088
    1POPC   C2B   10  33.021  15.485   6.913 -0.2182  0.2609 -0.3582
    1POPC   C3B   11  33.126  15.381   6.488 -0.2036 -0.1579 -0.1636
    1POPC   C4B   12  33.372  15.045   6.275  0.3083 -0.3977 -0.3773
    2POPC   NC3   13   4.865   2.358  14.211 -0.0212  0.1469 -0.1069
    2POPC   PO4   14   4.996   2.478  13.889  0.0382  0.0693  0.0697
    2POPC   GL1   15   5.288   2.640  14.146 -0.2834  0.0538 -0.2506
    2POPC   GL2   16   5.154   2.774  14.396  0.0467 -0.3167  0.1107
    2POPC   C1A   17   5.621   2.923  14.059  0.2178 -0.0454  0.0853
    2POPC   D2A   18   5.993   2.996  13.835  0.1112  0.1983 -0.0540
    2POPC   C3A   19   6.411   2.878  13.899 -0.3300  0.4238 -0.1190
    2POPC   C4A   20   6.725   3.179  14.044  0.2961  0.2030  0.0639
    2POPC   C1B   21   5.266   2.843  14.819 -0.0101 -0.0838 -0.0747
    2POPC   C2B   22   5.437   3.227  15.066  0.0602 -0.1420  0.1351
    2POPC   C3B   23   5.719   3.520  15.244 -0.2277  0.1462  0.0688
    2POPC   C4B   24   5.881   3.688  15.629  0.0184 -0.0221 -0.3349
    3POPC   NC3   25  13.952  13.780   8.722  0.2341 -0.0652  0.0313
    3POPC   PO4   26  14.260  13.955   8.519  0.0810  0.2830 -0.1928
    3POPC   GL1   27  14.006  14.012   8.116  0.0314  0.1371 -0.3507
    3POPC   GL2   28  14.270  13.928   8.022  0.0633 -0.1508 -0.0334
    3POPC   C1A   29  14.047  14.357   7.860  0.1345 -0.0469  0.0507
    3POPC   D2A   30  14.122  14.758   7.611  0.1527  0.1039 -0.1687
    3POPC   C3A   31  14.327  14.797   7.214 -0.0224 -0.1157  0.1304
    3POPC   C4A   32  14.358  15.008   6.758  0.4093 -0.1183  0.2288
    3POPC   C1B   33  14.340  13.863   7.583 -0.2130 -0.1479  0.2790
    3POPC   C2B   34  14.086  13.881   7.217  0.0000  0.2360  0.1310
    3POPC   C3B   35  13.805  13.615   7.019 -0.1651 -0.0118  0.0247
    3POPC   C4B   36  13.572  13.265   6.813 -0.3101 -0.2166 -0.3527
    4POPC   NC3   37  11.607  14.727   8.765 -0.2544  0.0680 -0.1596
    4POPC   PO4   38  11.349  14.602   8.991  0.0586  0.0532 -0.0052
    4POPC   GL1   39  11.060  14.371   8.779 -0.2529 -0.0180 -0.1021
    4POPC   GL2   40  11.170  14.308   8.443 -0.0904 -0.2467  0.0320
    4POPC   C1A   41  10.826  13.978   8.730  0.1035 -0.1075 -0.2007
    4POPC   D2A   42  10.510  13.625   8.748 -0.5759  0.0376  0.0019
    4POPC   C3A   43  10.565  13.461   8.266 -0.1033  0.1092  0.1626
    4POPC   C4A   44  10.760  13.513   7.844  0.0423  0.1594 -0.1274
    4POPC   C1B   45  10.974  14.429   7.990  0.3094 -0.1513 -0.2018
    4POPC   C2B   46  10.831  14.450   7.540 -0.1169  0.0763 -0.0503
    4POPC   C3B   47  11.028  14.685   7.175  0.1310  0.0025  0.2509
    4POPC   C4B   48  10.863  14.888   6.800 -0.1512  0.3992 -0.0566
    5POPC   NC3   49   8.119  10.878  12.634 -0.3381 -0.3736 -0.0224
    5POPC   PO4   50   8.168  10.850  12.241 -0.2106 -0.0979  0.2733
    5POPC   GL1   51   8.450  10.701  12.067 -0.1879 -0.0703  0.1740
    5POPC   GL2   52   8.495  10.809  11.752 -0.0467  0.0770 -0.2680
    5POPC   C1A   53   8.467  10.235  12.080 -0.0068  0.0516 -0.1225
    5POPC   D2A   54   8.378   9.922  11.712  0.1597 -0.1588  0.2103
    5POPC   C3A   55   8.511   9.483  11.732  0.1681 -0.1195  0.0262
    5POPC   C4A   56   8.693   9.064  11.742 -0.1405  0.3751  0.4669
    5POPC   C1B   57   8.789  10.476  11.751  0.1286  0.0815  0.0695
    5POPC   C2B   58   8.848   9.985  11.601  0.1032  0.0603  0.0376
    5POPC   C3B   59   8.865   9.565  11.393  0.3120  0.2300 -0.1513
    5POPC   C4B   60   8.844   9.153  11.273  0.1689  0.0243  0.2387
    6POPC   NC3   61  13.430  14.283   9.046  0.2290  0.4402  0.0858
    6POPC   PO4   62  13.507  13.941   8.843  0.1201  0.1947 -0.2424
    6POPC   GL1   63  13.579  13.594   8.471  0.2317  0.1875 -0.3380
    6POPC   GL2   64  13.595  13.892   8.345  0.0707  0.4526 -0.1952
    6POPC   C1A   65  13.811  13.526   8.042 -0.2438 -0.0896 -0.1118
    6POPC   D2A   66  13.843  13.599   7.589  0.2939  0.2372 -0.0105
    6POPC   C3A   67  13.570  13.280   7.391 -0.1143  0.3076 -0.2379
    6POPC   C4A   68  13.287  13.028   7.550 -0.2115 -0.0308 -0.0913
    6POPC   C1B   69  13.584  14.064   7.887 -0.1249 -0.0493 -0.2605
    6POPC   C2B   70  13.535  14.004   7.399  0.0216 -0.2295  0.0134
    6POPC   C3B   71  13.610  14.167   6.972 -0.1405 -0.2722 -0.0756
    6POPC   C4B   72  13.696  14.351   6.504 -0.1968 -0.5169  0.2429
    7POPC   NC3   73  17.403  11.657   8.995 -0.0049 -0.0060 -0.0524
    7POPC   PO4   74  17.037  11.597   8.911  0.2392 -0.1657 -0.0906
    7POPC   GL1   75  16.769  11.702   8.511 -0.1008  0.0658 -0.1782
    7POPC   GL2   76  16.757  11.909   8.258 -0.1961 -0.0818 -0.1852
    7POPC   C1A   77  16.811  11.466   8.138  0.0037  0.0450 -0.0067
    7POPC   D2A   78  16.702  11.463   7.654  0.1784  0.1482  0.1557
    7POPC   C3A   79  16.736  11.180   7.285  0.2872 -0.0127  0.4233
    7POPC   C4A   80  16.918  11.287   6.876  0.2996  0.0945 -0.1757
    7POPC   C1B   81  16.539  11.904   7.838  0.0129  0.1752 -0.1175
    7POPC   C2B   82  16.213  11.905   7.561 -0.1675 -0.2771 -0.1791
    7POPC   C3B   83  15.931  11.953   7.210  0.0476 -0.1987 -0.1394
    7POPC   C4B   84  15.626  11.884   6.838  0.1382 -0.0293 -0.0571
    8POPC   NC3   85   0.641  11.435   8.387 -0.1297 -0.2220 -0.2112
    8POPC   PO4   86   0.701  11.797   8.190 -0.0310 -0.2798 -0.0445
    8POPC   GL1   87   0.873  11.861   7.856  0.5292 -0.2569  0.1345
    8POPC   GL2   88   0.632  11.730   7.675  0.0646  0.1744 -0.2884
    8POPC   C1A   89   0.956  12.085   7.455 -0.2629  0.0248  0.1665
    8POPC   D2A   90   1.176  11.869   7.113  0.1046  0.1435  0.1072
    8POPC   C3A   91   1.603  11.918   6.863  0.0959  0.0528  0.1931
    8POPC   C4A   92   1.956  12.084   7.022  0.0638  0.0977  0.0837
    8POPC   C1B   93   0.664  11.640   7.234  0.1308 -0.0187  0.0366
    8POPC   C2B   94   0.688  11.475   6.847 -0.2249  0.3806  0.0507
    8POPC   C3B   95   0.643  11.222   6.519  0.0206 -0.1916  0.2069
    8POPC   C4B   96   0.697  10.744   6.426 -0.1267  0.2043  0.1096
    9POPC   NC3   97   7.588   1.332  10.838 -0.0075  0.0647  0.0001
    9POPC   PO4   98   7.870   1.327  10.562  0.2281 -0.0582 -0.0882
    9POPC   GL1   99   7.845   1.628  10.398  0.0718  0.0670  0.3805
    9POPC   GL2  100   8.127   1.706  10.334 -0.0508 -0.1709  0.0115
    9POPC   C1A  101   7.779   1.559   9.905 -0.2986  0.2151  0.1476
    9POPC   D2A  102   7.870   1.413   9.507  0.2872 -0.2304  0.0119
    9POPC   C3A  103   7.700   1.797   9.292 -0.2635 -0.3721 -0.0674
    9POPC   C4A  104   7.547   1.865   8.776 -0.0418  0.2406  0.0425
    9POPC   C1B  105   8.295   2.109  10.262 -0.0358  0.0311 -0.1597
    9POPC   C2B  106   8.668   2.395  10.314 -0.0349 -0.0131  0.0484
    9POPC   C3B  107   8.755   2.758  10.010 -0.3086 -0.1281 -0.2938
    9POPC   C4B  108   9.167   2.818   9.792  0.0955  0.0056  0.0123
   10POPC   NC3  109  14.622  11.952   8.831  0.0069  0.0178  0.2313
   10POPC   PO4  110  14.416  12.184   8.678 -0.0217 -0.1025  0.0339
   10POPC   GL1  111  14.510  12.041   8.320  0.0613  0.0148 -0.5109
   10POPC   GL2  112  14.778  12.021   8.322  0.1479 -0.1449  0.0641
   10POPC   C1A  113  14.551  11.736   7.967 -0.2698  0.3937 -0.2187
   10POPC   D2A  114  14.764  11.548   7.615  0.3101  0.0030 -0.2498
   10POPC   C3A  115  14.855  11.219   7.306 -0.2118 -0.3465  0.1787
   10POPC   C4A  116  14.968  10.994   6.913  0.3060 -0.0695  0.4292
   10POPC   C1B  117  14.607  12.298   7.936 -0.0101  0.1108 -0.2905
   10POPC   C2B  118  14.306  12.395   7.591 -0.1712  0.1021  0.1366
   10POPC   C3B  119  13.968  12.415   7.294  0.0819  0.2137 -0.0418
   10POPC   C4B  120  13.492  12.361   7.176 -0.0887  0.0392  0.2963
   11POPC   NC3  121   2.926  10.613   8.984  0.2435 -0.0613  0.0655
   11POPC   PO4  122   3.214  10.689   8.765 -0.0699  0.1269  0.2760
   11POPC   GL1  123   3.250  10.733   8.408  0.2186  0.0443  0.0279
   11POPC   GL2  124   2.998  10.828   8.303 -0.2154 -0.1276 -0.1376
   11POPC   C1A  125   3.511  10.749   8.020 -0.1265 -0.0952 -0.4211
   11POPC   D2A  126   3.682  10.605   7.604  0.1601 -0.3113 -0.2325
   11POPC   C3A  127   3.570  10.621   7.129  0.2116 -0.1378 -0.2748
   11POPC   C4A  128   3.549  10.413   6.709  0.2591 -0.2348 -0.0831
   11POPC   C1B  129   3.046  10.668   7.861 -0.0516 -0.0526  0.1463
   11POPC   C2B  130   3.181  10.613   7.407  0.0672  0.0166  0.1750
   11POPC   C3B  131   3.172  10.397   7.005  0.1210 -0.0376  0.0422
   11POPC   C4B  132   3.294   9.981   6.903 -0.1802 -0.1503  0.1483
   12POPC   NC3  133  14.928  14.651   8.736 -0.0427 -0.0488 -0.2148
   12POPC   PO4  134  14.964  15.034   8.697 -0.1429 -0.1978 -0.1636
   12POPC   GL1  135  14.801  15.073   8.273  0.0866  0.2523 -0.1185
   12POPC   GL2  136  14.700  14.792   8.287 -0.3266 -0.2906 -0.7630
   12POPC   C1A  137  14.862  15.088   7.842 -0.1496 -0.0625 -0.0796
   12POPC   D2A  138  14.797  14.833   7.472 -0.1824 -0.2037  0.2717
   12POPC   C3A  139  14.791  14.969   6.969  0.0231  0.1552 -0.2154
   12POPC   C4A  140  14.785  15.083   6.493 -0.1561  0.0250 -0.3487
   12POPC   C1B  141  14.496  14.641   7.902  0.1209  0.1426 -0.3099
   12POPC   C2B  142  14.462  14.387   7.504 -0.0186  0.2133  0.1200
   12POPC   C3B  143  14.535  14.034   7.148 -0.0686 -0.0097  0.0715
   12POPC   C4B  144  14.358  13.619   6.956 -0.0686  0.3282  0.0658
   13POPC   NC3  145   1.099  13.916   7.951 -0.1823  0.0431 -0.0543
   13POPC   PO4  146   1.391  13.638   7.926  0.2329 -0.2417  0.0357
   13POPC   GL1  147   1.292  13.525   7.558 -0.2672 -0.0408  0.1737
   13POPC   GL2  148   1.009  13.671   7.474  0.2221 -0.0274 -0.0981
   13POPC   C1A  149   1.247  13.425   7.102  0.3030  0.3596  0.0086
   13POPC   D2A  150   1.331  13.672   6.772 -0.0272 -0.1727 -0.3012
   13POPC   C3A  151   1.192  13.338   6.512 -0.0635  0.1407 -0.0758
   13POPC   C4A  152   1.161  13.248   5.991  0.1069 -0.1202  0.0978
   13POPC   C1B  153   1.122  13.950   7.164 -0.0391  0.2137 -0.0978
   13POPC   C2B  154   1.029  14.113   6.751 -0.0741  0.1014  0.1376
   13POPC   C3B  155   0.740  14.304   6.467 -0.1359 -0.1380  0.2281
   13POPC   C4B  156   0.513  14.085   6.108  0.1207 -0.0197 -0.1856
   14POPC   NC3  157   3.882   0.544   8.651 -0.1057  0.1140 -0.1180
   14POPC   PO4  158   3.620   0.274   8.734  0.3353  0.1629  0.1089
   14POPC   GL1  159   3.644   0.341   8.272  0.0777 -0.0493 -0.1032
   14POPC   GL2  160   3.850   0.097   8.218 -0.1033  0.1576 -0.2605
   14POPC   C1A  161   3.968   0.541   8.021 -0.4170 -0.1702  0.2518
   14POPC   D2A  162   4.281   0.752   7.799  0.3711 -0.1114  0.0730
   14POPC   C3A  163   4.456   0.837   7.419  0.0796  0.1361 -0.0164
   14POPC   C4A  164   4.538   1.193   7.148 -0.1710 -0.0466  0.1200
   14POPC   C1B  165   3.861   0.056   7.779  0.1967 -0.1919  0.1051
   14POPC   C2B  166   3.870   0.026   7.364 -0.0559 -0.1932  0.3545
   14POPC   C3B  167   3.961   0.239   6.924 -0.1968 -0.1118 -0.2893
   14POPC   C4B  168   3.831   0.438   6.563 -0.0044  0.0426  0.0306
   15POPC   NC3  169   8.578   1.016  10.813  0.0695 -0.1819  0.3349
   15POPC   PO4  170   8.961   0.894  10.706  0.1798 -0.2506 -0.3600
   15POPC   GL1  171   8.767   1.197  10.419 -0.0059  0.2965  0.0263
   15POPC   GL2  172   8.858   1.011  10.205  0.1775  0.3062  0.0564
   15POPC   C1A  173   8.696   1.409  10.019  0.0929 -0.2588 -0.3701
   15POPC   D2A  174   8.294   1.691   9.792 -0.1396 -0.4022  0.0138
   15POPC   C3A  175   8.392   1.678   9.291 -0.3809 -0.1314  0.2445
   15POPC   C4A  176   8.505   1.574   8.898 -0.0462 -0.2215  0.0706
   15POPC   C1B  177   9.174   1.423  10.225 -0.1953 -0.0528  0.0154
   15POPC   C2B  178   9.132   1.799   9.901  0.2930  0.1508 -0.0451
   15POPC   C3B  179   8.901   1.903   9.527 -0.0804  0.0179 -0.2521
   15POPC   C4B  180   8.856   1.921   9.090  0.0336  0.1453  0.1689
   16POPC   NC3  181  14.145   2.016  14.955  0.1975  0.2202  0.0755
   16POPC   PO4  182  14.533   1.955  15.009  0.0974 -0.1546  0.0994
   16POPC   GL1  183  14.447   2.296  15.233  0.0818  0.2721  0.2481
   16POPC   GL2  184  14.439   2.120  15.469 -0.1495 -0.0397 -0.3211
   16POPC   C1A  185  14.398   2.665  15.558  0.2649  0.0404  0.3921
   16POPC   D2A  186  14.020   2.675  15.815 -0.2257  0.0629 -0.0168
   16POPC   C3A  187  14.013   2.923  16.222  0.2347  0.0854 -0.0999
   16POPC   C4A  188  13.988   3.009  16.657  0.1279 -0.2047  0.2159
   16POPC   C1B  189  14.493   2.281  15.907  0.1982  0.0996 -0.2104
   16POPC   C2B  190  14.321   2.262  16.343  0.0090 -0.1398 -0.2609
   16POPC   C3B  191  14.322   2.208  16.787  0.0185  0.1723 -0.1341
   16POPC   C4B  192  14.281   2.267  17.284 -0.2594 -0.0724  0.1095
   17POPC   NC3  193   9.282  17.250   9.722  0.0759  0.0981  0.1338
   17POPC   PO4  194   9.345  16.879   9.808 -0.3829  0.1215 -0.0072
   17POPC   GL1  195   9.679  17.198   9.510  0.1756  0.0184 -0.4613
   17POPC   GL2  196   9.610  17.022   9.336  0.1686  0.0129 -0.0215
   17POPC   C1A  197   9.932  17.407   9.176 -0.5178 -0.1184  0.1220
   17POPC   D2A  198  10.132  17.618   8.809 -0.0386 -0.1258  0.1454
   17POPC   C3A  199  10.027  17.542   8.368  0.1483  0.1421 -0.2761
   17POPC   C4A  200  10.093  17.717   7.964 -0.0932 -0.0735 -0.0486
   17POPC   C1B  201   9.427  17.394   9.148  0.2178  0.0189 -0.1058
   17POPC   C2B  202   9.195  17.737   8.925  0.0926  0.0135  0.1579
   17POPC   C3B  203   9.317  18.004   8.572 -0.1906 -0.0794  0.0750
   17POPC   C4B  204   9.479  18.097   8.157 -0.2698 -0.4126  0.1399
   18POPC   NC3  205   4.060   3.213   9.449 -0.1716  0.1826  0.2855
   18POPC   PO4  206   3.924   3.588   9.481 -0.2412 -0.1255 -0.0173
   18POPC   GL1  207   3.872   3.465   9.100  0.1614 -0.1315  0.1872
   18POPC   GL2  208   3.852   3.682   8.947 -0.0696 -0.1263 -0.1615
   18POPC   C1A  209   3.765   3.123   8.842  0.1239 -0.1467  0.0664
   18POPC   D2A  210   3.744   2.963   8.390 -0.0363 -0.1492  0.1189
   18POPC   C3A  211   3.853   3.292   8.086 -0.0952  0.0694 -0.1813
   18POPC   C4A  212   3.711   3.746   8.002 -0.0143  0.2140  0.1007
   18POPC   C1B  213   3.905   3.896   8.536  0.4422  0.1826 -0.0634
   18POPC   C2B  214   3.832   4.195   8.207  0.1638  0.2069  0.0600
   18POPC   C3B  215   3.818   4.283   7.720 -0.3129  0.2303 -0.1254
   18POPC   C4B  216   3.587   4.541   7.491  0.0551  0.0588  0.0294
   19POPC   NC3  217  14.074  12.999   8.256  0.0708 -0.2500 -0.0051
   19POPC   PO4  218  14.235  12.683   8.389 -0.3038  0.0223  0.0356
   19POPC   GL1  219  14.190  12.504   8.106  0.0924  0.2587 -0.1752
   19POPC   GL2  220  13.878  12.565   8.018 -0.0136  0.0234  0.2463
   19POPC   C1A  221  14.134  12.092   7.971  0.0622  0.2338  0.2410
   19POPC   D2A  222  14.334  11.906   7.576  0.0883 -0.2560  0.2518
   19POPC   C3A  223  14.277  11.911   7.127 -0.0931  0.0324  0.4481
   19POPC   C4A  224  14.179  11.748   6.729  0.1697  0.2822  0.0768
   19POPC   C1B  225  13.693  12.281   7.711  0.0467 -0.1941  0.2738
   19POPC   C2B  226  13.372  12.013   7.487  0.4115  0.1765 -0.0342
   19POPC   C3B  227  13.123  11.851   7.135 -0.0994  0.2721 -0.0417
   19POPC   C4B  228  12.818  11.582   6.875  0.2682  0.1767  0.3059
   20POPC   NC3  229   5.176   4.263  10.519  0.0049 -0.0533  0.0900
   20POPC   PO4  230   4.999   4.331  10.155  0.1107  0.2482  0.2313
   20POPC   GL1  231   5.062   4.524   9.914  0.3382  0.2006 -0.0854
   20POPC   GL2  232   4.958   4.590   9.697  0.0778 -0.1713 -0.0049
   20POPC   C1A  233   5.437   4.638   9.724 -0.0335 -0.0842  0.0565
   20POPC   D2A  234   5.685   4.555   9.366  0.0086 -0.0200  0.2086
   20POPC   C3A  235   5.717   4.723   8.934  0.0380 -0.0080  0.1436
   20POPC   C4A  236   5.522   4.892   8.562  0.1248  0.0872 -0.2948
   20POPC   C1B  237   5.164   4.455   9.311 -0.2379  0.3429  0.1232
   20POPC   C2B  238   5.522   4.204   9.118 -0.0578  0.2657 -0.2917
   20POPC   C3B  239   5.634   3.999   8.753  0.0566  0.2025  0.1545
   20POPC   C4B  240   5.640   3.728   8.321  0.0901 -0.0917 -0.0162
   21POPC   NC3  241  15.105   3.566   9.862 -0.0912  0.0905  0.2091
   21POPC   PO4  242  14.980   3.353  10.125  0.2278  0.0747  0.2498
   21POPC   GL1  243  14.664   3.499   9.941 -0.2725  0.0236  0.1665
   21POPC   GL2  244  14.617   3.775  10.046 -0.1634 -0.1922 -0.1180
   21POPC   C1A  245  14.524   3.691   9.591 -0.0098 -0.0855  0.0168
   21POPC   D2A  246  14.245   3.854   9.238  0.0949 -0.2096 -0.1581
   21POPC   C3A  247  14.023   4.150   8.964  0.0535  0.3161 -0.3228
   21POPC   C4A  248  13.590   4.068   8.786  0.0417  0.0827 -0.0973
   21POPC   C1B  249  14.174   3.973   9.978 -0.0976  0.4065  0.0075
   21POPC   C2B  250  13.834   4.321   9.913 -0.0321  0.0476 -0.0402
   21POPC   C3B  251  13.395   4.393   9.755 -0.1504  0.1371 -0.1475
   21POPC   C4B  252  12.944   4.340   9.863 -0.1481 -0.0494  0.2039
   22POPC   NC3  253  15.236   4.262  14.887 -0.0525  0.2120 -0.1526
   22POPC   PO4  254  15.194   4.344  15.276 -0.2454 -0.1239 -0.1123
   22POPC   GL1  255  15.281   4.447  15.685  0.2027 -0.0684  0.0397
   22POPC   GL2  256  15.313   4.654  15.898 -0.0848 -0.0274  0.0393
   22POPC   C1A  257  14.985   4.303  16.015  0.4481  0.0177 -0.0307
   22POPC   D2A  258  14.740   4.337  16.432 -0.2818  0.2421  0.0272
   22POPC   C3A  259  14.754   4.198  16.894  0.1628 -0.0881 -0.1486
   22POPC   C4A  260  15.058   4.313  17.251  0.0014  0.1801 -0.2215
   22POPC   C1B  261  15.412   4.785  16.339  0.4699 -0.0095 -0.1677
   22POPC   C2B  262  15.472   4.943  16.794  0.0788  0.2769  0.2440
   22POPC   C3B  263  15.698   4.879  17.186 -0.1199  0.1498  0.0312
   22POPC   C4B  264  16.046   4.694  17.387  0.1106 -0.2347  0.0587
   23POPC   NC3  265  14.024   2.732  10.944 -0.3107  0.2816 -0.0640
   23POPC   PO4  266  13.829   2.583  10.680  0.0934  0.1461  0.0310
   23POPC   GL1  267  13.560   2.851  10.551  0.1751 -0.2326  0.1462
   23POPC   GL2  268  13.565   3.145  10.583 -0.1771  0.0837  0.2611
   23POPC   C1A  269  13.121   2.871  10.433  0.3455 -0.1621  0.2634
   23POPC   D2A  270  12.739   3.084  10.537 -0.0164 -0.1166 -0.0896
   23POPC   C3A  271  12.632   3.551  10.583 -0.4243  0.0663 -0.2807
   23POPC   C4A  272  12.406   3.809  10.935  0.3600  0.0435 -0.1532
   23POPC   C1B  273  13.152   3.379  10.456 -0.1179 -0.1570 -0.1693
   23POPC   C2B  274  12.933   3.636  10.101 -0.1978  0.2304  0.0437
   23POPC   C3B  275  12.662   3.885   9.803 -0.0636  0.0703 -0.1314
   23POPC   C4B  276  12.725   4.180   9.467  0.1496  0.1322  0.3129
   24POPC   NC3  277   6.186   1.525  10.075 -0.0063  0.1286  0.2629
   24POPC   PO4  278   5.791   1.558  10.108  0.0029  0.2888  0.4333
   24POPC   GL1  279   5.863   1.523   9.691 -0.1868 -0.0085  0.0205
   24POPC   GL2  280   5.919   1.784   9.666 -0.0645  0.0567 -0.2868
   24POPC   C1A  281   6.270   1.362   9.617  0.0476  0.2435  0.2010
   24POPC   D2A  282   6.620   1.226   9.865 -0.1364 -0.2749  0.0807
   24POPC   C3A  283   6.822   1.516   9.634  0.3528 -0.0986  0.0637
   24POPC   C4A  284   7.158   1.680   9.416  0.0036 -0.2330  0.0092
   24POPC   C1B  285   6.219   1.801   9.283 -0.3080  0.1177  0.1929
   24POPC   C2B  286   6.512   2.009   8.965  0.2793 -0.0170  0.1327
   24POPC   C3B  287   6.858   2.033   8.672 -0.2979 -0.1906 -0.0268
   24POPC   C4B  288   7.001   2.138   8.261 -0.2955  0.1007 -0.0224
   25POPC   NC3  289  16.656   7.804   9.123  0.0650 -0.2259  0.0609
   25POPC   PO4  290  16.382   8.039   9.146  0.3981  0.2628  0.1580
   25POPC   GL1  291  16.192   7.991   8.807  0.2942  0.2006  0.1243
   25POPC   GL2  292  16.245   7.691   8.790 -0.2758 -0.0310  0.0482
   25POPC   C1A  293  15.848   7.802   8.513  0.0997 -0.2850  0.1935
   25POPC   D2A  294  15.663   7.594   8.163  0.3883 -0.0004  0.3201
   25POPC   C3A  295  15.822   7.754   7.789 -0.1964  0.1069 -0.0819
   25POPC   C4A  296  15.801   8.071   7.527 -0.2853  0.0271  0.1389
   25POPC   C1B  297  16.407   7.283   8.509  0.1237  0.0552 -0.2748
   25POPC   C2B  298  16.520   6.918   8.303  0.0432 -0.5307  0.1532
   25POPC   C3B  299  16.268   6.693   8.009 -0.3838  0.2441 -0.1651
   25POPC   C4B  300  16.189   6.440   7.681 -0.2009  0.2092 -0.2857
   26POPC   NC3  301  15.711   3.473   9.657  0.1058 -0.2191  0.2692
   26POPC   PO4  302  15.468   3.736   9.535  0.1143  0.0212  0.1416
   26POPC   GL1  303  15.322   3.742   9.218  0.1410 -0.3065 -0.0299
   26POPC   GL2  304  15.506   3.431   9.154  0.0943 -0.1433 -0.1375
   26POPC   C1A  305  15.193   4.116   9.003 -0.1526 -0.1109 -0.0187
   26POPC   D2A  306  15.044   4.336   8.629 -0.0288 -0.0635  0.0451
   26POPC   C3A  307  15.081   4.575   8.205 -0.0521 -0.1198  0.2696
   26POPC   C4A  308  15.140   4.501   7.785 -0.2222 -0.1374 -0.2889
   26POPC   C1B  309  15.443   3.714   8.775 -0.2389 -0.0628 -0.0407
   26POPC   C2B  310  15.408   3.884   8.382 -0.0128  0.0240  0.1439
   26POPC   C3B  311  15.168   4.001   8.013  0.3976  0.2197  0.1916
   26POPC   C4B  312  14.717   4.153   7.840 -0.2108 -0.1674  0.2029
   27POPC   NC3  313   3.307   6.512  14.726  0.0583  0.1051 -0.1447
   27POPC   PO4  314   3.143   6.441  15.089  0.1308 -0.1286 -0.0928
   27POPC   GL1  315   3.428   6.134  15.217  0.0104 -0.3441 -0.0786
   27POPC   GL2  316   3.318   5.920  15.411  0.0320 -0.1111 -0.1649
   27POPC   C1A  317   3.811   6.223  15.447 -0.1763  0.1389 -0.1496
   27POPC   D2A  318   4.242   6.018  15.436 -0.0370  0.0948 -0.3492
   27POPC   C3A  319   4.649   6.253  15.558 -0.2298 -0.0236 -0.0593
   27POPC   C4A  320   5.096   6.335  15.479  0.3307  0.1174 -0.2671
   27POPC   C1B  321   3.334   6.146  15.810  0.0766  0.1295 -0.0679
   27POPC   C2B  322   3.549   6.081  16.247  0.1489  0.3409 -0.0562
   27POPC   C3B  323   3.598   5.992  16.687  0.0108 -0.1284  0.0841
   27POPC   C4B  324   3.806   6.062  17.108 -0.1574  0.1381 -0.0807
   28POPC   NC3  325   2.262  11.045   8.081 -0.1675 -0.1051  0.2529
   28POPC   PO4  326   2.535  11.104   8.377  0.1341  0.1521  0.1773
   28POPC   GL1  327   2.673  10.910   7.981  0.2556  0.1500 -0.1922
   28POPC   GL2  328   2.504  10.637   7.976  0.0478 -0.1694 -0.1656
   28POPC   C1A  329   2.381  10.889   7.619  0.1820  0.0197  0.0012
   28POPC   D2A  330   2.096  10.771   7.342 -0.1913 -0.1133 -0.2074
   28POPC   C3A  331   2.280  10.789   6.926  0.0478  0.1470  0.0758
   28POPC   C4A  332   2.636  11.139   7.027 -0.0184  0.0153 -0.3006
   28POPC   C1B  333   2.595  10.385   7.636 -0.0028 -0.1512 -0.3739
   28POPC   C2B  334   2.841  10.214   7.306 -0.1898  0.1864 -0.0772
   28POPC   C3B  335   2.793   9.957   6.936 -0.2311 -0.0442 -0.0033
   28POPC   C4B  336   2.424   9.955   6.685  0.2160  0.3678  0.0053
   29POPC   NC3  337   4.540  12.511   8.897 -0.2762  0.0044 -0.0803
   29POPC   PO4  338   4.934  12.419   8.908 -0.1300  0.3113 -0.2006
   29POPC   GL1  339   4.983  12.131   8.724 -0.5049 -0.4081  0.0208
   29POPC   GL2  340   5.283  12.218   8.594 -0.1661 -0.3803 -0.1215
   29POPC   C1A  341   4.912  11.757   8.438  0.0247 -0.0026 -0.3105
   29POPC   D2A  342   5.058  11.652   8.025  0.3272 -0.2507  0.4013
   29POPC   C3A  343   4.673  11.501   7.765 -0.1550  0.2362 -0.2973
   29POPC   C4A  344   4.678  11.559   7.293 -0.0384 -0.0059 -0.1079
   29POPC   C1B  345   5.504  11.936   8.352  0.0013  0.2974 -0.1566
   29POPC   C2B  346   5.599  11.766   7.996 -0.2658  0.0387  0.1611
   29POPC   C3B  347   5.767  11.655   7.549 -0.0886  0.2428  0.2081
   29POPC   C4B  348   6.071  11.890   7.281  0.0005  0.0342 -0.0337
   30POPC   NC3  349   4.114   3.455   9.904  0.3467 -0.1708 -0.1514
   30POPC   PO4  350   4.439   3.354   9.697  0.0012 -0.2031  0.0377
   30POPC   GL1  351   4.543   3.338   9.297 -0.1094 -0.0902  0.0483
   30POPC   GL2  352   4.304   3.458   9.090 -0.2590  0.3733 -0.3354
   30POPC   C1A  353   4.472   2.994   8.931  0.0383  0.0630  0.1799
   30POPC   D2A  354   4.721   2.942   8.582  0.1253  0.0056 -0.0579
   30POPC   C3A  355   4.699   2.761   8.089  0.0637 -0.1715 -0.0834
   30POPC   C4A  356   4.755   2.600   7.630 -0.0306 -0.0980  0.0545
   30POPC   C1B  357   4.197   3.515   8.634 -0.1331  0.0114 -0.0999
   30POPC   C2B  358   4.218   3.652   8.169 -0.5620 -0.0094 -0.5631
   30POPC   C3B  359   4.282   3.650   7.732 -0.2383  0.0918  0.0469
   30POPC   C4B  360   4.627   3.831   7.434  0.3713 -0.0350 -0.5136
   31POPC   NC3  361  11.976  14.693   8.424 -0.1226 -0.1719 -0.0688
   31POPC   PO4  362  12.334  14.800   8.424 -0.1510  0.0472 -0.0217
   31POPC   GL1  363  12.317  15.117   8.318 -0.0773 -0.0884 -0.1457
   31POPC   GL2  364  12.118  15.185   8.236  0.2872  0.2274  0.0381
   31POPC   C1A  365  12.426  15.489   8.040 -0.0932 -0.1098 -0.0671
   31POPC   D2A  366  12.539  15.732   7.661 -0.1536  0.0926  0.1404
   31POPC   C3A  367  12.305  15.948   7.280 -0.0971  0.0346 -0.2934
   31POPC   C4A  368  12.340  16.113   6.883 -0.2020  0.0190  0.0887
   31POPC   C1B  369  11.927  15.286   7.843  0.0615 -0.0263  0.0411
   31POPC   C2B  370  12.018  15.543   7.487  0.0864 -0.2328  0.2146
   31POPC   C3B  371  11.766  15.484   7.090 -0.1942 -0.1835 -0.0741
   31POPC   C4B  372  11.801  15.686   6.653  0.0350  0.1688  0.2331
   32POPC   NC3  373   6.156  15.783   8.593  0.3105  0.1609 -0.1936
   32POPC   PO4  374   5.891  15.494   8.595  0.2355  0.2279 -0.1888
   32POPC   GL1  375   5.920  15.554   8.186 -0.3311 -0.4980 -0.3085
   32POPC   GL2  376   5.680  15.763   8.217 -0.0686 -0.0113  0.2401
   32POPC   C1A  377   6.165  15.668   7.858  0.1691  0.0527  0.2046
   32POPC   D2A  378   6.370  16.027   7.699  0.2039 -0.0367 -0.3357
   32POPC   C3A  379   6.278  16.278   7.332 -0.2309 -0.2131 -0.0106
   32POPC   C4A  380   6.188  16.308   6.861 -0.1932 -0.0122 -0.2296
   32POPC   C1B  381   5.593  15.690   7.790 -0.2130 -0.0109  0.0406
   32POPC   C2B  382   5.559  15.559   7.373  0.0859 -0.1669 -0.2495
   32POPC   C3B  383   5.608  15.633   6.840  0.0706  0.3314 -0.1668
   32POPC   C4B  384   5.740  15.993   6.537  0.1246 -0.0923 -0.0197
   33POPC   NC3  385   4.836   5.140  10.478 -0.4377 -0.3941  0.2638
   33POPC   PO4  386   4.818   5.483  10.626 -0.0988  0.1448 -0.3475
   33POPC   GL1  387   5.147   5.592  10.463  0.0793  0.0712 -0.1196
   33POPC   GL2  388   5.122   5.458  10.216 -0.2926  0.1247  0.1485
   33POPC   C1A  389   5.476   5.867  10.244 -0.1120 -0.4721  0.2631
   33POPC   D2A  390   5.675   5.770   9.800 -0.2731 -0.0694 -0.0066
   33POPC   C3A  391   6.045   5.905   9.543 -0.2161  0.2158  0.2498
   33POPC   C4A  392   6.133   6.221   9.247  0.0526 -0.1966 -0.0538
   33POPC   C1B  393   5.385   5.340   9.870  0.0806  0.1286 -0.2154
   33POPC   C2B  394   5.628   5.051   9.554 -0.0620 -0.1238 -0.0856
   33POPC   C3B  395   5.963   4.981   9.280  0.0778 -0.0608 -0.1967
   33POPC   C4B  396   6.445   5.065   9.282  0.4000  0.0076  0.0932
   34POPC   NC3  397  11.962  14.238  16.091  0.0297 -0.0629 -0.1323
   34POPC   PO4  398  12.043  14.591  16.003 -0.0666  0.1030 -0.3355
   34POPC   GL1  399  11.918  14.726  16.400 -0.1037 -0.0663  0.1432
   34POPC   GL2  400  11.868  15.036  16.475 -0.3916 -0.1348  0.0625
   34POPC   C1A  401  11.729  14.636  16.815  0.1241 -0.1059  0.0477
   34POPC   D2A  402  11.720  14.747  17.287  0.1654 -0.0967 -0.5152
   34POPC   C3A  403  12.078  14.837  17.494  0.1118  0.1955 -0.0368
   34POPC   C4A  404  12.072  14.771  18.005  0.2402 -0.0535 -0.0715
   34POPC   C1B  405  11.784  15.293  16.917  0.1825 -0.0016 -0.1541
   34POPC   C2B  406  11.859  15.514  17.383  0.2183  0.2329  0.1393
   34POPC   C3B  407  11.722  15.610  17.846  0.3558  0.3922  0.0659
   34POPC   C4B  408  11.395  15.432  18.114  0.0522 -0.0456  0.2178
   35POPC   NC3  409   4.296   0.927   9.357 -0.0762 -0.0911 -0.1272
   35POPC   PO4  410   4.513   0.990   9.070 -0.2310  0.0325  0.1069
   35POPC   GL1  411   4.688   1.057   8.754 -0.0904 -0.0552 -0.1022
   35POPC   GL2  412   4.839   0.758   8.766  0.1532 -0.1992  0.0066
   35POPC   C1A  413   4.832   1.080   8.364 -0.0907  0.0330  0.0906
   35POPC   D2A  414   4.852   1.046   7.873 -0.0888  0.0776  0.0470
   35POPC   C3A  415   5.107   0.967   7.497 -0.2775  0.0874 -0.0535
   35POPC   C4A  416   5.411   0.894   7.110  0.2369  0.2633 -0.1715
   35POPC   C1B  417   5.083   0.652   8.391 -0.3077  0.0794 -0.0497
   35POPC   C2B  418   5.342   0.935   8.150 -0.0371 -0.0713 -0.3941
   35POPC   C3B  419   5.248   1.361   7.934 -0.0252 -0.0298 -0.0821
   35POPC   C4B  420   5.000   1.402   7.567  0.2736  0.0128 -0.0923
   36POPC   NC3  421   9.643   1.089  13.325 -0.2208  0.1341 -0.1154
   36POPC   PO4  422   9.242   1.066  13.337  0.0297  0.2477 -0.2520
   36POPC   GL1  423   9.358   1.403  13.525  0.0847  0.2509 -0.2758
   36POPC   GL2  424   9.415   1.309  13.768 -0.0451  0.1025  0.2779
   36POPC   C1A  425   9.419   1.867  13.701  0.0748 -0.4191 -0.1011
   36POPC   D2A  426   9.575   2.316  13.811  0.0127  0.1829  0.0496
   36POPC   C3A  427   9.981   2.539  13.696 -0.2016 -0.0145  0.1462
   36POPC   C4A  428  10.451   2.352  13.796  0.2226  0.1492  0.2309
   36POPC   C1B  429   9.617   1.226  14.195 -0.2785  0.1090 -0.0413
   36POPC   C2B  430   9.791   0.993  14.572  0.0077 -0.1476  0.0498
   36POPC   C3B  431  10.218   1.209  14.713  0.2285 -0.2215 -0.0478
   36POPC   C4B  432  10.637   1.172  14.939 -0.1849  0.0563  0.2508
   37POPC   NC3  433   2.229   6.986   9.409 -0.1133  0.1802  0.0520
   37POPC   PO4  434   1.886   7.112   9.266 -0.0536 -0.1976  0.3896
   37POPC   GL1  435   1.919   6.919   8.947  0.1690 -0.0311  0.3189
   37POPC   GL2  436   1.755   7.159   8.781 -0.2994  0.1842  0.0638
   37POPC   C1A  437   2.128   7.092   8.555  0.1727  0.0434 -0.0578
   37POPC   D2A  438   2.386   7.224   8.158  0.2280 -0.2683  0.1638
   37POPC   C3A  439   2.730   7.461   7.843  0.1782  0.1013  0.2294
   37POPC   C4A  440   2.912   7.301   7.463  0.0050 -0.2485  0.1103
   37POPC   C1B  441   1.674   7.018   8.298 -0.1044  0.2154 -0.0539
   37POPC   C2B  442   1.918   7.073   7.848  0.3336 -0.1296 -0.0612
   37POPC   C3B  443   1.781   6.967   7.417 -0.2064  0.1512  0.0055
   37POPC   C4B  444   2.087   7.094   7.095  0.1873 -0.1839 -0.2315
   38POPC   NC3  445  14.552  14.330   8.333 -0.1086 -0.1807  0.2576
   38POPC   PO4  446  14.971  14.339   8.385  0.0919 -0.0810 -0.0404
   38POPC   GL1  447  14.991  14.074   7.966  0.1618 -0.4188 -0.1132
   38POPC   GL2  448  14.712  14.158   7.851 -0.0671  0.0937  0.0063
   38POPC   C1A  449  15.244  13.937   7.644 -0.0762  0.1196 -0.0511
   38POPC   D2A  450  15.382  14.018   7.201 -0.0822 -0.2562 -0.0491
   38POPC   C3A  451  15.015  13.995   6.981  0.2130  0.0665 -0.0578
   38POPC   C4A  452  14.651  13.896   6.661 -0.1202  0.1437  0.0284
   38POPC   C1B  453  14.816  13.833   7.518 -0.1109 -0.1597 -0.0009
   38POPC   C2B  454  14.785  13.598   7.106  0.0243  0.0873  0.0015
   38POPC   C3B  455  14.841  13.387   6.752 -0.2447  0.0053 -0.4374
   38POPC   C4B  456  15.036  13.616   6.383  0.1439 -0.4000  0.3278
   39POPC   NC3  457   5.196   5.907  12.035 -0.3479  0.4797  0.1947
   39POPC   PO4  458   5.038   6.064  11.696 -0.1794 -0.1177  0.3233
   39POPC   GL1  459   5.440   6.224  11.598 -0.2509  0.0716  0.2350
   39POPC   GL2  460   5.566   6.052  11.372  0.0874 -0.0421  0.0899
   39POPC   C1A  461   5.904   6.429  11.635 -0.0588  0.0377 -0.0393
   39POPC   D2A  462   6.304   6.381  11.573 -0.1510 -0.0802 -0.0827
   39POPC   C3A  463   6.541   6.237  11.223 -0.2151  0.2167  0.1618
   39POPC   C4A  464   6.640   6.348  10.773 -0.1594 -0.2564  0.1397
   39POPC   C1B  465   5.954   6.032  11.317 -0.2618 -0.1707  0.2032
   39POPC   C2B  466   6.313   5.756  11.473 -0.1547  0.2864 -0.0772
   39POPC   C3B  467   6.734   5.553  11.459  0.1654 -0.2277  0.2536
   39POPC   C4B  468   7.132   5.313  11.467 -0.5667 -0.0918 -0.0229
   40POPC   NC3  469   2.674   4.714   8.671 -0.1454 -0.0159 -0.2390
   40POPC   PO4  470   2.573   4.945   8.962 -0.0654 -0.1860  0.0393
   40POPC   GL1  471   2.419   5.110   8.760 -0.0841  0.4685 -0.1739
   40POPC   GL2  472   2.281   5.372   8.673  0.0013 -0.0587  0.1336
   40POPC   C1A  473   2.431   5.049   8.271  0.2615  0.0905  0.1231
   40POPC   D2A  474   2.356   5.253   7.894  0.3352 -0.0414  0.0379
   40POPC   C3A  475   2.685   5.114   7.548  0.0775 -0.1433 -0.3188
   40POPC   C4A  476   2.982   5.315   7.294 -0.1046  0.6024 -0.0840
   40POPC   C1B  477   2.458   5.652   8.370 -0.0939 -0.0507  0.0421
   40POPC   C2B  478   2.779   6.012   8.394 -0.1002 -0.2238 -0.0752
   40POPC   C3B  479   3.125   6.357   8.142  0.0915  0.0330  0.0871
   40POPC   C4B  480   3.334   6.802   8.265  0.1711 -0.0858  0.0116
   41POPC   NC3  481  15.282  15.269   8.324 -0.1657  0.1996 -0.1785
   41POPC   PO4  482  15.219  15.605   8.182 -0.0346 -0.2994  0.1572
   41POPC   GL1  483  14.996  15.569   7.816  0.0942  0.0933 -0.1891
   41POPC   GL2  484  15.207  15.398   7.669  0.0327 -0.1296 -0.1981
   41POPC   C1A  485  14.735  15.397   7.494  0.0518 -0.0353  0.1661
   41POPC   D2A  486  14.445  15.391   7.127  0.1658  0.1843 -0.3088
   41POPC   C3A  487  14.029  15.210   7.083  0.1023  0.1129  0.0032
   41POPC   C4A  488  13.756  14.969   7.317  0.0309  0.1063 -0.0597
   41POPC   C1B  489  15.164  15.303   7.239 -0.0477  0.0259 -0.2719
   41POPC   C2B  490  14.928  15.431   6.836  0.0233 -0.1123 -0.0077
   41POPC   C3B  491  14.850  15.569   6.371 -0.2197 -0.0860  0.0763
   41POPC   C4B  492  14.984  15.620   5.893  0.2615  0.3589  0.0107
   42POPC   NC3  493  10.288  12.350   9.501 -0.0813  0.2433  0.1567
   42POPC   PO4  494  10.658  12.279   9.305  0.0410  0.0429 -0.1376
   42POPC   GL1  495  10.384  12.069   9.151 -0.1673 -0.0468  0.0401
   42POPC   GL2  496  10.483  11.779   9.222 -0.1935 -0.5118 -0.3036
   42POPC   C1A  497  10.173  11.869   8.796  0.0159  0.0317  0.0695
   42POPC   D2A  498   9.991  11.599   8.496 -0.0893  0.0511 -0.2065
   42POPC   C3A  499   9.610  11.284   8.505  0.0036  0.0819 -0.1225
   42POPC   C4A  500   9.254  11.048   8.624 -0.1925  0.1600 -0.3140
   42POPC   C1B  501  10.716  11.778   8.885 -0.0125 -0.0762 -0.0571
   42POPC   C2B  502  10.957  11.764   8.473 -0.1356  0.0260  0.0964
   42POPC   C3B  503  11.248  11.525   8.178 -0.1271  0.1978  0.0433
   42POPC   C4B  504  11.633  11.340   8.049  0.1672 -0.0277  0.0849
   43POPC   NC3  505   7.674  14.852   9.244 -0.1679  0.1262 -0.0077
   43POPC   PO4  506   7.572  14.564   8.974  0.1201  0.1392 -0.0520
   43POPC   GL1  507   7.757  14.822   8.720  0.0197 -0.4094 -0.0179
   43POPC   GL2  508   7.833  14.634   8.552 -0.3620  0.1188 -0.1371
   43POPC   C1A  509   7.596  14.957   8.300 -0.0689  0.0052 -0.0933
   43POPC   D2A  510   7.535  14.986   7.856 -0.2256  0.4774 -0.1012
   43POPC   C3A  511   7.710  14.747   7.491 -0.1661 -0.0010  0.0887
   43POPC   C4A  512   7.922  14.922   7.136  0.0151  0.0309 -0.2005
   43POPC   C1B  513   7.712  14.530   8.089  0.0314 -0.2646 -0.2981
   43POPC   C2B  514   8.018  14.489   7.793  0.1656  0.0750 -0.1054
   43POPC   C3B  515   8.348  14.728   7.515  0.0903  0.2399  0.0239
   43POPC   C4B  516   8.497  14.646   7.107  0.2503 -0.1732  0.1468
   44POPC   NC3  517   0.280   0.379   8.422  0.1253 -0.5130 -0.2683
   44POPC   PO4  518   0.073   0.099   8.214  0.3526 -0.1028  0.0514
   44POPC   GL1  519  -0.012   0.044   7.839 -0.4112  0.0670 -0.0097
   44POPC   GL2  520  -0.242   0.074   7.751 -0.2441 -0.3219  0.2208
   44POPC   C1A  521   0.210   0.082   7.455  0.3190 -0.1139  0.0997
   44POPC   D2A  522   0.333  -0.105   7.044  0.1156  0.2184 -0.0985
   44POPC   C3A  523   0.278   0.174   6.704 -0.0956  0.2875  0.0796
   44POPC   C4A  524   0.377   0.337   6.265  0.2347 -0.1441  0.0609
   44POPC   C1B  525  -0.510   0.357   7.423  0.0579  0.0841 -0.1434
   44POPC   C2B  526  -0.536   0.558   7.060 -0.2032 -0.1323  0.2002
   44POPC   C3B  527  -0.564   0.988   6.896 -0.1408 -0.0885  0.2328
   44POPC   C4B  528  -0.675   1.448   6.801  0.0107 -0.1799 -0.0978
   45POPC   NC3  529   2.044  12.421   8.190  0.0014  0.1630 -0.0736
   45POPC   PO4  530   1.720  12.535   7.991 -0.1284  0.3644 -0.1103
   45POPC   GL1  531   1.551  12.615   7.694 -0.0934 -0.1693  0.0752
   45POPC   GL2  532   1.437  12.397   7.476 -0.2669 -0.2845 -0.1540
   45POPC   C1A  533   1.473  12.813   7.280 -0.0411  0.0334  0.1814
   45POPC   D2A  534   1.354  12.970   6.826  0.0186  0.1967  0.3184
   45POPC   C3A  535   1.625  12.826   6.548 -0.2844  0.0024  0.2298
   45POPC   C4A  536   1.661  12.985   6.123 -0.2403 -0.2579  0.1119
   45POPC   C1B  537   1.563  12.393   7.023  0.1516  0.0993 -0.0997
   45POPC   C2B  538   1.480  12.341   6.536 -0.0134 -0.1898 -0.3328
   45POPC   C3B  539   1.637  11.994   6.275 -0.2685  0.3802 -0.0488
   45POPC   C4B  540   1.721  11.645   6.063 -0.2985 -0.0364  0.1804
   46POPC   NC3  541  14.509   4.477  11.229 -0.0614 -0.3429 -0.0496
   46POPC   PO4  542  14.328   4.478  10.897 -0.0440 -0.2218 -0.1653
   46POPC   GL1  543  14.049   4.199  10.944  0.1480  0.0228  0.0255
   46POPC   GL2  544  13.876   4.284  11.184  0.2151  0.1303 -0.3324
   46POPC   C1A  545  13.583   4.086  10.864 -0.1400 -0.0178 -0.1265
   46POPC   D2A  546  13.212   4.364  10.795  0.1152 -0.1446  0.0903
   46POPC   C3A  547  12.894   4.507  10.515 -0.0236 -0.0605 -0.3350
   46POPC   C4A  548  12.491   4.663  10.423 -0.0502  0.0215 -0.3284
   46POPC   C1B  549  13.492   4.544  11.141  0.2649  0.0827  0.0029
   46POPC   C2B  550  13.057   4.783  11.134  0.0508 -0.2177 -0.0156
   46POPC   C3B  551  12.600   4.696  10.976  0.2300  0.3009 -0.1495
   46POPC   C4B  552  12.158   4.783  10.787  0.1143  0.2206 -0.1290
   47POPC   NC3  553   4.449   6.700  14.013 -0.0979 -0.2484 -0.0404
   47POPC   PO4  554   4.465   7.101  13.988  0.2339 -0.2506 -0.3845
   47POPC   GL1  555   4.793   7.131  14.193 -0.2628 -0.0299 -0.0071
   47POPC   GL2  556   4.764   7.317  14.401 -0.0514 -0.1234  0.1468
   47POPC   C1A  557   5.187   6.958  14.096  0.1928 -0.2020 -0.2469
   47POPC   D2A  558   5.500   6.665  14.208  0.2170 -0.0650 -0.2797
   47POPC   C3A  559   5.762   6.604  14.550 -0.2898 -0.3493 -0.0101
   47POPC   C4A  560   6.105   6.460  14.849 -0.1134  0.0623  0.1238
   47POPC   C1B  561   5.134   7.140  14.583 -0.0488 -0.1312 -0.2471
   47POPC   C2B  562   5.513   6.985  14.834  0.1116 -0.0471  0.4043
   47POPC   C3B  563   5.786   6.860  15.172  0.1597 -0.0083 -0.0665
   47POPC   C4B  564   6.074   6.759  15.515 -0.2035  0.1743  0.1747
   48POPC   NC3  565  15.524   7.268   9.663  0.3081  0.2042  0.0791
   48POPC   PO4  566  15.856   7.028   9.731 -0.0305 -0.0840  0.2124
   48POPC   GL1  567  15.878   7.254   9.377 -0.1397 -0.2304 -0.0784
   48POPC   GL2  568  15.654   7.227   9.180 -0.2411  0.1909  0.0381
   48POPC   C1A  569  16.067   7.166   8.961  0.1360 -0.2290 -0.0381
   48POPC   D2A  570  15.923   7.335   8.546  0.0614 -0.3934  0.0555
   48POPC   C3A  571  15.773   7.052   8.186 -0.3167  0.0332  0.4116
   48POPC   C4A  572  15.783   6.732   7.848 -0.3486 -0.1194  0.0002
   48POPC   C1B  573  15.567   7.046   8.755  0.3420  0.0788 -0.2983
   48POPC   C2B  574  15.294   6.864   8.405 -0.1842  0.0878 -0.0886
   48POPC   C3B  575  15.308   6.914   7.947 -0.1729  0.0703  0.0006
   48POPC   C4B  576  15.636   7.205   7.704 -0.2323 -0.0215  0.2968
   49POPC   NC3  577   5.196   7.867  13.022  0.1817  0.0592 -0.0716
   49POPC   PO4  578   5.270   8.230  12.958 -0.0614 -0.3353  0.0242
   49POPC   GL1  579   5.598   8.027  12.904 -0.1233  0.1917  0.1344
   49POPC   GL2  580   5.615   8.139  12.635  0.0942 -0.0671 -0.0597
   49POPC   C1A  581   5.952   7.745  13.065 -0.0313  0.4935 -0.0637
   49POPC   D2A  582   6.352   7.666  13.312 -0.1378  0.3327 -0.3320
   49POPC   C3A  583   6.736   7.366  13.440  0.0516  0.0531 -0.0811
   49POPC   C4A  584   6.672   6.918  13.399  0.1121 -0.2231  0.1617
   49POPC   C1B  585   6.045   8.019  12.652  0.2037  0.1245  0.2447
   49POPC   C2B  586   6.466   7.948  12.375  0.0770 -0.0145  0.2281
   49POPC   C3B  587   6.907   8.046  12.200  0.1636  0.2071  0.1277
   49POPC   C4B  588   7.143   8.067  11.820 -0.0370 -0.1355  0.3714
   50POPC   NC3  589   9.193  13.743   9.384  0.3409 -0.4852 -0.0207
   50POPC   PO4  590   9.074  13.946   9.031 -0.0487  0.1776 -0.0385
   50POPC   GL1  591   8.777  13.900   8.679  0.3426  0.0365  0.1690
   50POPC   GL2  592   8.697  13.589   8.623  0.0287  0.2908  0.7110
   50POPC   C1A  593   8.875  13.831   8.222 -0.1565 -0.1020 -0.2330
   50POPC   D2A  594   9.101  13.694   7.815  0.0394 -0.3751  0.4163
   50POPC   C3A  595   9.031  13.942   7.408  0.1951  0.1068 -0.2169
   50POPC   C4A  596   8.975  14.050   6.988 -0.0402  0.1632  0.0806
   50POPC   C1B  597   8.867  13.292   8.282  0.2873 -0.0508  0.0856
   50POPC   C2B  598   8.834  13.179   7.866 -0.0246 -0.3661 -0.0432
   50POPC   C3B  599   8.958  12.949   7.485  0.1220 -0.1085  0.2082
   50POPC   C4B  600   9.285  12.896   7.225 -0.2779  0.0667 -0.0100
   51POPC   NC3  601   3.060  13.392   8.023  0.1321 -0.0199  0.3251
   51POPC   PO4  602   3.254  13.078   8.149  0.1267 -0.0891 -0.2844
   51POPC   GL1  603   3.302  13.051   7.712  0.1178  0.2948 -0.2933
   51POPC   GL2  604   3.014  13.024   7.628 -0.3463 -0.0063  0.3322
   51POPC   C1A  605   3.582  12.831   7.405 -0.1499 -0.2442  0.0180
   51POPC   D2A  606   3.757  12.775   6.976  0.1492 -0.1465 -0.1246
   51POPC   C3A  607   3.785  13.050   6.539  0.1791  0.2151  0.0506
   51POPC   C4A  608   3.784  13.160   6.048 -0.0242  0.3132  0.0889
   51POPC   C1B  609   2.930  12.887   7.214 -0.0614  0.2562 -0.1050
   51POPC   C2B  610   2.846  12.824   6.744  0.0084 -0.0081 -0.2295
   51POPC   C3B  611   3.007  12.619   6.385  0.1233 -0.1872  0.0663
   51POPC   C4B  612   2.968  12.209   6.201 -0.2063 -0.0383  0.2817
   52POPC   NC3  613  15.515   8.251   9.510 -0.2827  0.1513  0.1957
   52POPC   PO4  614  15.215   8.114   9.728  0.1812  0.0656 -0.0820
   52POPC   GL1  615  15.171   7.942   9.305 -0.1312  0.0382  0.0551
   52POPC   GL2  616  15.360   7.697   9.356 -0.0425  0.0804  0.0313
   52POPC   C1A  617  14.946   7.841   8.866  0.4101 -0.2569 -0.2104
   52POPC   D2A  618  14.651   7.796   8.576 -0.3403  0.0325 -0.0567
   52POPC   C3A  619  14.525   7.814   8.152 -0.1293  0.0281 -0.0424
   52POPC   C4A  620  14.365   7.932   7.702  0.0984 -0.0848 -0.4356
   52POPC   C1B  621  15.165   7.316   9.127 -0.1871 -0.2843  0.5284
   52POPC   C2B  622  14.826   7.329   8.759 -0.2300 -0.1411 -0.3143
   52POPC   C3B  623  14.787   6.965   8.480 -0.1407  0.1051 -0.3246
   52POPC   C4B  624  14.911   6.680   8.154  0.2522  0.0765  0.0722
   53POPC   NC3  625  13.319   9.510  10.991 -0.3247  0.0068 -0.0317
   53POPC   PO4  626  13.584   9.188  10.922  0.0591  0.0989 -0.1290
   53POPC   GL1  627  13.508   8.948  10.590 -0.3314 -0.1055 -0.5131
   53POPC   GL2  628  13.702   8.776  10.530 -0.0656  0.0560  0.0338
   53POPC   C1A  629  13.159   8.822  10.318  0.2765 -0.1519 -0.1865
   53POPC   D2A  630  12.745   8.807  10.216  0.0245 -0.0848  0.3727
   53POPC   C3A  631  12.317   8.837  10.378 -0.1007  0.0075 -0.2797
   53POPC   C4A  632  12.100   8.660  10.748  0.1382 -0.0851 -0.2860
   53POPC   C1B  633  13.512   8.460  10.319  0.2145  0.4288 -0.2099
   53POPC   C2B  634  13.219   8.347   9.972  0.0565  0.0733 -0.0083
   53POPC   C3B  635  12.932   8.278   9.642  0.2681  0.0811 -0.1100
   53POPC   C4B  636  12.674   8.013   9.310 -0.2034  0.2333 -0.0176
   54POPC   NC3  637   1.836  14.214   7.735  0.0090 -0.0287 -0.0863
   54POPC   PO4  638   1.482  14.194   7.935 -0.2962  0.0641  0.3224
   54POPC   GL1  639   1.455  14.029   7.572  0.0994  0.2470  0.1822
   54POPC   GL2  640   1.438  14.302   7.418 -0.1531 -0.0468  0.1370
   54POPC   C1A  641   1.639  13.811   7.204 -0.1971 -0.1521  0.0026
   54POPC   D2A  642   1.835  13.867   6.778  0.3150 -0.0556 -0.2843
   54POPC   C3A  643   1.541  13.912   6.393 -0.1513  0.1367  0.2543
   54POPC   C4A  644   1.474  13.613   6.010 -0.2666  0.0086 -0.0545
   54POPC   C1B  645   1.832  14.295   7.192  0.1640  0.2622 -0.0092
   54POPC   C2B  646   1.871  14.391   6.767  0.0251  0.0344  0.2398
   54POPC   C3B  647   1.997  14.208   6.349 -0.0224 -0.0446 -0.1466
   54POPC   C4B  648   1.905  14.396   5.961  0.1305  0.5109 -0.2989
   55POPC   NC3  649   1.089   8.264   9.447 -0.5166  0.1005 -0.1278
   55POPC   PO4  650   1.447   8.389   9.310  0.1964 -0.1155 -0.0265
   55POPC   GL1  651   1.296   8.431   8.976 -0.0258  0.1789 -0.2912
   55POPC   GL2  652   1.446   8.595   8.814 -0.0078 -0.1569 -0.0662
   55POPC   C1A  653   1.429   8.264   8.496  0.2036  0.3226 -0.0417
   55POPC   D2A  654   1.560   7.982   8.185  0.0233 -0.0777  0.2317
   55POPC   C3A  655   1.594   8.079   7.774 -0.0774  0.0312 -0.1299
   55POPC   C4A  656   1.769   7.833   7.427 -0.0762 -0.2546 -0.1904
   55POPC   C1B  657   1.762   8.583   8.510 -0.2871 -0.0500 -0.0096
   55POPC   C2B  658   2.029   8.449   8.149 -0.1251 -0.0811  0.0534
   55POPC   C3B  659   2.076   8.427   7.635 -0.1350  0.0949 -0.1919
   55POPC   C4B  660   2.088   8.293   7.247  0.3363 -0.1783 -0.0762
   56POPC   NC3  661  11.472   1.374  10.697  0.0648 -0.2937 -0.1019
   56POPC   PO4  662  11.759   1.390  10.387 -0.0642 -0.1095 -0.2946
   56POPC   GL1  663  11.849   1.684  10.171 -0.1299 -0.6345  0.6943
   56POPC   GL2  664  11.861   1.541   9.848  0.1486 -0.0592 -0.0431
   56POPC   C1A  665  11.961   2.134  10.030  0.1758  0.0001 -0.1560
   56POPC   D2A  666  12.000   2.462   9.693 -0.0558 -0.0450 -0.3716
   56POPC   C3A  667  11.700   2.826   9.594 -0.0326  0.1492 -0.0544
   56POPC   C4A  668  11.342   3.024   9.576 -0.2204 -0.1403  0.3935
   56POPC   C1B  669  11.757   1.950   9.636  0.0140 -0.0166  0.1112
   56POPC   C2B  670  11.577   2.325   9.456 -0.2041 -0.2697 -0.1500
   56POPC   C3B  671  11.389   2.655   9.252 -0.0905  0.1159  0.2932
   56POPC   C4B  672  11.528   3.058   8.958  0.0315  0.0484 -0.0458
   57POPC   NC3  673   2.170  13.204   7.558 -0.2407  0.1003  0.1814
   57POPC   PO4  674   2.017  12.853   7.729  0.0664 -0.2220 -0.0956
   57POPC   GL1  675   1.968  12.669   7.465 -0.0130  0.0558 -0.1702
   57POPC   GL2  676   2.081  12.508   7.245  0.0532 -0.1950  0.2771
   57POPC   C1A  677   1.864  12.916   7.069  0.2203 -0.0215 -0.0441
   57POPC   D2A  678   2.077  13.134   6.739 -0.2372 -0.2816 -0.1307
   57POPC   C3A  679   2.126  13.127   6.286 -0.1142  0.1758 -0.0112
   57POPC   C4A  680   2.103  13.222   5.843  0.0143 -0.0256  0.2405
   57POPC   C1B  681   2.006  12.503   6.754 -0.1617 -0.1309  0.1367
   57POPC   C2B  682   1.928  12.389   6.298  0.1492  0.1783 -0.1383
   57POPC   C3B  683   1.945  12.213   5.853 -0.0638  0.1762 -0.2635
   57POPC   C4B  684   2.204  11.860   5.665  0.3794  0.1519  0.1904
   58POPC   NC3  685   3.191   9.138   8.966 -0.4591 -0.3842  0.1252
   58POPC   PO4  686   3.363   9.519   9.071 -0.2538  0.0129 -0.1310
   58POPC   GL1  687   3.214   9.582   8.661  0.4547 -0.0286 -0.1485
   58POPC   GL2  688   2.966   9.670   8.840  0.1092  0.2554 -0.0750
   58POPC   C1A  689   3.345   9.412   8.276 -0.2214  0.0422  0.1140
   58POPC   D2A  690   3.296   9.095   8.009 -0.1639 -0.0824  0.3238
   58POPC   C3A  691   3.569   8.974   7.623  0.0616  0.7268 -0.0221
   58POPC   C4A  692   4.013   8.975   7.416 -0.0980  0.1494  0.1648
   58POPC   C1B  693   2.841   9.572   8.444  0.0657  0.1412 -0.1096
   58POPC   C2B  694   2.925   9.569   7.985 -0.0543  0.0367  0.5160
   58POPC   C3B  695   2.876   9.493   7.560  0.0585 -0.0597  0.2009
   58POPC   C4B  696   2.967   9.456   7.076  0.0307  0.1987 -0.1997
   59POPC   NC3  697   3.877   7.526   9.465 -0.3427 -0.2368 -0.0827
   59POPC   PO4  698   3.498   7.642   9.582 -0.1032 -0.0673 -0.1631
   59POPC   GL1  699   3.567   7.842   9.293 -0.2791 -0.1210  0.2192
   59POPC   GL2  700   3.814   8.074   9.311 -0.0497  0.0136  0.2991
   59POPC   C1A  701   3.781   7.608   8.941 -0.2002  0.0652 -0.3321
   59POPC   D2A  702   3.974   7.254   8.648 -0.0018 -0.4899 -0.1840
   59POPC   C3A  703   4.290   7.271   8.304 -0.0959 -0.0982 -0.1309
   59POPC   C4A  704   4.509   6.915   8.117 -0.4610 -0.2760 -0.0708
   59POPC   C1B  705   4.260   7.968   9.066 -0.0893  0.5958  0.0043
   59POPC   C2B  706   4.651   7.789   9.017 -0.3413  0.0215 -0.0821
   59POPC   C3B  707   5.070   7.600   8.924 -0.2469 -0.3449  0.2370
   59POPC   C4B  708   5.471   7.455   9.063  0.3377  0.0212  0.0102
   60POPC   NC3  709  13.468  17.341   9.426 -0.1265 -0.0506  0.2429
   60POPC   PO4  710  13.118  17.474   9.458  0.0409  0.0743  0.1570
   60POPC   GL1  711  13.039  17.527   9.087 -0.0394 -0.1222 -0.1716
   60POPC   GL2  712  12.803  17.423   8.944  0.0506  0.0499 -0.1294
   60POPC   C1A  713  12.733  17.880   8.942  0.1213 -0.1287 -0.0208
   60POPC   D2A  714  12.358  17.931   8.736 -0.0964  0.1210  0.0915
   60POPC   C3A  715  12.273  18.211   8.320  0.1727 -0.0425  0.0205
   60POPC   C4A  716  12.203  18.270   7.877 -0.1095  0.0173 -0.0829
   60POPC   C1B  717  12.490  17.241   8.622  0.1176 -0.0594 -0.0419
   60POPC   C2B  718  12.155  17.333   8.316 -0.0462  0.1489 -0.0499
   60POPC   C3B  719  12.136  17.278   7.832  0.1298 -0.0448 -0.0553
   60POPC   C4B  720  12.176  17.379   7.341  0.2017  0.1492  0.1808
   61POPC   NC3  721   6.481   2.850  10.785  0.1701  0.0288 -0.2304
   61POPC   PO4  722   6.504   2.877  11.160  0.2119 -0.1926 -0.5005
   61POPC   GL1  723   6.917   2.962  11.063  0.0802 -0.1959  0.3256
   61POPC   GL2  724   7.189   2.977  11.070 -0.2095 -0.0505  0.3043
   61POPC   C1A  725   6.994   3.439  11.216 -0.1799 -0.1091 -0.0900
   61POPC   D2A  726   7.194   3.777  11.497  0.1552  0.3807 -0.3714
   61POPC   C3A  727   7.581   3.970  11.272 -0.0473  0.1507  0.1662
   61POPC   C4A  728   7.813   4.345  11.341 -0.0243  0.1531  0.3577
   61POPC   C1B  729   7.410   3.316  10.926 -0.0482 -0.0233 -0.1662
   61POPC   C2B  730   7.418   3.725  10.841 -0.0948 -0.2983  0.1055
   61POPC   C3B  731   7.463   4.024  10.486  0.1588 -0.3042 -0.1212
   61POPC   C4B  732   7.561   4.300  10.131  0.1854 -0.1882 -0.2284
   62POPC   NC3  733   7.351   0.584   9.831 -0.1829  0.0152  0.1851
   62POPC   PO4  734   7.705   0.593  10.015 -0.2160  0.1636 -0.3976
   62POPC   GL1  735   7.778   0.804   9.808 -0.1069  0.0918  0.0966
   62POPC   GL2  736   7.594   0.968   9.632 -0.0619 -0.3487  0.1070
   62POPC   C1A  737   8.074   0.909   9.454  0.1085 -0.1369  0.3905
   62POPC   D2A  738   8.083   1.214   9.108 -0.1417 -0.0353  0.1255
   62POPC   C3A  739   8.161   1.285   8.629 -0.3670 -0.0852 -0.0812
   62POPC   C4A  740   8.190   1.031   8.264 -0.2142  0.1909  0.0530
   62POPC   C1B  741   7.479   1.173   9.294 -0.1201  0.1524 -0.1096
   62POPC   C2B  742   7.650   1.377   8.980 -0.3247  0.1137  0.0511
   62POPC   C3B  743   8.012   1.681   8.963 -0.0278  0.1738  0.0818
   62POPC   C4B  744   8.289   2.054   8.850  0.1854  0.0550 -0.0262
   63POPC   NC3  745  11.654  11.434   9.907  0.1396  0.0258 -0.1818
   63POPC   PO4  746  11.747  11.106  10.031  0.1487 -0.0727  0.2021
   63POPC   GL1  747  11.789  10.928   9.725 -0.0005 -0.1034  0.3307
   63POPC   GL2  748  11.574  11.071   9.547  0.6040 -0.0185 -0.2392
   63POPC   C1A  749  11.929  10.519   9.590  0.0315 -0.0880 -0.0569
   63POPC   D2A  750  12.043  10.181   9.283  0.1400 -0.2010 -0.1944
   63POPC   C3A  751  11.833   9.862   8.977 -0.0049  0.1942  0.0230
   63POPC   C4A  752  11.596   9.802   8.604 -0.1434 -0.0362 -0.4581
   63POPC   C1B  753  11.111  11.042   9.534  0.1499 -0.0723 -0.1233
   63POPC   C2B  754  10.776  10.875   9.217 -0.0613  0.2587  0.0570
   63POPC   C3B  755  10.449  10.958   8.926  0.3398 -0.0521 -0.4683
   63POPC   C4B  756  10.195  11.050   8.545 -0.0045  0.0374 -0.2620
   64POPC   NC3  757   4.617   7.856  14.455 -0.0834 -0.2161 -0.2658
   64POPC   PO4  758   4.798   8.223  14.445  0.0157 -0.1962  0.3266
   64POPC   GL1  759   5.177   8.158  14.617  0.2346  0.4112 -0.2949
   64POPC   GL2  760   5.074   7.883  14.746  0.0471  0.1861  0.0069
   64POPC   C1A  761   5.564   7.935  14.466  0.0648  0.1259 -0.1834
   64POPC   D2A  762   5.967   7.689  14.397  0.4952  0.3227  0.2141
   64POPC   C3A  763   6.223   7.590  14.769  0.0041  0.2446 -0.4842
   64POPC   C4A  764   6.399   7.366  15.081  0.1101  0.1212 -0.2138
   64POPC   C1B  765   5.370   7.532  14.852  0.3332 -0.2939 -0.0568
   64POPC   C2B  766   5.772   7.371  14.984  0.1788 -0.1381  0.0094
   64POPC   C3B  767   5.891   7.326  15.400 -0.0990 -0.1111 -0.2474
   64POPC   C4B  768   6.281   7.259  15.572  0.0144  0.3646 -0.2526
   65POPC   NC3  769   3.760   7.797  15.429 -0.3678  0.1713 -0.0757
   65POPC   PO4  770   3.800   7.879  15.069 -0.0517  0.1114  0.2246
   65POPC   GL1  771   4.080   7.662  15.149 -0.0987 -0.0353  0.0414
   65POPC   GL2  772   3.999   7.360  15.200 -0.0225  0.1177 -0.2562
   65POPC   C1A  773   4.258   7.576  15.557  0.1690 -0.0694  0.0319
   65POPC   D2A  774   4.359   7.389  15.984 -0.3545  0.0519 -0.1529
   65POPC   C3A  775   4.704   7.529  16.203  0.1563 -0.0559 -0.0488
   65POPC   C4A  776   5.011   7.701  16.444 -0.2496  0.2277 -0.0029
   65POPC   C1B  777   4.207   7.081  15.550  0.1268 -0.1010  0.2399
   65POPC   C2B  778   4.489   6.869  15.902  0.2130  0.1439  0.1079
   65POPC   C3B  779   4.801   6.567  15.871 -0.0143  0.0570  0.3120
   65POPC   C4B  780   4.812   6.235  16.180 -0.3613 -0.1560  0.0121
   66POPC   NC3  781  12.894  11.949   9.962  0.0864  0.1443  0.0209
   66POPC   PO4  782  12.933  11.634   9.731  0.0736  0.0199  0.3204
   66POPC   GL1  783  13.022  11.336   9.532 -0.0822  0.0765  0.5460
   66POPC   GL2  784  13.247  11.260   9.383 -0.1293  0.1047  0.2443
   66POPC   C1A  785  12.677  11.076   9.328  0.0312  0.2815  0.2652
   66POPC   D2A  786  12.794  10.772   9.074 -0.0804 -0.0258  0.0304
   66POPC   C3A  787  12.734  10.433   8.802 -0.0944  0.2053  0.0785
   66POPC   C4A  788  12.728  10.106   8.411  0.0087 -0.0995 -0.0459
   66POPC   C1B  789  13.133  11.095   8.990  0.0431  0.5620 -0.0269
   66POPC   C2B  790  13.021  11.129   8.517  0.1310  0.1243 -0.0563
   66POPC   C3B  791  13.080  11.033   8.056 -0.2411  0.1798  0.0535
   66POPC   C4B  792  12.859  10.746   7.720  0.1632  0.1526 -0.1313
   67POPC   NC3  793   3.008   5.159   9.097  0.0603 -0.0443  0.0655
   67POPC   PO4  794   3.054   4.799   9.062 -0.0921 -0.2998  0.4037
   67POPC   GL1  795   3.187   4.660   8.671  0.2180 -0.3175  0.0869
   67POPC   GL2  796   3.454   4.630   8.657  0.0940 -0.2564 -0.1892
   67POPC   C1A  797   3.043   4.482   8.267  0.1369  0.1164 -0.0420
   67POPC   D2A  798   2.861   4.370   7.881  0.1332 -0.2257  0.1810
   67POPC   C3A  799   2.997   4.574   7.525 -0.0894  0.1442 -0.2385
   67POPC   C4A  800   2.945   4.805   7.188  0.0319  0.0969 -0.1336
   67POPC   C1B  801   3.539   4.602   8.241  0.2420  0.1255  0.2344
   67POPC   C2B  802   3.736   4.837   7.899 -0.1245 -0.1776 -0.1296
   67POPC   C3B  803   3.791   5.167   7.585  0.1588 -0.1430 -0.0480
   67POPC   C4B  804   3.760   5.238   7.135  0.1969  0.0240  0.0135
   68POPC   NC3  805   0.212  16.456   7.928  0.0082 -0.0356 -0.2964
   68POPC   PO4  806  -0.095  16.627   8.088  0.0320  0.2156  0.2898
   68POPC   GL1  807  -0.211  16.580   7.684 -0.0957  0.2254 -0.1867
   68POPC   GL2  808  -0.210  16.307   7.580 -0.1292  0.1107  0.0618
   68POPC   C1A  809  -0.247  16.722   7.271 -0.0029 -0.0775 -0.0631
   68POPC   D2A  810  -0.247  16.584   6.816 -0.1950 -0.1095 -0.0036
   68POPC   C3A  811  -0.212  16.795   6.424  0.0147  0.1518  0.1721
   68POPC   C4A  812  -0.059  16.858   5.979 -0.1812  0.1107  0.0058
   68POPC   C1B  813  -0.289  16.010   7.229 -0.1387  0.1686 -0.0334
   68POPC   C2B  814  -0.123  16.040   6.767  0.0498 -0.2812 -0.0379
   68POPC   C3B  815   0.019  16.377   6.456  0.0907  0.0947  0.0611
   68POPC   C4B  816   0.250  16.498   6.089  0.1986  0.0980 -0.1873
   69POPC   NC3  817  32.045  32.516   7.996 -0.1166 -0.2586 -0.0275
   69POPC   PO4  818  32.442  32.600   8.106 -0.2560 -0.0843  0.0432
   69POPC   GL1  819  32.395  32.524   7.695  0.1136  0.0220  0.2516
   69POPC   GL2  820  32.371  32.363   7.428 -0.0169 -0.2203 -0.1564
   69POPC   C1A  821  32.053  32.737   7.388  0.1136  0.1078  0.1467
   69POPC   D2A  822  32.051  32.995   7.028  0.0329 -0.1607  0.0155
   69POPC   C3A  823  31.775  32.994   6.630  0.1862 -0.0862 -0.1844
   69POPC   C4A  824  31.896  33.076   6.182 -0.0864  0.1525  0.0959
   69POPC   C1B  825  32.606  32.765   7.238 -0.2750 -0.0943  0.2736
   69POPC   C2B  826  32.819  33.145   7.091 -0.1330  0.0468 -0.2647
   69POPC   C3B  827  32.789  33.395   6.740 -0.1651  0.1298  0.0115
   69POPC   C4B  828  32.718  33.854   6.604  0.1115  0.3158 -0.0270
   70POPC   NC3  829   9.712  32.372  14.882  0.3477  0.2438 -0.1165
   70POPC   PO4  830   9.780  32.670  14.630  0.1279 -0.2855  0.2342
   70POPC   GL1  831   9.602  33.014  14.692 -0.2168  0.0042  0.2446
   70POPC   GL2  832   9.469  33.076  14.992 -0.0585 -0.3671  0.1385
   70POPC   C1A  833   9.461  33.492  14.750 -0.2436  0.0340  0.0012
   70POPC   D2A  834   9.266  33.953  14.705  0.0553 -0.0156  0.0822
   70POPC   C3A  835   9.567  34.298  14.710  0.0265 -0.2298  0.1739
   70POPC   C4A  836   9.738  34.478  15.084 -0.1117 -0.4077 -0.2939
   70POPC   C1B  837   9.468  33.497  15.253  0.1299  0.1208  0.1136
   70POPC   C2B  838   9.552  33.939  15.137 -0.1906 -0.0250 -0.1057
   70POPC   C3B  839   9.199  34.287  15.169 -0.2386 -0.4845 -0.2223
   70POPC   C4B  840   9.118  34.622  15.451  0.1459 -0.2070 -0.0753
   71POPC   NC3  841   6.344   9.505  12.173 -0.2735 -0.2547  0.2375
   71POPC   PO4  842   6.492   9.358  12.534  0.2209  0.0802  0.0127
   71POPC   GL1  843   6.658   9.147  12.843 -0.0711  0.1545  0.0124
   71POPC   GL2  844   6.608   9.021  13.062  0.1176  0.3180  0.0200
   71POPC   C1A  845   7.083   8.969  12.883 -0.4834  0.0484  0.1828
   71POPC   D2A  846   7.329   8.797  13.283 -0.1026 -0.0304  0.2253
   71POPC   C3A  847   7.745   8.577  13.320 -0.1259 -0.2220  0.1745
   71POPC   C4A  848   7.990   8.196  13.497  0.0531  0.2403 -0.1354
   71POPC   C1B  849   6.837   8.618  13.108  0.2617 -0.1543  0.2574
   71POPC   C2B  850   7.200   8.346  13.085 -0.3663 -0.0627  0.0083
   71POPC   C3B  851   7.350   8.082  12.797 -0.0627 -0.0756 -0.1209
   71POPC   C4B  852   7.359   7.943  12.401  0.0620  0.1846  0.2059
   72POPC   NC3  853  10.960  12.666   9.206 -0.3927 -0.0295 -0.3038
   72POPC   PO4  854  11.128  12.380   9.386 -0.3219 -0.0464  0.0322
   72POPC   GL1  855  11.306  12.273   9.084 -0.3044  0.2985 -0.2059
   72POPC   GL2  856  11.026  12.229   8.839 -0.1215 -0.1912 -0.0453
   72POPC   C1A  857  11.309  11.842   8.873 -0.0438  0.0439 -0.0392
   72POPC   D2A  858  11.232  11.422   8.653  0.0784 -0.0034 -0.1850
   72POPC   C3A  859  11.617  11.272   8.578  0.4029 -0.2321 -0.0334
   72POPC   C4A  860  12.087  11.256   8.634 -0.1064  0.1412  0.1346
   72POPC   C1B  861  10.977  12.419   8.388  0.0876  0.2687  0.1603
   72POPC   C2B  862  11.139  12.555   7.966 -0.1558 -0.2738 -0.2284
   72POPC   C3B  863  11.015  12.795   7.635  0.0501  0.1064  0.1014
   72POPC   C4B  864  10.695  13.053   7.564  0.1405 -0.0458  0.2051
   73POPC   NC3  865   0.976   4.876   9.419  0.4399 -0.0514  0.1803
   73POPC   PO4  866   1.187   4.975   9.110  0.0846 -0.0438 -0.3854
   73POPC   GL1  867   0.871   4.982   8.950 -0.0585 -0.0385  0.0618
   73POPC   GL2  868   0.930   5.217   8.753 -0.2113 -0.0069  0.1179
   73POPC   C1A  869   0.526   4.870   8.653  0.1095 -0.2549  0.1186
   73POPC   D2A  870   0.051   4.859   8.726 -0.0157  0.0925 -0.0840
   73POPC   C3A  871  -0.264   5.053   8.441  0.3167 -0.1765  0.2893
   73POPC   C4A  872  -0.282   5.376   8.094 -0.0924  0.0677  0.1844
   73POPC   C1B  873   0.861   5.189   8.304  0.0025 -0.0227 -0.3423
   73POPC   C2B  874   0.777   5.524   7.992  0.3138  0.0218 -0.0488
   73POPC   C3B  875   0.472   5.685   7.582  0.3044 -0.0490  0.0842
   73POPC   C4B  876   0.274   5.574   7.206 -0.1621 -0.0785  0.3793
   74POPC   NC3  877  14.853  13.492   8.391 -0.0372 -0.1458 -0.2615
   74POPC   PO4  878  14.729  13.838   8.267 -0.1425  0.1904 -0.0177
   74POPC   GL1  879  14.692  13.671   7.907 -0.0971  0.0851 -0.1399
   74POPC   GL2  880  14.841  13.383   7.851  0.2146  0.0647 -0.3207
   74POPC   C1A  881  14.303  13.403   7.902 -0.1144  0.0468 -0.0729
   74POPC   D2A  882  13.961  13.176   7.734 -0.0483 -0.0939  0.1158
   74POPC   C3A  883  14.066  13.232   7.309 -0.0803  0.0822 -0.0752
   74POPC   C4A  884  14.063  13.177   6.885 -0.1022 -0.1750 -0.1516
   74POPC   C1B  885  14.579  13.338   7.470  0.1455 -0.0687 -0.0325
   74POPC   C2B  886  14.517  13.146   7.061 -0.0886 -0.0233 -0.0665
   74POPC   C3B  887  14.481  13.096   6.566 -0.1980 -0.0647  0.1165
   74POPC   C4B  888  14.201  12.925   6.290 -0.1830  0.1580  0.1561
   75POPC   NC3  889  14.968   6.665  10.097  0.3490 -0.0070  0.1527
   75POPC   PO4  890  14.872   7.002  10.245 -0.0761 -0.1529 -0.1673
   75POPC   GL1  891  15.099   7.200   9.864 -0.2713  0.1293 -0.0027
   75POPC   GL2  892  15.060   6.971   9.642  0.3265 -0.1041  0.0766
   75POPC   C1A  893  14.864   7.504   9.579  0.2680  0.3607  0.0122
   75POPC   D2A  894  14.691   7.498   9.178 -0.0930  0.1823  0.1875
   75POPC   C3A  895  14.395   7.481   8.900  0.1502  0.2094  0.2377
   75POPC   C4A  896  14.379   7.396   8.460  0.3315  0.1011  0.0828
   75POPC   C1B  897  14.803   6.927   9.200 -0.1292  0.3267 -0.2077
   75POPC   C2B  898  14.470   6.721   8.998 -0.4055  0.1006  0.0865
   75POPC   C3B  899  14.307   6.282   9.037  0.3056 -0.0690 -0.1929
   75POPC   C4B  900  13.912   6.035   9.089  0.1316  0.1344 -0.0234
   76POPC   NC3  901   6.570  14.363   8.721  0.4652 -0.0394  0.1275
   76POPC   PO4  902   6.331  14.515   8.447 -0.1496 -0.1097 -0.2607
   76POPC   GL1  903   6.567  14.390   8.157 -0.0534 -0.0824 -0.2013
   76POPC   GL2  904   6.367  14.066   8.122  0.1151  0.0859 -0.1018
   76POPC   C1A  905   6.650  14.572   7.692  0.1869 -0.1340  0.0023
   76POPC   D2A  906   6.476  14.652   7.263 -0.1227  0.2833 -0.1459
   76POPC   C3A  907   6.567  14.500   6.867  0.0620  0.4003  0.1398
   76POPC   C4A  908   6.835  14.673   6.497  0.3136 -0.0639 -0.1810
   76POPC   C1B  909   6.212  14.124   7.718  0.0826  0.1048 -0.1825
   76POPC   C2B  910   6.074  14.326   7.298  0.1963  0.0249  0.3156
   76POPC   C3B  911   6.058  14.559   6.946  0.0041  0.1933 -0.1169
   76POPC   C4B  912   5.820  14.706   6.556  0.0890  0.1699 -0.1521
   77POPC   NC3  913  14.607   9.669  10.314  0.1576  0.0847  0.0446
   77POPC   PO4  914  14.798   9.589   9.992 -0.2175  0.1463 -0.0855
   77POPC   GL1  915  14.455   9.512   9.781  0.4023 -0.1687  0.0222
   77POPC   GL2  916  14.390   9.245   9.651  0.1808 -0.1046 -0.4192
   77POPC   C1A  917  14.131   9.588   9.431 -0.0454 -0.2852  0.2280
   77POPC   D2A  918  13.741   9.479   9.227 -0.1783  0.0023  0.2636
   77POPC   C3A  919  13.613   9.620   8.858 -0.2813 -0.0850 -0.0177
   77POPC   C4A  920  13.439   9.579   8.417  0.2163 -0.1775 -0.3637
   77POPC   C1B  921  14.126   9.017   9.302  0.1161 -0.0595  0.1438
   77POPC   C2B  922  13.965   8.836   8.889  0.1182  0.2653 -0.1182
   77POPC   C3B  923  13.739   8.561   8.592  0.1967  0.0009 -0.1226
   77POPC   C4B  924  13.525   8.234   8.368  0.2586  0.1244  0.1425
   78POPC   NC3  925   5.847   7.366  11.356 -0.0627 -0.3215 -0.1522
   78POPC   PO4  926   5.569   7.691  11.227  0.2807  0.1100  0.3980
   78POPC   GL1  927   5.851   7.583  10.882  0.0858  0.1053  0.1521
   78POPC   GL2  928   5.776   7.352  10.790 -0.1717  0.4132 -0.1278
   78POPC   C1A  929   6.017   7.778  10.491  0.2218  0.2700  0.1004
   78POPC   D2A  930   6.336   7.848  10.149 -0.1348 -0.1104  0.2969
   78POPC   C3A  931   6.511   7.625   9.785  0.3577  0.0014 -0.0184
   78POPC   C4A  932   6.903   7.558   9.521 -0.0492  0.2480  0.1460
   78POPC   C1B  933   6.198   7.348  10.526  0.2981 -0.4799 -0.1524
   78POPC   C2B  934   6.457   7.242  10.126  0.0136 -0.2987 -0.1015
   78POPC   C3B  935   6.936   7.345   9.990 -0.2127  0.1890 -0.2406
   78POPC   C4B  936   7.330   7.422   9.738  0.1153  0.1894 -0.1717
   79POPC   NC3  937   6.046  16.433   9.068  0.4249 -0.0721 -0.1556
   79POPC   PO4  938   6.200  16.040   9.028  0.1500  0.0143  0.0641
   79POPC   GL1  939   6.191  16.241   8.703  0.0306  0.2932 -0.0572
   79POPC   GL2  940   5.947  16.219   8.568 -0.1396  0.1160 -0.0827
   79POPC   C1A  941   6.203  16.688   8.681  0.2235 -0.1538 -0.0187
   79POPC   D2A  942   6.037  17.081   8.459 -0.2137 -0.0673  0.0270
   79POPC   C3A  943   6.097  16.987   7.976 -0.0626  0.0803  0.0704
   79POPC   C4A  944   6.062  16.876   7.531 -0.1652 -0.1851 -0.0568
   79POPC   C1B  945   6.041  16.573   8.248  0.4745 -0.1746 -0.2545
   79POPC   C2B  946   6.215  16.486   7.806  0.0036  0.2975  0.1200
   79POPC   C3B  947   6.535  16.668   7.497 -0.1071  0.0349  0.5174
   79POPC   C4B  948   6.972  16.914   7.387  0.0198  0.2066  0.0427
   80POPC   NC3  949   0.833  12.841   8.621 -0.3314  0.0119  0.1259
   80POPC   PO4  950   0.786  12.774   8.244  0.2716 -0.0207  0.0578
   80POPC   GL1  951   0.696  12.617   7.902  0.2491  0.0646  0.3300
   80POPC   GL2  952   0.689  12.313   7.906 -0.0612 -0.0802  0.0703
   80POPC   C1A  953   0.883  12.616   7.481 -0.2271 -0.0335 -0.3010
   80POPC   D2A  954   1.086  12.440   7.048 -0.1398  0.1774 -0.5042
   80POPC   C3A  955   1.058  12.572   6.634  0.0161 -0.1957 -0.0515
   80POPC   C4A  956   1.084  12.837   6.270 -0.1413  0.0123 -0.1678
   80POPC   C1B  957   0.520  12.211   7.529 -0.0587  0.0748 -0.0229
   80POPC   C2B  958   0.607  12.132   7.081  0.1406 -0.0612 -0.0078
   80POPC   C3B  959   0.827  12.101   6.673  0.2593 -0.2599 -0.0023
   80POPC   C4B  960   1.172  11.955   6.503  0.0166 -0.1016 -0.3566
   81POPC   NC3  961   5.325  11.738   8.736  0.1452 -0.1776 -0.3433
   81POPC   PO4  962   5.485  11.545   9.039  0.0351 -0.2595 -0.1617
   81POPC   GL1  963   5.566  11.192   8.890  0.4542 -0.2012 -0.0257
   81POPC   GL2  964   5.593  11.301   8.635  0.3678  0.0518 -0.1781
   81POPC   C1A  965   5.728  10.786   8.742 -0.1619 -0.0136  0.0042
   81POPC   D2A  966   5.852  10.474   8.407 -0.1870 -0.0187  0.1737
   81POPC   C3A  967   6.167  10.215   8.593  0.1693 -0.1801 -0.0642
   81POPC   C4A  968   6.390   9.949   8.752 -0.3865 -0.1662  0.0784
   81POPC   C1B  969   5.899  11.538   8.367 -0.0589 -0.2927  0.1377
   81POPC   C2B  970   6.043  11.487   7.919 -0.0587  0.0867 -0.0303
   81POPC   C3B  971   6.152  11.349   7.545  0.2420 -0.0974  0.0829
   81POPC   C4B  972   6.163  10.925   7.333 -0.3641 -0.1657 -0.0344
   82POPC   NC3  973   4.602  15.046   8.738  0.1311 -0.0360  0.3247
   82POPC   PO4  974   4.800  15.262   8.490  0.1531  0.1368 -0.1520
   82POPC   GL1  975   4.574  15.244   8.089  0.1784 -0.4410 -0.2709
   82POPC   GL2  976   4.758  15.434   7.986 -0.0939  0.1662  0.1590
   82POPC   C1A  977   4.657  15.150   7.633  0.0168  0.1678 -0.2497
   82POPC   D2A  978   4.714  14.992   7.210 -0.2096  0.2033 -0.1934
   82POPC   C3A  979   4.452  14.639   7.016 -0.0242  0.0829  0.0786
   82POPC   C4A  980   4.036  14.688   6.782  0.0267  0.0311 -0.1165
   82POPC   C1B  981   4.931  15.675   7.604  0.0945 -0.2150  0.2628
   82POPC   C2B  982   4.897  15.954   7.269  0.1270 -0.1409 -0.0646
   82POPC   C3B  983   4.985  16.217   6.897 -0.2245 -0.3521 -0.2363
   82POPC   C4B  984   5.235  16.081   6.525 -0.0863  0.0640  0.1123
   83POPC   NC3  985  15.289   0.784   8.564 -0.1306 -0.0709 -0.1304
   83POPC   PO4  986  15.137   0.449   8.402  0.2150  0.2212  0.0320
   83POPC   GL1  987  15.236   0.380   8.004  0.0297  0.2585 -0.0196
   83POPC   GL2  988  15.256   0.759   7.937 -0.0184 -0.1140  0.1574
   83POPC   C1A  989  15.335   0.292   7.559  0.1406  0.1671  0.1578
   83POPC   D2A  990  15.527   0.411   7.172 -0.0709  0.1534  0.0610
   83POPC   C3A  991  15.392   0.815   6.982  0.0390  0.4293 -0.0057
   83POPC   C4A  992  15.217   1.332   7.097  0.0318  0.1992 -0.2284
   83POPC   C1B  993  15.383   0.859   7.454  0.2884 -0.1420 -0.0504
   83POPC   C2B  994  15.619   1.220   7.294 -0.1023 -0.1399 -0.3220
   83POPC   C3B  995  15.700   1.611   7.122 -0.1352  0.1859 -0.0069
   83POPC   C4B  996  15.418   1.969   7.000 -0.0200  0.0798  0.0215
   84POPC   NC3  997   4.529  12.063   8.679 -0.0641  0.0087  0.0196
   84POPC   PO4  998   4.283  11.768   8.794  0.0096 -0.1743 -0.1195
   84POPC   GL1  999   4.491  11.645   8.474  0.0606 -0.0512 -0.0140
   84POPC   GL2 1000   4.364  11.432   8.356  0.0266 -0.1928 -0.0275
   84POPC   C1A 1001   4.592  11.913   8.071  0.1550  0.1976 -0.3281
   84POPC   D2A 1002   4.826  11.979   7.638 -0.0500 -0.1153  0.1260
   84POPC   C3A 1003   5.193  11.651   7.508 -0.0976 -0.3628  0.0968
   84POPC   C4A 1004   5.333  11.570   7.115  0.0915 -0.0478 -0.1628
   84POPC   C1B 1005   4.225  11.594   7.965 -0.0067  0.0758 -0.0423
   84POPC   C2B 1006   4.250  11.444   7.526  0.0636  0.0144 -0.0060
   84POPC   C3B 1007   4.160  11.343   7.109 -0.0341  0.2873 -0.0147
   84POPC   C4B 1008   4.056  11.438   6.705  0.0305  0.2703 -0.0195
   85POPC   NC3 1009   0.270  13.248   8.651 -0.2467  0.0387  0.1967
   85POPC   PO4 1010   0.093  13.330   8.304  0.1102 -0.0260  0.3185
   85POPC   GL1 1011   0.216  13.269   7.994 -0.2549  0.1870 -0.0489
   85POPC   GL2 1012   0.034  13.081   7.857  0.2646 -0.0050 -0.0574
   85POPC   C1A 1013   0.376  13.233   7.495 -0.1284  0.2065 -0.2152
   85POPC   D2A 1014   0.389  13.065   7.063 -0.0507  0.0783  0.0371
   85POPC   C3A 1015   0.159  13.007   6.692  0.3501  0.1446  0.2150
   85POPC   C4A 1016  -0.233  12.803   6.551 -0.0369 -0.1090  0.1290
   85POPC   C1B 1017  -0.130  12.849   7.505 -0.2200  0.1566  0.1407
   85POPC   C2B 1018  -0.115  12.710   7.053  0.1129  0.2143 -0.0124
   85POPC   C3B 1019  -0.205  12.332   6.712  0.0459 -0.1657  0.1358
   85POPC   C4B 1020  -0.318  12.035   6.350  0.1873 -0.2630 -0.0522
   86POPC   NC3 1021   1.176  12.198   7.897  0.1026 -0.1222 -0.0917
   86POPC   PO4 1022   1.534  12.099   7.912  0.2323  0.4295  0.3015
   86POPC   GL1 1023   1.362  11.780   7.748  0.1134 -0.0188 -0.0368
   86POPC   GL2 1024   1.585  11.573   7.712 -0.3062  0.1988  0.0321
   86POPC   C1A 1025   1.143  11.489   7.455 -0.1509 -0.1780 -0.3367
   86POPC   D2A 1026   1.193  11.261   7.053 -0.1038 -0.0905 -0.0650
   86POPC   C3A 1027   1.182  11.515   6.698 -0.1065 -0.3374  0.1214
   86POPC   C4A 1028   1.023  11.512   6.190 -0.0733  0.1162 -0.0687
   86POPC   C1B 1029   1.673  11.321   7.373  0.1604 -0.1762  0.2089
   86POPC   C2B 1030   1.632  11.417   6.879 -0.2433  0.1353 -0.0335
   86POPC   C3B 1031   1.947  11.613   6.542 -0.0467 -0.1680 -0.0074
   86POPC   C4B 1032   2.151  11.896   6.261  0.2004 -0.0547  0.2325
   87POPC   NC3 1033   5.402  32.520   9.392 -0.2415  0.4084 -0.0919
   87POPC   PO4 1034   5.626  32.222   9.215  0.0214  0.0625 -0.2620
   87POPC   GL1 1035   5.574  32.391   8.857 -0.2590  0.0769  0.0066
   87POPC   GL2 1036   5.846  32.296   8.745 -0.0265  0.0138  0.1628
   87POPC   C1A 1037   5.735  32.734   8.586  0.1337 -0.0173 -0.0933
   87POPC   D2A 1038   5.872  32.871   8.181  0.1318  0.0002  0.1658
   87POPC   C3A 1039   6.107  33.203   7.891 -0.0855 -0.2828  0.0112
   87POPC   C4A 1040   6.301  33.317   7.464 -0.1916  0.1582 -0.1557
   87POPC   C1B 1041   5.900  32.271   8.278  0.0429 -0.2485 -0.0804
   87POPC   C2B 1042   6.052  32.410   7.890  0.3623 -0.0467 -0.2284
   87POPC   C3B 1043   6.104  32.485   7.424 -0.1125 -0.1737 -0.0300
   87POPC   C4B 1044   6.027  32.402   6.936 -0.1326 -0.0447  0.0332
   88POPC   NC3 1045  15.759  11.544  16.910  0.2476  0.2816 -0.1326
   88POPC   PO4 1046  15.503  11.326  16.668 -0.0372 -0.2516  0.1395
   88POPC   GL1 1047  15.329  11.167  17.025  0.0515  0.0463  0.0587
   88POPC   GL2 1048  15.028  11.172  16.966 -0.4066  0.0220 -0.1836
   88POPC   C1A 1049  15.153  10.780  17.269 -0.1104  0.1066 -0.0146
   88POPC   D2A 1050  14.936  10.531  17.563  0.0280 -0.2766 -0.0669
   88POPC   C3A 1051  15.179  10.735  17.909 -0.0162  0.3697  0.1218
   88POPC   C4A 1052  14.997  10.966  18.240  0.0042  0.1050  0.2547
   88POPC   C1B 1053  15.093  11.258  17.406  0.1674 -0.1687 -0.0010
   88POPC   C2B 1054  15.086  11.275  17.848 -0.4290 -0.0897 -0.0272
   88POPC   C3B 1055  14.762  11.456  18.162  0.0688 -0.0491  0.0673
   88POPC   C4B 1056  14.541  11.214  18.514 -0.0861 -0.1006  0.1648
   89POPC   NC3 1057  13.184   1.067  10.193 -0.0443 -0.4204 -0.2879
   89POPC   PO4 1058  13.045   0.789   9.939  0.0012  0.4849 -0.0463
   89POPC   GL1 1059  13.016   1.107   9.685  0.1521 -0.4343 -0.4679
   89POPC   GL2 1060  12.759   1.116   9.534  0.2823  0.0354 -0.0403
   89POPC   C1A 1061  13.101   1.519   9.476  0.1442 -0.0504 -0.1515
   89POPC   D2A 1062  12.977   1.817   9.179 -0.1434  0.2597  0.0304
   89POPC   C3A 1063  12.534   1.888   8.929 -0.1633  0.1682  0.2682
   89POPC   C4A 1064  12.229   2.061   8.576  0.0767 -0.0000 -0.2364
   89POPC   C1B 1065  12.619   1.331   9.127 -0.1705  0.1430  0.0249
   89POPC   C2B 1066  12.339   1.420   8.848 -0.2049 -0.3585  0.1764
   89POPC   C3B 1067  12.025   1.631   8.577 -0.3659 -0.1745  0.1020
   89POPC   C4B 1068  11.849   1.432   8.214 -0.1529 -0.0657 -0.0929
   90POPC   NC3 1069  12.211  14.069   8.899  0.1258 -0.2223 -0.2961
   90POPC   PO4 1070  12.614  14.028   8.782  0.2863 -0.0203 -0.2098
   90POPC   GL1 1071  12.756  13.790   8.480 -0.3525 -0.1669  0.4131
   90POPC   GL2 1072  13.047  13.704   8.438 -0.0170  0.1346  0.1431
   90POPC   C1A 1073  12.682  13.712   8.023 -0.0422 -0.0348 -0.0849
   90POPC   D2A 1074  12.725  13.624   7.557 -0.0778 -0.2394 -0.3311
   90POPC   C3A 1075  12.879  13.300   7.336  0.0397  0.0838  0.2249
   90POPC   C4A 1076  12.976  12.960   7.021  0.0974  0.0020  0.0636
   90POPC   C1B 1077  13.127  13.930   8.057 -0.1765  0.0976 -0.1301
   90POPC   C2B 1078  13.097  14.036   7.587  0.3119  0.1645  0.1652
   90POPC   C3B 1079  13.091  14.134   7.066  0.0589 -0.1099  0.0029
   90POPC   C4B 1080  13.207  14.230   6.593 -0.1417 -0.2075 -0.2507
   91POPC   NC3 1081   3.526   4.695  15.586  0.3411  0.0967 -0.2097
   91POPC   PO4 1082   3.235   4.896  15.445 -0.0334 -0.3450 -0.2277
   91POPC   GL1 1083   3.237   5.130  15.847  0.1621  0.0142  0.1812
   91POPC   GL2 1084   3.303   4.939  15.994 -0.1555  0.3417  0.0068
   91POPC   C1A 1085   3.026   5.299  16.281 -0.2249 -0.3167 -0.0356
   91POPC   D2A 1086   3.368   5.433  16.637  0.0157  0.1393  0.1050
   91POPC   C3A 1087   3.525   5.211  16.969  0.0127  0.0697  0.0101
   91POPC   C4A 1088   3.667   5.119  17.429 -0.2490 -0.0191 -0.1145
   91POPC   C1B 1089   3.707   4.742  16.073 -0.0310 -0.1036  0.2606
   91POPC   C2B 1090   4.101   4.570  16.223 -0.0133  0.2228  0.1874
   91POPC   C3B 1091   4.271   4.304  16.597  0.1780 -0.3076 -0.1341
   91POPC   C4B 1092   4.491   4.196  16.975 -0.0804 -0.2000  0.1854
   92POPC   NC3 1093  32.518   9.108   9.101 -0.3070 -0.2276 -0.2293
   92POPC   PO4 1094  32.888   9.085   9.190  0.1118  0.0345  0.0701
   92POPC   GL1 1095  32.991   8.934   8.802 -0.0663  0.2092  0.1538
   92POPC   GL2 1096  32.820   8.924   8.707  0.0529 -0.0308  0.1155
   92POPC   C1A 1097  33.267   8.599   8.642  0.0657  0.1684  0.2099
   92POPC   D2A 1098  33.468   8.514   8.209  0.0884  0.2321 -0.1511
   92POPC   C3A 1099  33.227   8.317   7.864 -0.2151  0.0801  0.1858
   92POPC   C4A 1100  32.904   8.110   7.676 -0.3437  0.0918  0.0078
   92POPC   C1B 1101  32.779   8.853   8.243 -0.1605 -0.1646  0.3327
   92POPC   C2B 1102  32.865   8.764   7.799 -0.1670  0.3025  0.0373
   92POPC   C3B 1103  33.097   8.541   7.457  0.1291  0.4338  0.1552
   92POPC   C4B 1104  33.184   8.516   6.949  0.0750  0.0953 -0.0943
   93POPC   NC3 1105  15.302   4.949  10.048 -0.2770 -0.0165  0.0164
   93POPC   PO4 1106  15.174   4.566   9.979  0.2879 -0.1968  0.0163
   93POPC   GL1 1107  15.145   4.438   9.615  0.1685 -0.5109 -0.0612
   93POPC   GL2 1108  15.264   4.257   9.411  0.1363  0.0850 -0.5106
   93POPC   C1A 1109  14.966   4.647   9.190  0.1819  0.2449  0.2023
   93POPC   D2A 1110  14.888   4.823   8.807  0.1702  0.1456  0.2149
   93POPC   C3A 1111  14.611   4.833   8.417 -0.3323 -0.0247 -0.1453
   93POPC   C4A 1112  14.279   5.005   8.138  0.1436  0.2331  0.0520
   93POPC   C1B 1113  15.420   4.561   9.089 -0.0913  0.0831 -0.3788
   93POPC   C2B 1114  15.357   4.696   8.649  0.0107 -0.0049 -0.0064
   93POPC   C3B 1115  15.176   5.065   8.439 -0.1159 -0.0928 -0.1133
   93POPC   C4B 1116  14.887   5.263   8.111  0.1873  0.0555 -0.0174
   94POPC   NC3 1117   8.524  16.743   9.767 -0.2947  0.0052  0.1119
   94POPC   PO4 1118   8.373  17.023   9.996 -0.3293 -0.4347 -0.0296
   94POPC   GL1 1119   8.280  17.282   9.715 -0.2086  0.0496 -0.0063
   94POPC   GL2 1120   8.462  17.140   9.512 -0.0416  0.2998  0.0522
   94POPC   C1A 1121   8.375  17.677   9.559 -0.1769  0.0305 -0.0585
   94POPC   D2A 1122   8.622  17.898   9.297 -0.1026 -0.0827 -0.2965
   94POPC   C3A 1123   8.750  18.074   8.938 -0.2493  0.3450  0.3115
   94POPC   C4A 1124   8.823  18.086   8.485 -0.0130 -0.1525 -0.0306
   94POPC   C1B 1125   8.388  17.458   9.118 -0.2448  0.2395 -0.2080
   94POPC   C2B 1126   8.350  17.799   8.831 -0.2322  0.1681  0.1522
   94POPC   C3B 1127   8.364  18.262   8.616  0.1328 -0.1590  0.1108
   94POPC   C4B 1128   8.662  18.626   8.588  0.0860 -0.3389  0.2994
   95POPC   NC3 1129   6.637  16.264   8.836 -0.1173 -0.0148 -0.1222
   95POPC   PO4 1130   6.596  16.474   9.196 -0.0375 -0.1389  0.1911
   95POPC   GL1 1131   6.682  16.804   8.925 -0.2569  0.0254 -0.0269
   95POPC   GL2 1132   6.911  16.929   9.023  0.1752 -0.1252  0.0594
   95POPC   C1A 1133   6.569  16.922   8.495 -0.1517 -0.1472 -0.1623
   95POPC   D2A 1134   6.688  17.274   8.230  0.1704 -0.0096 -0.0840
   95POPC   C3A 1135   6.250  17.441   8.076 -0.0917  0.0056 -0.1243
   95POPC   C4A 1136   5.826  17.413   8.071  0.4360 -0.2000  0.5453
   95POPC   C1B 1137   6.995  17.135   8.610 -0.1386  0.2013  0.1280
   95POPC   C2B 1138   7.055  17.561   8.377 -0.0549  0.0706 -0.0826
   95POPC   C3B 1139   7.131  17.954   8.145 -0.1166  0.0771  0.2279
   95POPC   C4B 1140   7.180  18.120   7.734 -0.1840  0.1925 -0.3926
   96POPC   NC3 1141   2.155   2.092   8.954 -0.2439  0.0953  0.0157
   96POPC   PO4 1142   1.785   2.081   8.814  0.2384 -0.3110 -0.1084
   96POPC   GL1 1143   1.985   2.245   8.403 -0.1883  0.3614  0.2263
   96POPC   GL2 1144   2.241   2.270   8.506  0.0897  0.1167 -0.0643
   96POPC   C1A 1145   2.097   2.406   8.009 -0.4428 -0.0970 -0.0329
   96POPC   D2A 1146   2.293   2.635   7.593 -0.0828 -0.0560  0.1022
   96POPC   C3A 1147   2.502   2.679   7.222  0.2766 -0.0362  0.1592
   96POPC   C4A 1148   2.917   2.765   7.045  0.3940 -0.0737  0.2826
   96POPC   C1B 1149   2.539   2.235   8.087  0.1503  0.1475 -0.1931
   96POPC   C2B 1150   2.764   2.185   7.682 -0.0012 -0.0620 -0.0555
   96POPC   C3B 1151   3.017   2.391   7.335  0.2934  0.0895 -0.3636
   96POPC   C4B 1152   3.449   2.556   7.168  0.0386  0.2281  0.0638
   97POPC   NC3 1153  11.928   0.211   8.668 -0.2919  0.0578 -0.0100
   97POPC   PO4 1154  12.040   0.290   9.065 -0.1260 -0.0109 -0.0529
   97POPC   GL1 1155  12.011   0.606   8.881  0.1503  0.2780 -0.0151
   97POPC   GL2 1156  11.819   0.795   9.066 -0.0340 -0.0272  0.2046
   97POPC   C1A 1157  12.116   0.652   8.404  0.2239  0.0167 -0.0137
   97POPC   D2A 1158  11.997   0.953   8.083 -0.0446  0.4935  0.2426
   97POPC   C3A 1159  11.689   1.140   7.764  0.1228 -0.2819 -0.0565
   97POPC   C4A 1160  11.442   1.354   7.415 -0.2481 -0.4103  0.0540
   97POPC   C1B 1161  11.746   0.987   8.687  0.0197 -0.0286  0.2362
   97POPC   C2B 1162  11.517   1.096   8.236  0.1907  0.1610  0.0430
   97POPC   C3B 1163  11.209   1.172   7.908 -0.0211 -0.2085  0.0460
   97POPC   C4B 1164  10.974   1.357   7.565 -0.1489  0.0023 -0.1406
   98POPC   NC3 1165  14.743   4.406  13.574  0.3091 -0.3466  0.1349
   98POPC   PO4 1166  14.558   4.069  13.607 -0.4306 -0.2006 -0.0232
   98POPC   GL1 1167  14.185   4.023  13.638  0.0517  0.1682 -0.1163
   98POPC   GL2 1168  14.192   3.733  13.567  0.1724 -0.2958  0.1200
   98POPC   C1A 1169  13.789   4.042  13.887  0.2376  0.1609  0.0237
   98POPC   D2A 1170  13.429   4.115  14.066 -0.1521 -0.0498 -0.2145
   98POPC   C3A 1171  12.955   4.090  14.057 -0.2787  0.2406 -0.3733
   98POPC   C4A 1172  12.505   3.948  14.121 -0.0763  0.0559  0.1668
   98POPC   C1B 1173  13.736   3.791  13.476  0.0949 -0.0105 -0.0848
   98POPC   C2B 1174  13.300   3.967  13.501 -0.0284 -0.1621  0.0922
   98POPC   C3B 1175  12.937   4.234  13.556 -0.0569 -0.0708  0.0383
   98POPC   C4B 1176  12.474   4.146  13.504 -0.1708  0.1064 -0.2989
   99POPC   NC3 1177   4.846   7.350  13.787  0.0171  0.1954 -0.0507
   99POPC   PO4 1178   4.936   7.172  13.471 -0.0778  0.2904 -0.0695
   99POPC   GL1 1179   5.267   7.054  13.501 -0.0345  0.4200 -0.1415
   99POPC   GL2 1180   5.446   7.092  13.734 -0.1532  0.2187 -0.1079
   99POPC   C1A 1181   5.594   6.848  13.229  0.0235 -0.0686  0.3727
   99POPC   D2A 1182   5.733   6.427  13.160 -0.1908 -0.3387 -0.2080
   99POPC   C3A 1183   6.062   6.338  13.455 -0.2796 -0.0551 -0.0400
   99POPC   C4A 1184   6.136   6.148  13.884  0.0272  0.3560  0.2713
   99POPC   C1B 1185   5.816   7.064  13.966  0.0234 -0.1919 -0.0873
   99POPC   C2B 1186   6.249   7.192  14.155  0.2653  0.2243 -0.1016
   99POPC   C3B 1187   6.501   7.170  14.523 -0.2659 -0.2366  0.2304
   99POPC   C4B 1188   6.817   7.114  14.920  0.2442  0.2944 -0.0625
  100POPC   NC3 1189   3.683   6.700   9.399  0.2187 -0.1429  0.0494
  100POPC   PO4 1190   3.423   6.783   9.711 -0.2537 -0.0089 -0.0743
  100POPC   GL1 1191   3.239   6.779   9.358 -0.3006 -0.2400 -0.0137
  100POPC   GL2 1192   3.053   6.559   9.349 -0.2113  0.2115 -0.1659
  100POPC   C1A 1193   2.927   7.029   9.187  0.3129 -0.3622 -0.0011
  100POPC   D2A 1194   2.510   6.977   9.015 -0.2016  0.0823  0.1577
  100POPC   C3A 1195   2.598   6.905   8.540  0.0707 -0.0319  0.0435
  100POPC   C4A 1196   2.798   6.738   8.174 -0.0544  0.4595  0.2471
  100POPC   C1B 1197   3.346   6.362   9.088 -0.0512 -0.0276  0.0313
  100POPC   C2B 1198   3.752   6.386   8.948 -0.3294 -0.3301 -0.3786
  100POPC   C3B 1199   4.127   6.419   8.691  0.2583 -0.0726 -0.1222
  100POPC   C4B 1200   4.478   6.346   8.395 -0.0505 -0.3154  0.2234
  101POPC   NC3 1201   4.349   9.264   9.382  0.2201 -0.0852 -0.0051
  101POPC   PO4 1202   4.746   9.234   9.446 -0.1210  0.1071 -0.0384
  101POPC   GL1 1203   4.761   8.971   9.164 -0.2067 -0.2315 -0.4026
  101POPC   GL2 1204   4.493   8.758   9.239  0.1978  0.2881  0.4034
  101POPC   C1A 1205   4.690   8.844   8.778  0.0712  0.1862  0.2950
  101POPC   D2A 1206   4.692   8.503   8.488  0.3110 -0.0359  0.0136
  101POPC   C3A 1207   4.746   8.198   8.122 -0.0901  0.0211 -0.0671
  101POPC   C4A 1208   4.971   7.904   7.936 -0.0139  0.0826  0.4430
  101POPC   C1B 1209   4.652   8.361   8.997  0.0349 -0.5333  0.1236
  101POPC   C2B 1210   4.816   8.082   8.667 -0.0636  0.1041  0.0620
  101POPC   C3B 1211   5.082   7.849   8.405 -0.1619 -0.0028 -0.0720
  101POPC   C4B 1212   5.515   7.564   8.353 -0.0193 -0.0019  0.4500
  102POPC   NC3 1213  10.320   1.361  11.340 -0.1302  0.0746 -0.0634
  102POPC   PO4 1214  10.116   1.205  11.129  0.2055 -0.0671  0.1791
  102POPC   GL1 1215   9.950   1.562  10.970  0.1103 -0.1218  0.1518
  102POPC   GL2 1216   9.820   1.648  11.233  0.2369 -0.2985 -0.0707
  102POPC   C1A 1217   9.723   1.943  10.805  0.0844 -0.1275 -0.2494
  102POPC   D2A 1218   9.545   2.355  10.710 -0.1135  0.2956 -0.1150
  102POPC   C3A 1219   9.809   2.608  10.907 -0.0960  0.2751 -0.2741
  102POPC   C4A 1220  10.112   2.958  10.959  0.3747  0.0568 -0.1208
  102POPC   C1B 1221   9.593   2.075  11.374 -0.3619  0.0507 -0.0437
  102POPC   C2B 1222   9.526   2.484  11.585 -0.3373 -0.0452  0.0982
  102POPC   C3B 1223   9.397   2.900  11.728 -0.0854  0.1050  0.1898
  102POPC   C4B 1224   9.456   3.324  11.637 -0.1640  0.1218 -0.0550
  103POPC   NC3 1225  14.494   2.339  14.761  0.0906  0.2673 -0.1663
  103POPC   PO4 1226  14.372   2.653  14.625 -0.0615 -0.1146 -0.1718
  103POPC   GL1 1227  14.190   2.565  15.021  0.3267  0.0558  0.4254
  103POPC   GL2 1228  13.974   2.520  14.855  0.0435 -0.2023  0.0819
  103POPC   C1A 1229  14.011   2.321  15.377  0.0218 -0.1480  0.0578
  103POPC   D2A 1230  13.651   2.419  15.612 -0.0406 -0.0336 -0.3860
  103POPC   C3A 1231  13.533   2.587  16.053  0.0152 -0.0879  0.2101
  103POPC   C4A 1232  13.514   2.795  16.502 -0.2370  0.1168  0.0425
  103POPC   C1B 1233  13.797   2.735  15.185 -0.2539 -0.4891 -0.0254
  103POPC   C2B 1234  13.575   2.907  15.571  0.0195  0.1172 -0.2603
  103POPC   C3B 1235  13.583   3.070  16.030 -0.0620  0.1784 -0.0166
  103POPC   C4B 1236  13.270   3.321  16.222 -0.2508 -0.1135  0.1534
  104POPC   NC3 1237   3.855  32.164   8.291 -0.2029 -0.0979 -0.1077
  104POPC   PO4 1238   4.153  32.189   8.566 -0.0571  0.0055  0.2986
  104POPC   GL1 1239   4.304  32.182   8.250  0.3412  0.0777  0.0181
  104POPC   GL2 1240   4.579  32.214   8.250  0.1119  0.1341 -0.2692
  104POPC   C1A 1241   4.468  32.000   7.805  0.2710 -0.4215 -0.0338
  104POPC   D2A 1242   4.732  31.819   7.542  0.1788 -0.3017  0.1401
  104POPC   C3A 1243   4.589  31.948   7.136  0.0059 -0.2724 -0.1761
  104POPC   C4A 1244   4.547  32.231   6.718  0.2074  0.4243  0.1482
  104POPC   C1B 1245   4.648  32.449   7.890  0.3222 -0.3336 -0.3935
  104POPC   C2B 1246   4.730  32.306   7.476 -0.2138 -0.2736  0.0691
  104POPC   C3B 1247   4.902  32.354   7.074  0.0795  0.0166 -0.1505
  104POPC   C4B 1248   5.244  32.422   6.778  0.2676  0.0662 -0.0192
  105POPC   NC3 1249   6.456  13.057   8.848 -0.1017  0.0566  0.3652
  105POPC   PO4 1250   6.323  13.423   8.726  0.0989 -0.4143 -0.2391
  105POPC   GL1 1251   6.445  13.390   8.412  0.2238  0.0975 -0.1381
  105POPC   GL2 1252   6.392  13.037   8.340 -0.0667 -0.1247 -0.0022
  105POPC   C1A 1253   6.396  13.609   8.020 -0.0587  0.0725  0.0162
  105POPC   D2A 1254   6.331  13.631   7.577  0.1719  0.2698  0.2620
  105POPC   C3A 1255   6.714  13.637   7.245 -0.0553 -0.1043 -0.3048
  105POPC   C4A 1256   6.987  13.231   7.150  0.3641 -0.2148  0.0012
  105POPC   C1B 1257   6.452  13.059   7.828 -0.2310  0.0132 -0.2412
  105POPC   C2B 1258   6.565  13.166   7.443 -0.2591 -0.1204  0.0297
  105POPC   C3B 1259   6.382  13.183   7.053 -0.2424  0.2539 -0.0154
  105POPC   C4B 1260   6.288  13.515   6.777 -0.1228  0.0215 -0.1195
  106POPC   NC3 1261   6.330   9.111  10.927 -0.2055 -0.0525 -0.1117
  106POPC   PO4 1262   6.717   9.204  10.960 -0.1071  0.3653 -0.1885
  106POPC   GL1 1263   6.858   8.949  11.172 -0.0373  0.0539  0.0158
  106POPC   GL2 1264   6.794   8.705  11.056 -0.2384  0.0004 -0.1476
  106POPC   C1A 1265   7.301   8.775  11.167  0.0703 -0.4808  0.1463
  106POPC   D2A 1266   7.638   8.501  10.980 -0.2762  0.0889  0.3022
  106POPC   C3A 1267   7.642   8.081  10.922 -0.1571  0.0364 -0.0785
  106POPC   C4A 1268   7.680   7.758  10.556  0.1781  0.0092  0.0211
  106POPC   C1B 1269   7.138   8.422  10.812 -0.1307  0.0546  0.1989
  106POPC   C2B 1270   7.162   7.957  10.660 -0.4074 -0.0242  0.1025
  106POPC   C3B 1271   7.183   7.503  10.612  0.0511  0.0963 -0.0484
  106POPC   C4B 1272   7.257   7.060  10.631 -0.0462  0.2833 -0.0773
  107POPC   NC3 1273  16.619  10.755   8.822  0.0722 -0.0234 -0.2382
  107POPC   PO4 1274  16.787  11.031   9.091 -0.0480 -0.3916  0.2233
  107POPC   GL1 1275  16.906  11.132   8.727 -0.1217  0.1812 -0.2034
  107POPC   GL2 1276  16.654  11.231   8.592 -0.0811 -0.2296  0.0190
  107POPC   C1A 1277  16.915  10.845   8.323 -0.0171  0.2352  0.0501
  107POPC   D2A 1278  16.918  10.917   7.908 -0.3021 -0.1258  0.4594
  107POPC   C3A 1279  17.038  10.856   7.491 -0.1401  0.3887 -0.2127
  107POPC   C4A 1280  16.880  10.547   7.147  0.1517  0.0007  0.0900
  107POPC   C1B 1281  16.501  11.056   8.133 -0.0153  0.0638  0.2002
  107POPC   C2B 1282  16.421  10.943   7.679 -0.3015 -0.0916  0.0952
  107POPC   C3B 1283  16.444  10.798   7.237  0.1360 -0.1206 -0.2866
  107POPC   C4B 1284  16.322  10.591   6.870 -0.0018  0.0277  0.3727
  108POPC   NC3 1285   0.178   8.072   9.707 -0.2681 -0.1163 -0.3231
  108POPC   PO4 1286   0.387   7.721   9.663  0.0549 -0.0418 -0.2269
  108POPC   GL1 1287   0.366   7.664   9.166 -0.2602 -0.0472 -0.2230
  108POPC   GL2 1288   0.136   7.634   8.951  0.0780 -0.3467  0.0288
  108POPC   C1A 1289   0.603   7.643   8.719  0.3808  0.1058  0.1002
  108POPC   D2A 1290   0.873   7.428   8.387 -0.1961  0.0029 -0.1025
  108POPC   C3A 1291   0.592   7.303   8.014 -0.0124 -0.3524  0.2265
  108POPC   C4A 1292   0.197   7.130   7.983 -0.1438  0.3865  0.1198
  108POPC   C1B 1293   0.070   7.884   8.572 -0.1999  0.2347 -0.2633
  108POPC   C2B 1294   0.143   7.844   8.162  0.0875  0.0359  0.0161
  108POPC   C3B 1295   0.161   7.583   7.768  0.3197  0.0378 -0.0046
  108POPC   C4B 1296  -0.109   7.245   7.563  0.2573 -0.0009 -0.0864
  109POPC   NC3 1297   3.663  10.680   8.567  0.0952  0.3449 -0.0043
  109POPC   PO4 1298   3.898  10.913   8.811 -0.1775  0.1354 -0.0993
  109POPC   GL1 1299   4.112  10.882   8.506  0.0279  0.1107  0.0060
  109POPC   GL2 1300   4.361  10.833   8.392 -0.1929 -0.3908 -0.3109
  109POPC   C1A 1301   3.970  10.622   8.111 -0.4819  0.1733  0.0454
  109POPC   D2A 1302   3.935  10.226   7.884  0.2672 -0.1772 -0.0530
  109POPC   C3A 1303   3.994   9.763   7.822  0.0051  0.0778 -0.0129
  109POPC   C4A 1304   3.921   9.396   7.531 -0.1828  0.0384  0.0422
  109POPC   C1B 1305   4.654  10.700   8.083  0.3893 -0.0805  0.2937
  109POPC   C2B 1306   5.114  10.651   7.990 -0.1892 -0.0141  0.1503
  109POPC   C3B 1307   5.422  10.884   7.711  0.0989  0.1192 -0.2520
  109POPC   C4B 1308   5.525  11.242   7.491  0.0266  0.1993  0.0117
  110POPC   NC3 1309   2.178   7.390   8.896 -0.1893  0.0287  0.1209
  110POPC   PO4 1310   2.488   7.446   9.142  0.1259  0.1276  0.0475
  110POPC   GL1 1311   2.805   7.306   8.840  0.0788  0.4148 -0.0431
  110POPC   GL2 1312   2.691   7.412   8.663 -0.1229  0.0566 -0.1679
  110POPC   C1A 1313   3.122   6.927   8.764 -0.2377  0.0298  0.0555
  110POPC   D2A 1314   3.203   6.496   8.601  0.0437  0.1085 -0.3098
  110POPC   C3A 1315   3.581   6.404   8.385  0.0994 -0.2644  0.0524
  110POPC   C4A 1316   3.624   6.453   7.937  0.1785  0.2061 -0.1399
  110POPC   C1B 1317   2.954   7.153   8.301 -0.0201  0.1257 -0.1737
  110POPC   C2B 1318   3.128   7.104   7.867 -0.5293 -0.1873 -0.0167
  110POPC   C3B 1319   3.047   6.789   7.514  0.2204  0.0751  0.0004
  110POPC   C4B 1320   2.854   6.451   7.208 -0.2681  0.1486 -0.0177
  111POPC   NC3 1321  11.077   0.527   9.724 -0.0048  0.0754  0.1449
  111POPC   PO4 1322  11.458   0.408   9.729  0.2623  0.0921 -0.3481
  111POPC   GL1 1323  11.636   0.810   9.524 -0.0558  0.2694  0.3365
  111POPC   GL2 1324  11.395   0.712   9.313  0.1300  0.1500 -0.1899
  111POPC   C1A 1325  11.484   1.213   9.580 -0.0502 -0.0700 -0.0379
  111POPC   D2A 1326  11.264   1.521   9.321  0.0072  0.3407  0.1911
  111POPC   C3A 1327  11.446   1.833   9.030 -0.0204 -0.2043 -0.1175
  111POPC   C4A 1328  11.620   1.974   8.629  0.0608  0.0394 -0.2179
  111POPC   C1B 1329  11.384   1.083   9.041 -0.2823 -0.0905  0.0770
  111POPC   C2B 1330  11.060   1.264   8.693  0.0125 -0.1481 -0.1164
  111POPC   C3B 1331  10.855   1.659   8.610  0.0547  0.1551  0.1459
  111POPC   C4B 1332  10.877   1.973   8.278  0.1942  0.2646 -0.0764
  112POPC   NC3 1333   7.269  15.969   9.797  0.0273 -0.0114  0.0632
  112POPC   PO4 1334   7.475  16.236   9.607  0.2240 -0.0174  0.0860
  112POPC   GL1 1335   7.264  16.467   9.387  0.2063  0.1776  0.0935
  112POPC   GL2 1336   7.126  16.478   9.097  0.0346  0.0520 -0.1046
  112POPC   C1A 1337   7.326  16.927   9.363 -0.2052 -0.1293  0.1972
  112POPC   D2A 1338   7.432  17.308   9.183 -0.0765  0.0583 -0.1261
  112POPC   C3A 1339   7.347  17.611   8.829 -0.1714 -0.0557  0.0580
  112POPC   C4A 1340   7.345  18.075   8.744 -0.1899  0.0608 -0.1178
  112POPC   C1B 1341   7.005  16.516   8.648  0.3910  0.2310  0.2136
  112POPC   C2B 1342   6.931  16.752   8.269  0.0242 -0.3453  0.0714
  112POPC   C3B 1343   7.099  17.094   7.955  0.0920 -0.3686 -0.1895
  112POPC   C4B 1344   7.249  17.411   7.728 -0.1129 -0.1719  0.0396
  113POPC   NC3 1345  12.793  12.948   9.162  0.1424  0.0444  0.0799
  113POPC   PO4 1346  12.978  12.984   8.844 -0.0139 -0.0589  0.0448
  113POPC   GL1 1347  12.799  12.865   8.556 -0.0488 -0.1360 -0.2602
  113POPC   GL2 1348  12.595  12.662   8.479  0.0417  0.0239  0.0619
  113POPC   C1A 1349  12.925  12.750   8.106 -0.0329 -0.2235  0.1713
  113POPC   D2A 1350  12.821  12.332   7.856 -0.0010 -0.2637  0.1102
  113POPC   C3A 1351  12.435  12.152   7.616  0.1297  0.2310  0.0132
  113POPC   C4A 1352  12.128  11.766   7.628 -0.1039  0.0690  0.2331
  113POPC   C1B 1353  12.438  12.290   8.295 -0.3234 -0.1246  0.1177
  113POPC   C2B 1354  12.575  11.920   8.170  0.1753 -0.0683  0.0496
  113POPC   C3B 1355  12.631  11.604   7.857 -0.0229  0.0798  0.2475
  113POPC   C4B 1356  12.662  11.171   7.747  0.2488 -0.1946  0.3344
  114POPC   NC3 1357   4.994  15.417   9.402 -0.0921  0.0625  0.1966
  114POPC   PO4 1358   4.929  15.576   9.053 -0.2591 -0.1340  0.0242
  114POPC   GL1 1359   5.150  15.851   8.736 -0.3292 -0.2073  0.0196
  114POPC   GL2 1360   4.979  15.839   8.504  0.1627  0.0893  0.3340
  114POPC   C1A 1361   5.413  16.100   8.380  0.2173 -0.3325  0.1218
  114POPC   D2A 1362   5.575  16.349   8.099  0.2052 -0.0372  0.1641
  114POPC   C3A 1363   5.625  16.504   7.651  0.0723  0.1355 -0.0815
  114POPC   C4A 1364   5.779  16.581   7.270 -0.0186 -0.2190  0.1498
  114POPC   C1B 1365   4.671  15.916   8.092 -0.2167 -0.1475  0.0960
  114POPC   C2B 1366   4.575  16.125   7.673  0.1897  0.0042 -0.1917
  114POPC   C3B 1367   4.658  16.384   7.277 -0.2621  0.2381 -0.2739
  114POPC   C4B 1368   4.422  16.444   6.872 -0.1527 -0.1258 -0.2666
  115POPC   NC3 1369  11.004   0.770  10.845 -0.1085 -0.1796 -0.2178
  115POPC   PO4 1370  11.169   1.009  10.591 -0.2562 -0.0553 -0.0423
  115POPC   GL1 1371  10.989   1.353  10.662  0.1144 -0.1369  0.1109
  115POPC   GL2 1372  11.072   1.358  10.983 -0.2114  0.2509 -0.1035
  115POPC   C1A 1373  11.111   1.671  10.347 -0.0183  0.0133  0.1999
  115POPC   D2A 1374  11.456   1.954  10.164 -0.0133 -0.0407  0.1478
  115POPC   C3A 1375  11.469   2.368   9.983  0.2720 -0.1637 -0.0113
  115POPC   C4A 1376  11.339   2.805  10.055 -0.2246 -0.2108  0.0339
  115POPC   C1B 1377  10.876   1.766  10.780  0.2789 -0.1214  0.4367
  115POPC   C2B 1378  10.662   1.948  10.366 -0.1099  0.1134 -0.1211
  115POPC   C3B 1379  10.454   2.366  10.290  0.0508 -0.4296  0.1008
  115POPC   C4B 1380  10.363   2.668  10.645  0.0638  0.1105 -0.0022
  116POPC   NC3 1381   0.227  10.602   8.827  0.0881 -0.0519 -0.0819
  116POPC   PO4 1382   0.609  10.585   8.708 -0.4718 -0.2580 -0.0042
  116POPC   GL1 1383   0.807  10.362   8.382  0.0570  0.0677 -0.2501
  116POPC   GL2 1384   0.904  10.216   8.533  0.1976  0.1521  0.1045
  116POPC   C1A 1385   0.623  10.310   7.940  0.2066  0.2862 -0.2944
  116POPC   D2A 1386   0.605  10.187   7.491 -0.0562 -0.0582 -0.0313
  116POPC   C3A 1387   0.189  10.032   7.488 -0.1288 -0.0027 -0.1427
  116POPC   C4A 1388  -0.203  10.041   7.791 -0.1033 -0.1241 -0.3821
  116POPC   C1B 1389   0.724   9.921   8.242 -0.2330 -0.0847 -0.0948
  116POPC   C2B 1390   0.504   9.769   7.972 -0.0446  0.1280 -0.1246
  116POPC   C3B 1391   0.567   9.680   7.505 -0.0213  0.0575 -0.1190
  116POPC   C4B 1392   0.478   9.609   7.071  0.2733  0.2584  0.3747
  117POPC   NC3 1393   9.222   0.296  13.740  0.1009  0.1867 -0.0562
  117POPC   PO4 1394   9.244   0.414  14.101 -0.0490 -0.3237 -0.0994
  117POPC   GL1 1395   9.200   0.849  14.344 -0.0267 -0.0409  0.0738
  117POPC   GL2 1396   8.970   0.667  14.462  0.0550 -0.0351 -0.3157
  117POPC   C1A 1397   9.098   1.325  14.283  0.0328 -0.0391  0.0722
  117POPC   D2A 1398   9.207   1.725  14.340 -0.3734 -0.0056  0.1838
  117POPC   C3A 1399   9.159   2.147  14.109  0.0529 -0.3870  0.1616
  117POPC   C4A 1400   9.066   2.602  14.159 -0.3988  0.2397  0.1168
  117POPC   C1B 1401   8.706   0.879  14.735  0.0805 -0.0451 -0.1534
  117POPC   C2B 1402   8.666   1.278  14.989  0.0569  0.0446  0.0591
  117POPC   C3B 1403   8.513   1.657  15.242 -0.0661  0.1409 -0.0800
  117POPC   C4B 1404   8.336   2.074  15.342 -0.2494 -0.0070  0.0825
  118POPC   NC3 1405   3.746  11.438   8.942 -0.1661 -0.1517 -0.2992
  118POPC   PO4 1406   3.860  11.427   8.588 -0.0267 -0.1801  0.0795
  118POPC   GL1 1407   3.997  11.218   8.258  0.5936 -0.2869  0.2609
  118POPC   GL2 1408   3.720  11.139   8.186  0.0303  0.3060  0.0535
  118POPC   C1A 1409   4.298  11.020   7.983  0.0507  0.0129 -0.1165
  118POPC   D2A 1410   4.631  11.032   7.621  0.0529 -0.2969  0.1119
  118POPC   C3A 1411   4.866  10.690   7.416 -0.1755 -0.4610  0.0554
  118POPC   C4A 1412   5.120  10.431   7.075 -0.1107 -0.0242  0.3013
  118POPC   C1B 1413   3.877  11.161   7.787 -0.1174  0.1821  0.2200
  118POPC   C2B 1414   3.743  11.194   7.299 -0.0888 -0.1564 -0.3377
  118POPC   C3B 1415   3.657  11.084   6.885 -0.2138 -0.2952 -0.1427
  118POPC   C4B 1416   3.553  10.887   6.485  0.0037 -0.2473  0.3382
  119POPC   NC3 1417  15.980   3.549   9.177  0.2573 -0.1224 -0.0978
  119POPC   PO4 1418  16.262   3.309   9.219 -0.0825 -0.1072  0.0123
  119POPC   GL1 1419  16.218   3.353   8.818  0.4230  0.0016  0.0827
  119POPC   GL2 1420  15.948   3.192   8.824  0.1139 -0.2053  0.0909
  119POPC   C1A 1421  16.085   3.539   8.418 -0.2721  0.2841 -0.1721
  119POPC   D2A 1422  16.110   3.656   7.969 -0.0354 -0.2079 -0.2775
  119POPC   C3A 1423  16.272   3.336   7.714 -0.1524  0.0254 -0.2057
  119POPC   C4A 1424  16.216   3.335   7.242 -0.0820 -0.2186 -0.3667
  119POPC   C1B 1425  15.589   3.277   8.592  0.1309  0.0317  0.1407
  119POPC   C2B 1426  15.164   3.443   8.364 -0.1619  0.0431 -0.3504
  119POPC   C3B 1427  14.792   3.634   8.166 -0.1837 -0.1891  0.0424
  119POPC   C4B 1428  14.573   3.703   7.671 -0.1707 -0.1706  0.1708
  120POPC   NC3 1429   3.074   8.752   9.317 -0.3420 -0.1049  0.1402
  120POPC   PO4 1430   3.404   8.939   9.445 -0.3517  0.0761 -0.0458
  120POPC   GL1 1431   3.604   8.675   9.276  0.2319 -0.1958 -0.0743
  120POPC   GL2 1432   3.511   8.721   8.958  0.2027  0.0765  0.0737
  120POPC   C1A 1433   3.950   8.497   9.058 -0.0732 -0.1083 -0.2738
  120POPC   D2A 1434   4.238   8.548   8.668 -0.0260 -0.2207  0.0731
  120POPC   C3A 1435   4.139   8.243   8.328  0.4476 -0.0193  0.2975
  120POPC   C4A 1436   4.118   8.255   7.884  0.1660  0.1422  0.1905
  120POPC   C1B 1437   3.697   8.479   8.557  0.0835  0.0033 -0.1555
  120POPC   C2B 1438   3.558   8.266   8.143  0.2373 -0.0839  0.2712
  120POPC   C3B 1439   3.612   8.009   7.827  0.0076  0.2887  0.3736
  120POPC   C4B 1440   3.914   7.840   7.512 -0.0096 -0.0569  0.0691
  121POPC   NC3 1441  12.124   1.276  10.686 -0.1851  0.2568  0.1543
  121POPC   PO4 1442  12.038   1.444  11.029 -0.0275 -0.0500  0.0571
  121POPC   GL1 1443  11.786   1.730  10.776  0.2526 -0.1477 -0.0222
  121POPC   GL2 1444  11.733   1.882  11.022  0.1214  0.1760 -0.2281
  121POPC   C1A 1445  11.378   1.946  10.659  0.0832  0.0692  0.1120
  121POPC   D2A 1446  11.111   2.218  10.449  0.1726 -0.0124 -0.1109
  121POPC   C3A 1447  11.181   2.631  10.485 -0.1103 -0.1718 -0.0267
  121POPC   C4A 1448  11.165   3.110  10.595  0.0586 -0.0457 -0.2017
  121POPC   C1B 1449  11.644   2.355  10.975  0.0220  0.2797  0.1476
  121POPC   C2B 1450  11.456   2.766  10.892  0.1754  0.1971  0.1975
  121POPC   C3B 1451  11.274   3.101  11.072 -0.3264 -0.2413 -0.0641
  121POPC   C4B 1452  11.315   3.508  11.337 -0.1160  0.3292 -0.0426
  122POPC   NC3 1453   5.111  11.267   9.324  0.0201 -0.1722  0.2396
  122POPC   PO4 1454   5.089  11.075   8.960  0.0119  0.0563 -0.2035
  122POPC   GL1 1455   5.295  10.787   8.591  0.1813 -0.3848  0.0081
  122POPC   GL2 1456   5.315  10.576   8.846  0.3923  0.1670 -0.1747
  122POPC   C1A 1457   5.569  10.821   8.195 -0.0084  0.0981  0.3798
  122POPC   D2A 1458   5.668  10.534   7.878  0.2393  0.0128  0.0426
  122POPC   C3A 1459   5.348  10.382   7.554 -0.2115 -0.1189 -0.1293
  122POPC   C4A 1460   4.958  10.233   7.586  0.0921 -0.1394  0.2151
  122POPC   C1B 1461   5.285  10.374   8.383  0.0516 -0.1472  0.0008
  122POPC   C2B 1462   5.394  10.136   7.971 -0.1669  0.1383 -0.0698
  122POPC   C3B 1463   5.698   9.866   7.765 -0.0511 -0.2355  0.0847
  122POPC   C4B 1464   6.120  10.004   7.544  0.0060  0.1259 -0.0835
  123POPC   NC3 1465   6.871   3.202  10.608  0.2517  0.1593 -0.0535
  123POPC   PO4 1466   6.956   2.828  10.601  0.1649 -0.2333 -0.1904
  123POPC   GL1 1467   7.213   2.885  10.411 -0.3006 -0.1034  0.0516
  123POPC   GL2 1468   7.451   2.980  10.547 -0.0897  0.4830 -0.0524
  123POPC   C1A 1469   7.327   3.212  10.065 -0.2001 -0.1529 -0.1121
  123POPC   D2A 1470   7.223   3.373   9.626  0.3668 -0.2385 -0.2340
  123POPC   C3A 1471   7.348   3.808   9.539 -0.0426 -0.1020  0.0060
  123POPC   C4A 1472   7.682   4.091   9.710 -0.0810 -0.0972  0.1613
  123POPC   C1B 1473   7.899   2.979  10.539 -0.0546  0.4103  0.3684
  123POPC   C2B 1474   8.226   3.301  10.454  0.2448  0.1172  0.1651
  123POPC   C3B 1475   8.353   3.727  10.370  0.2481 -0.1320 -0.0564
  123POPC   C4B 1476   8.698   4.059  10.433 -0.0134  0.0235 -0.0827
  124POPC   NC3 1477   4.938   2.883  13.579  0.0670 -0.2350 -0.1087
  124POPC   PO4 1478   5.100   3.131  13.369 -0.0502 -0.2405  0.1243
  124POPC   GL1 1479   5.284   3.366  13.623 -0.2922 -0.2523 -0.1168
  124POPC   GL2 1480   5.268   3.605  13.597  0.4078  0.3317 -0.2310
  124POPC   C1A 1481   5.677   3.411  13.881 -0.0072 -0.2946  0.1514
  124POPC   D2A 1482   6.045   3.710  13.768 -0.1186  0.3209 -0.4236
  124POPC   C3A 1483   6.330   4.061  13.821  0.3754  0.0823 -0.4456
  124POPC   C4A 1484   6.440   4.359  14.134  0.0402  0.0113 -0.0291
  124POPC   C1B 1485   5.519   3.857  13.849  0.0920 -0.2019 -0.1101
  124POPC   C2B 1486   5.899   4.170  13.987  0.2362 -0.1840 -0.0149
  124POPC   C3B 1487   6.031   4.415  14.349 -0.0883  0.1954  0.0313
  124POPC   C4B 1488   6.283   4.251  14.696  0.2688  0.0346  0.2483
  125POPC   NC3 1489   2.179   2.619   8.796  0.3290  0.0272 -0.3014
  125POPC   PO4 1490   2.352   2.526   9.131 -0.2304 -0.0901  0.1020
  125POPC   GL1 1491   2.599   2.421   8.775  0.0426  0.0665 -0.1282
  125POPC   GL2 1492   2.645   2.120   8.745  0.0863 -0.0267 -0.3817
  125POPC   C1A 1493   2.750   2.739   8.489  0.0311  0.1158 -0.2347
  125POPC   D2A 1494   2.933   3.101   8.310  0.3066 -0.1095  0.0648
  125POPC   C3A 1495   3.215   3.023   8.045  0.4135 -0.2414  0.1387
  125POPC   C4A 1496   3.318   2.807   7.660  0.0512  0.2635  0.2258
  125POPC   C1B 1497   2.923   1.802   8.546 -0.0410  0.0649  0.3529
  125POPC   C2B 1498   3.262   1.788   8.303 -0.2983  0.0618  0.0135
  125POPC   C3B 1499   3.314   2.126   7.950 -0.0466 -0.0206  0.1789
  125POPC   C4B 1500   3.419   2.339   7.609  0.2439 -0.2695 -0.1947
  126POPC   NC3 1501  16.215  15.244   7.509 -0.0715  0.1664 -0.1595
  126POPC   PO4 1502  16.575  15.254   7.601  0.0251  0.0965  0.3034
  126POPC   GL1 1503  16.542  15.557   7.283  0.0964 -0.2373  0.4578
  126POPC   GL2 1504  16.549  15.773   7.486 -0.0527 -0.1002 -0.0132
  126POPC   C1A 1505  16.546  15.464   6.774 -0.1300 -0.0183 -0.4044
  126POPC   D2A 1506  16.408  15.387   6.333  0.0880  0.0244  0.0278
  126POPC   C3A 1507  16.526  14.969   6.238 -0.1349 -0.2949  0.0313
  126POPC   C4A 1508  16.547  14.586   6.097  0.0278 -0.3415  0.1340
  126POPC   C1B 1509  16.648  15.902   7.049  0.0244  0.3535 -0.0166
  126POPC   C2B 1510  16.681  16.169   6.740 -0.1962  0.1013  0.0508
  126POPC   C3B 1511  16.388  16.422   6.526  0.1087 -0.0948  0.1920
  126POPC   C4B 1512  15.982  16.292   6.389  0.1700  0.1708  0.2906
  127POPC   NC3 1513   4.204   7.380  10.250  0.1659  0.1553  0.1822
  127POPC   PO4 1514   4.105   7.463   9.915 -0.1644  0.0842  0.1244
  127POPC   GL1 1515   4.226   7.203   9.586 -0.1990 -0.0226 -0.1437
  127POPC   GL2 1516   4.352   7.340   9.352  0.2359 -0.0407 -0.0168
  127POPC   C1A 1517   3.952   7.110   9.233 -0.0061 -0.0651  0.0810
  127POPC   D2A 1518   3.601   7.010   8.937  0.1518 -0.4444  0.0970
  127POPC   C3A 1519   3.756   6.802   8.598  0.0808  0.1154 -0.0802
  127POPC   C4A 1520   4.125   6.727   8.273 -0.0493 -0.0749  0.1101
  127POPC   C1B 1521   4.449   7.361   8.896 -0.0301  0.1093  0.0678
  127POPC   C2B 1522   4.728   7.481   8.606  0.0360  0.0092  0.2545
  127POPC   C3B 1523   5.010   7.430   8.219  0.0207  0.2915 -0.0466
  127POPC   C4B 1524   5.199   7.477   7.813  0.1452  0.2254  0.0632
  128POPC   NC3 1525   1.958   1.645   9.087 -0.1755 -0.1075  0.2451
  128POPC   PO4 1526   2.330   1.578   8.992 -0.4279 -0.0840 -0.0078
  128POPC   GL1 1527   2.424   1.740   8.656  0.0207  0.1739 -0.3102
  128POPC   GL2 1528   2.119   1.762   8.513  0.3667  0.1554  0.1374
  128POPC   C1A 1529   2.548   1.723   8.201  0.1833 -0.1689 -0.1554
  128POPC   D2A 1530   2.904   1.881   7.986 -0.0105 -0.0367 -0.1601
  128POPC   C3A 1531   3.136   1.777   7.575  0.1914  0.0735  0.0745
  128POPC   C4A 1532   3.324   1.897   7.149 -0.0231  0.0511 -0.0513
  128POPC   C1B 1533   2.082   1.902   8.142  0.1203  0.2363  0.3989
  128POPC   C2B 1534   2.240   2.035   7.706 -0.2535 -0.1725 -0.0738
  128POPC   C3B 1535   2.285   2.208   7.293 -0.1386  0.1445 -0.0109
  128POPC   C4B 1536   2.146   2.381   6.905  0.3186 -0.0839 -0.4560
  129POPC   NC3 1537   0.661  32.042   8.112  0.4231 -0.0366 -0.0796
  129POPC   PO4 1538   0.544  32.422   7.976 -0.2717  0.1459  0.0544
  129POPC   GL1 1539   0.705  32.505   7.585 -0.0974  0.0295 -0.0691
  129POPC   GL2 1540   0.422  32.461   7.469  0.2733  0.2823 -0.0233
  129POPC   C1A 1541   0.829  32.681   7.129  0.2438  0.1292 -0.0072
  129POPC   D2A 1542   1.074  32.790   6.742  0.2689  0.0448 -0.1479
  129POPC   C3A 1543   1.320  33.165   6.547  0.2607  0.1545 -0.2634
  129POPC   C4A 1544   1.374  33.362   6.208 -0.1298 -0.2133 -0.0127
  129POPC   C1B 1545   0.503  32.247   7.124 -0.1396 -0.0409  0.0276
  129POPC   C2B 1546   0.456  32.197   6.670  0.0733  0.0394 -0.1200
  129POPC   C3B 1547   0.744  32.300   6.326 -0.0879 -0.0194  0.0816
  129POPC   C4B 1548   1.157  32.354   6.068  0.3604 -0.1466 -0.3136
  130POPC   NC3 1549   4.390   1.536   8.963  0.3556  0.0554 -0.2375
  130POPC   PO4 1550   4.225   1.897   9.068  0.0284 -0.1057 -0.4148
  130POPC   GL1 1551   4.167   1.900   8.702 -0.2077 -0.0393 -0.0838
  130POPC   GL2 1552   3.916   1.890   8.581 -0.0558 -0.0389 -0.2266
  130POPC   C1A 1553   4.340   1.999   8.284 -0.1163 -0.0800 -0.1208
  130POPC   D2A 1554   4.436   2.336   7.987  0.0744 -0.3211 -0.0654
  130POPC   C3A 1555   4.336   2.317   7.561  0.0531 -0.2092 -0.1206
  130POPC   C4A 1556   4.118   2.154   7.202 -0.4153 -0.0977 -0.1334
  130POPC   C1B 1557   3.789   2.081   8.147  0.0592 -0.1905  0.3742
  130POPC   C2B 1558   3.861   2.405   7.794  0.0795  0.0083 -0.1699
  130POPC   C3B 1559   3.925   2.613   7.446  0.1355 -0.0742 -0.0447
  130POPC   C4B 1560   3.950   2.691   6.985  0.1025 -0.2196  0.0349
  131POPC   NC3 1561   2.655  15.687   8.449 -0.0738  0.2311  0.1889
  131POPC   PO4 1562   2.664  15.232   8.443  0.2226 -0.2846  0.0598
  131POPC   GL1 1563   2.719  15.362   8.068 -0.5132  0.2796 -0.0849
  131POPC   GL2 1564   2.590  15.576   7.879  0.3891  0.1273  0.0441
  131POPC   C1A 1565   2.433  15.115   7.763 -0.0557  0.0906  0.0588
  131POPC   D2A 1566   2.317  15.040   7.334 -0.0108  0.0747  0.1808
  131POPC   C3A 1567   2.179  15.153   6.930  0.3021  0.3619  0.2321
  131POPC   C4A 1568   2.154  15.319   6.495 -0.2861 -0.1813 -0.1605
  131POPC   C1B 1569   2.616  15.485   7.463 -0.2161 -0.2801 -0.0384
  131POPC   C2B 1570   2.415  15.527   7.040  0.0137  0.1381  0.2871
  131POPC   C3B 1571   2.397  15.763   6.617 -0.2748  0.0934 -0.3321
  131POPC   C4B 1572   2.389  15.723   6.147 -0.3086  0.1925 -0.2512
  132POPC   NC3 1573  13.732   6.696  13.948  0.0002 -0.1906  0.0050
  132POPC   PO4 1574  14.003   6.414  14.012  0.0116  0.0915 -0.0927
  132POPC   GL1 1575  13.663   6.420  14.302 -0.3003  0.3007 -0.0876
  132POPC   GL2 1576  13.730   6.084  14.287 -0.0123 -0.2625 -0.1285
  132POPC   C1A 1577  13.221   6.333  14.264  0.0498  0.1069 -0.1507
  132POPC   D2A 1578  12.887   6.134  14.562 -0.2448 -0.3176  0.2482
  132POPC   C3A 1579  12.753   6.133  14.990  0.0860 -0.0945 -0.0635
  132POPC   C4A 1580  12.311   6.146  15.124  0.3402  0.1535  0.0191
  132POPC   C1B 1581  13.413   5.815  14.502  0.0704 -0.0750 -0.2560
  132POPC   C2B 1582  13.171   5.815  14.889  0.1218  0.3391  0.0696
  132POPC   C3B 1583  13.172   5.893  15.364 -0.2369 -0.0356 -0.1683
  132POPC   C4B 1584  12.967   5.601  15.714  0.1119  0.2434  0.3552
  133POPC   NC3 1585   1.904   6.127   9.821 -0.0479 -0.1441 -0.2802
  133POPC   PO4 1586   2.204   6.222   9.562 -0.0058  0.3271 -0.1835
  133POPC   GL1 1587   2.195   6.288   9.082 -0.2925  0.3129 -0.2008
  133POPC   GL2 1588   2.199   6.581   9.173 -0.0109 -0.1155  0.0356
  133POPC   C1A 1589   1.811   6.166   8.826  0.1602 -0.0164 -0.0236
  133POPC   D2A 1590   1.588   6.033   8.399 -0.0591 -0.0471  0.2207
  133POPC   C3A 1591   1.495   6.024   7.910  0.1030 -0.1532  0.3600
  133POPC   C4A 1592   1.330   5.854   7.519 -0.0069  0.0762  0.2108
  133POPC   C1B 1593   2.183   6.583   8.658  0.0395 -0.0846  0.3357
  133POPC   C2B 1594   2.114   6.713   8.256 -0.0493  0.0943  0.0795
  133POPC   C3B 1595   2.392   6.739   7.892 -0.1890  0.1419 -0.1039
  133POPC   C4B 1596   2.566   6.790   7.508 -0.2177 -0.0004 -0.0967
  134POPC   NC3 1597  12.149  11.652   9.825 -0.0448  0.0061 -0.1827
  134POPC   PO4 1598  12.189  11.292   9.964  0.1497 -0.1872 -0.1552
  134POPC   GL1 1599  12.277  11.010   9.757 -0.1874 -0.0756  0.2002
  134POPC   GL2 1600  12.320  10.780   9.943  0.0680  0.0752 -0.2278
  134POPC   C1A 1601  12.199  10.916   9.325 -0.0140 -0.5018  0.4559
  134POPC   D2A 1602  12.211  10.783   8.864  0.0943  0.0879  0.2346
  134POPC   C3A 1603  11.841  10.801   8.633 -0.0580 -0.2798 -0.0639
  134POPC   C4A 1604  11.638  10.862   8.278 -0.0523 -0.0592  0.1203
  134POPC   C1B 1605  12.340  10.359   9.830  0.0076 -0.0403 -0.0363
  134POPC   C2B 1606  12.402   9.996   9.628  0.1815 -0.2677 -0.1326
  134POPC   C3B 1607  12.494   9.858   9.182 -0.1633 -0.1121 -0.3070
  134POPC   C4B 1608  12.504   9.803   8.776 -0.0801 -0.2209  0.2589
  135POPC   NC3 1609   5.598   0.459   9.786  0.4500 -0.0572  0.1612
  135POPC   PO4 1610   5.638   0.783   9.558  0.0859  0.2301  0.0989
  135POPC   GL1 1611   5.813   0.561   9.290 -0.0518  0.0602  0.2893
  135POPC   GL2 1612   6.069   0.486   9.369 -0.0899 -0.1303  0.1251
  135POPC   C1A 1613   5.817   0.243   8.936  0.1326  0.0198  0.3306
  135POPC   D2A 1614   5.982   0.388   8.511 -0.0395  0.3422  0.0357
  135POPC   C3A 1615   6.293   0.658   8.361  0.2809 -0.3001 -0.1272
  135POPC   C4A 1616   6.423   0.704   7.909  0.0316  0.1812  0.1621
  135POPC   C1B 1617   6.109   0.724   8.961 -0.0030  0.0284  0.2681
  135POPC   C2B 1618   6.199   1.103   8.697 -0.1335  0.1581 -0.1415
  135POPC   C3B 1619   6.306   1.179   8.276 -0.0212 -0.1013 -0.1306
  135POPC   C4B 1620   6.275   1.377   7.880 -0.1938  0.1880  0.1325
  136POPC   NC3 1621  15.561   0.335   8.666 -0.0805 -0.1266  0.1342
  136POPC   PO4 1622  15.781   0.010   8.574  0.1112 -0.0760 -0.3523
  136POPC   GL1 1623  15.468  -0.160   8.270 -0.1259  0.4647  0.1973
  136POPC   GL2 1624  15.512   0.104   8.154  0.0890 -0.2263 -0.2638
  136POPC   C1A 1625  15.262  -0.278   7.905 -0.1246 -0.0423  0.3207
  136POPC   D2A 1626  15.378  -0.512   7.427  0.1455  0.1710 -0.2039
  136POPC   C3A 1627  15.233  -0.966   7.276 -0.3190 -0.1751 -0.0895
  136POPC   C4A 1628  14.864  -1.140   7.028  0.1649  0.2804 -0.0306
  136POPC   C1B 1629  15.706   0.370   7.851  0.1955 -0.2730 -0.1218
  136POPC   C2B 1630  15.727   0.866   7.749 -0.1398  0.3081  0.3432
  136POPC   C3B 1631  15.365   1.263   7.780  0.0116  0.2748 -0.0544
  136POPC   C4B 1632  15.280   1.623   7.506 -0.1458  0.1400  0.1528
  137POPC   NC3 1633   2.656   9.139   9.235 -0.0127  0.2336  0.0486
  137POPC   PO4 1634   2.579   8.768   9.254  0.2894  0.1722 -0.0490
  137POPC   GL1 1635   2.663   8.584   8.832 -0.3543 -0.0013 -0.1296
  137POPC   GL2 1636   2.959   8.663   8.784  0.0920  0.0732 -0.1657
  137POPC   C1A 1637   2.683   8.744   8.366  0.2401 -0.3625  0.1812
  137POPC   D2A 1638   2.734   9.115   8.059  0.2966  0.0642  0.0844
  137POPC   C3A 1639   2.957   8.935   7.706  0.1447  0.1141 -0.1516
  137POPC   C4A 1640   3.051   8.751   7.287 -0.3303 -0.1673 -0.0696
  137POPC   C1B 1641   3.134   8.331   8.538 -0.1304  0.2817 -0.1569
  137POPC   C2B 1642   3.035   8.193   8.124  0.1482  0.0803 -0.0003
  137POPC   C3B 1643   3.171   7.852   7.803  0.4165 -0.0582  0.0126
  137POPC   C4B 1644   3.328   7.687   7.413  0.3417  0.2664 -0.1797
  138POPC   NC3 1645  14.796  15.470   8.629  0.5417 -0.0652 -0.1636
  138POPC   PO4 1646  14.718  15.738   8.406  0.3128 -0.0977 -0.3163
  138POPC   GL1 1647  14.412  15.500   8.213  0.1628 -0.1212 -0.0987
  138POPC   GL2 1648  14.540  15.602   7.954 -0.1464  0.1911  0.1977
  138POPC   C1A 1649  14.042  15.546   7.921  0.1229  0.0958 -0.0785
  138POPC   D2A 1650  13.909  15.967   7.759 -0.2578  0.1014 -0.1190
  138POPC   C3A 1651  13.799  16.099   7.317  0.2828  0.0396 -0.2052
  138POPC   C4A 1652  13.683  15.974   6.876 -0.0996  0.1988 -0.1120
  138POPC   C1B 1653  14.388  15.783   7.584 -0.4267 -0.2345  0.3436
  138POPC   C2B 1654  14.214  15.788   7.139  0.2629  0.0491  0.0174
  138POPC   C3B 1655  14.176  15.525   6.718 -0.1304 -0.0864 -0.2468
  138POPC   C4B 1656  14.038  15.125   6.402  0.3536  0.1885 -0.2094
  139POPC   NC3 1657   2.701   6.237   9.616  0.3169 -0.1631 -0.2057
  139POPC   PO4 1658   2.571   6.621   9.473  0.1023  0.0396 -0.3172
  139POPC   GL1 1659   2.643   6.393   9.172  0.0438 -0.3575  0.1547
  139POPC   GL2 1660   2.679   6.113   9.141 -0.1492  0.0715 -0.0988
  139POPC   C1A 1661   2.640   6.398   8.686 -0.0473  0.1501  0.0277
  139POPC   D2A 1662   2.514   6.341   8.184 -0.0884  0.0592 -0.0547
  139POPC   C3A 1663   2.728   6.329   7.772 -0.0057  0.1920 -0.1604
  139POPC   C4A 1664   3.163   6.294   7.649  0.3633  0.0933  0.1692
  139POPC   C1B 1665   3.013   6.032   8.850  0.0818  0.0845 -0.1037
  139POPC   C2B 1666   3.329   6.010   8.494  0.1585  0.1851 -0.0396
  139POPC   C3B 1667   3.559   5.980   8.102  0.2025  0.0803 -0.0765
  139POPC   C4B 1668   3.603   5.947   7.670 -0.0828 -0.1150 -0.3324
  140POPC   NC3 1669  14.882   7.780  11.485 -0.1196 -0.2336  0.0459
  140POPC   PO4 1670  14.714   7.431  11.385  0.0036 -0.0632  0.3706
  140POPC   GL1 1671  14.582   7.609  11.025  0.1742  0.0098  0.0714
  140POPC   GL2 1672  14.443   7.835  11.205  0.0728  0.1030 -0.0411
  140POPC   C1A 1673  14.201   7.550  10.706 -0.0705  0.2580 -0.0632
  140POPC   D2A 1674  13.908   7.641  10.363 -0.2903 -0.1713  0.0723
  140POPC   C3A 1675  13.678   7.382  10.083 -0.0525 -0.0819  0.0542
  140POPC   C4A 1676  13.476   7.180   9.738 -0.0602  0.1337 -0.0528
  140POPC   C1B 1677  14.025   7.930  11.090 -0.1372 -0.0391 -0.1584
  140POPC   C2B 1678  13.691   7.743  10.885 -0.0174 -0.1128 -0.1778
  140POPC   C3B 1679  13.354   7.474  10.715 -0.0210  0.6052 -0.3201
  140POPC   C4B 1680  13.195   7.312  10.343 -0.0349 -0.2978  0.1514
  141POPC   NC3 1681   6.970   1.973  11.959  0.0306 -0.1883 -0.1348
  141POPC   PO4 1682   7.175   2.316  11.822 -0.0150  0.0891 -0.0712
  141POPC   GL1 1683   7.463   2.614  11.827 -0.0117 -0.0491 -0.1617
  141POPC   GL2 1684   7.731   2.446  11.935  0.1191 -0.0410  0.2337
  141POPC   C1A 1685   7.628   2.884  11.515 -0.1164 -0.3130 -0.0395
  141POPC   D2A 1686   7.981   3.025  11.481 -0.0221  0.2067  0.1710
  141POPC   C3A 1687   8.365   3.100  11.656 -0.0322 -0.0076 -0.2160
  141POPC   C4A 1688   8.753   3.317  11.434  0.2480  0.1453 -0.1444
  141POPC   C1B 1689   8.016   2.833  11.923 -0.2054 -0.1901 -0.0344
  141POPC   C2B 1690   8.113   3.205  12.139 -0.0289  0.0556 -0.1671
  141POPC   C3B 1691   8.248   3.627  12.260 -0.3157  0.0955  0.2239
  141POPC   C4B 1692   8.551   3.937  12.188 -0.1546 -0.2624  0.0235
  142POPC   NC3 1693   5.296   6.259  10.918 -0.1916 -0.2765  0.2463
  142POPC   PO4 1694   5.418   6.555  11.187  0.1295  0.0736 -0.0850
  142POPC   GL1 1695   5.777   6.507  10.983 -0.2918 -0.0515  0.2805
  142POPC   GL2 1696   5.669   6.708  10.729 -0.1497 -0.2252  0.2363
  142POPC   C1A 1697   6.286   6.622  11.019  0.0440 -0.0830  0.3066
  142POPC   D2A 1698   6.675   6.874  11.081  0.0462  0.2059  0.2984
  142POPC   C3A 1699   7.066   6.671  11.180  0.1340  0.2376 -0.0064
  142POPC   C4A 1700   7.393   6.491  11.447 -0.1341 -0.0371  0.3291
  142POPC   C1B 1701   6.051   6.886  10.665 -0.3061  0.3892  0.1259
  142POPC   C2B 1702   6.486   6.903  10.517 -0.1225  0.0242 -0.0110
  142POPC   C3B 1703   6.831   6.868  10.218 -0.1713 -0.1763 -0.0174
  142POPC   C4B 1704   7.214   6.923   9.941 -0.0222 -0.2458 -0.0658
  143POPC   NC3 1705   9.130   0.543  11.382  0.0640 -0.0599  0.1070
  143POPC   PO4 1706   9.294   0.850  11.239  0.0159  0.0750 -0.0107
  143POPC   GL1 1707   9.323   1.198  11.007  0.2267  0.4027  0.4181
  143POPC   GL2 1708   9.512   1.301  10.876 -0.1497  0.0578  0.2092
  143POPC   C1A 1709   9.352   1.644  11.149 -0.1658  0.1909  0.2823
  143POPC   D2A 1710   9.197   2.065  11.009 -0.1805 -0.1535  0.0119
  143POPC   C3A 1711   9.286   2.524  11.115 -0.0147 -0.1434  0.1127
  143POPC   C4A 1712   9.594   2.934  11.193  0.2119  0.1036  0.0276
  143POPC   C1B 1713   9.334   1.662  10.628 -0.1238  0.2023 -0.1198
  143POPC   C2B 1714   9.199   1.983  10.421 -0.1754 -0.0090 -0.2895
  143POPC   C3B 1715   9.090   2.327  10.043  0.0604  0.0096 -0.2681
  143POPC   C4B 1716   8.942   2.434   9.629  0.1355 -0.0986  0.2321
  144POPC   NC3 1717  10.401  11.510  10.145 -0.0767 -0.0532 -0.2094
  144POPC   PO4 1718  10.796  11.605  10.051  0.1660  0.0910 -0.0579
  144POPC   GL1 1719  10.864  11.293   9.920  0.1631  0.1950 -0.0627
  144POPC   GL2 1720  11.076  11.183  10.084 -0.1381 -0.0652  0.1393
  144POPC   C1A 1721  10.532  11.037   9.756 -0.1353 -0.1205 -0.0071
  144POPC   D2A 1722  10.267  10.739   9.488  0.2177  0.1552  0.0648
  144POPC   C3A 1723  10.487  10.458   9.220 -0.1417 -0.0176 -0.0488
  144POPC   C4A 1724  10.717  10.077   9.048 -0.1901  0.1744  0.2603
  144POPC   C1B 1725  10.895  10.766   9.968 -0.0110  0.0782 -0.0873
  144POPC   C2B 1726  10.871  10.479   9.574 -0.0889 -0.0146  0.2016
  144POPC   C3B 1727  11.140  10.105   9.391  0.0550  0.2639 -0.0870
  144POPC   C4B 1728  11.575  10.044   9.436 -0.1593  0.2333  0.0306
  145POPC   NC3 1729  16.385   2.062   8.779 -0.1415  0.3363 -0.0871
  145POPC   PO4 1730  16.242   1.716   8.831 -0.1203  0.0543  0.0923
  145POPC   GL1 1731  16.134   1.828   8.409 -0.1000 -0.1009  0.2275
  145POPC   GL2 1732  16.145   2.096   8.304  0.1491  0.2885  0.1192
  145POPC   C1A 1733  15.923   1.586   8.159  0.0429 -0.2825 -0.2192
  145POPC   D2A 1734  15.910   1.351   7.807 -0.1629  0.0561  0.1203
  145POPC   C3A 1735  16.107   1.290   7.378 -0.2402 -0.0571  0.0497
  145POPC   C4A 1736  16.184   1.361   6.909 -0.1683  0.0783  0.0893
  145POPC   C1B 1737  15.826   2.288   7.990  0.0838  0.1132 -0.1027
  145POPC   C2B 1738  15.659   2.684   7.828 -0.0594 -0.0991  0.0718
  145POPC   C3B 1739  15.443   2.955   7.555  0.0396 -0.1130 -0.0649
  145POPC   C4B 1740  15.318   3.258   7.298  0.0150  0.4016 -0.2173
  146POPC   NC3 1741   6.803  10.330  10.911 -0.1273  0.2166 -0.2928
  146POPC   PO4 1742   6.859  10.565  10.635  0.0582 -0.5274  0.1022
  146POPC   GL1 1743   7.242  10.458  10.495 -0.2417  0.4034 -0.0004
  146POPC   GL2 1744   7.393  10.300  10.637  0.1689 -0.0385 -0.0250
  146POPC   C1A 1745   7.390  10.374  10.082  0.0501  0.4463 -0.1119
  146POPC   D2A 1746   7.574  10.501   9.673 -0.0746  0.0760  0.1672
  146POPC   C3A 1747   7.520  10.258   9.270 -0.0425 -0.1248 -0.0720
  146POPC   C4A 1748   7.488  10.109   8.872 -0.1414  0.0500  0.0714
  146POPC   C1B 1749   7.602   9.971  10.448 -0.1672  0.5248  0.3140
  146POPC   C2B 1750   7.641   9.504  10.403 -0.4958  0.0487 -0.0926
  146POPC   C3B 1751   7.818   9.182  10.122  0.3367  0.1516 -0.0822
  146POPC   C4B 1752   7.915   9.319   9.743 -0.0025 -0.0858 -0.1554
  147POPC   NC3 1753   9.437  12.592   9.523  0.0332 -0.0032  0.1930
  147POPC   PO4 1754   9.574  12.866   9.296 -0.0259  0.1061  0.1978
  147POPC   GL1 1755   9.396  12.627   9.034 -0.0423 -0.1665  0.1894
  147POPC   GL2 1756   9.522  12.364   9.114  0.1366  0.3781  0.0199
  147POPC   C1A 1757   9.324  12.491   8.627 -0.0700 -0.0624 -0.0089
  147POPC   D2A 1758   9.196  12.382   8.183  0.0820 -0.1895  0.2952
  147POPC   C3A 1759   9.090  12.074   7.840 -0.0672 -0.1799  0.1441
  147POPC   C4A 1760   8.890  12.111   7.467  0.0589 -0.1427  0.2271
  147POPC   C1B 1761   9.632  12.063   8.794 -0.4295 -0.4207 -0.0288
  147POPC   C2B 1762   9.614  12.039   8.341 -0.3651 -0.0759 -0.0533
  147POPC   C3B 1763   9.579  12.219   7.886  0.3345  0.0038  0.2840
  147POPC   C4B 1764   9.535  12.627   7.724 -0.2654  0.1250  0.0375
  148POPC   NC3 1765   4.723  10.272   9.287 -0.0019 -0.0454  0.2187
  148POPC   PO4 1766   4.345  10.279   9.149 -0.1972  0.1454 -0.1646
  148POPC   GL1 1767   4.505  10.140   8.749 -0.1387  0.0489 -0.3310
  148POPC   GL2 1768   4.240   9.948   8.684 -0.1239  0.3404 -0.0552
  148POPC   C1A 1769   4.699   9.809   8.459  0.0919  0.2694  0.4552
  148POPC   D2A 1770   5.076   9.678   8.219  0.0054 -0.2952  0.1707
  148POPC   C3A 1771   5.205   9.268   8.280 -0.2891  0.1039 -0.0619
  148POPC   C4A 1772   5.113   8.832   8.326 -0.2009 -0.0003 -0.1684
  148POPC   C1B 1773   4.320   9.997   8.274  0.4161  0.2432  0.3223
  148POPC   C2B 1774   4.383  10.109   7.781 -0.2231  0.1933  0.0753
  148POPC   C3B 1775   4.268  10.525   7.667 -0.2307 -0.2597 -0.2138
  148POPC   C4B 1776   4.159  10.943   7.411  0.1961 -0.0765 -0.1121
  149POPC   NC3 1777   4.832   5.243  11.675  0.0418  0.0767 -0.0136
  149POPC   PO4 1778   5.053   5.542  11.667 -0.0044  0.0470 -0.1275
  149POPC   GL1 1779   5.487   5.736  11.732  0.3048 -0.1417 -0.1776
  149POPC   GL2 1780   5.515   5.494  11.963 -0.0094 -0.1340  0.0986
  149POPC   C1A 1781   5.825   6.021  11.891  0.0928  0.0105  0.2593
  149POPC   D2A 1782   6.234   6.120  12.006  0.0327  0.0733  0.0137
  149POPC   C3A 1783   6.631   6.115  11.803 -0.4534  0.1144 -0.1699
  149POPC   C4A 1784   6.988   6.126  11.452 -0.2468  0.1650 -0.0503
  149POPC   C1B 1785   5.870   5.550  11.636 -0.0292 -0.3116 -0.1122
  149POPC   C2B 1786   6.064   5.360  11.235 -0.1635  0.1560 -0.3392
  149POPC   C3B 1787   6.493   5.306  11.093 -0.1319  0.2850  0.1645
  149POPC   C4B 1788   6.956   5.293  11.018 -0.2664  0.2126  0.0747
  150POPC   NC3 1789  11.648  10.111  14.048 -0.1310  0.0323  0.0885
  150POPC   PO4 1790  11.859  10.030  13.717  0.0839  0.0621 -0.1778
  150POPC   GL1 1791  11.725   9.709  13.792 -0.1313  0.0636  0.3411
  150POPC   GL2 1792  11.837   9.600  14.051 -0.1950 -0.1019  0.0584
  150POPC   C1A 1793  11.554   9.407  13.551  0.0956  0.1021 -0.2151
  150POPC   D2A 1794  11.205   9.270  13.259  0.4105 -0.5125  0.1404
  150POPC   C3A 1795  10.901   8.920  13.406 -0.3271  0.0160  0.2155
  150POPC   C4A 1796  10.791   8.462  13.433  0.0427  0.0638  0.0394
  150POPC   C1B 1797  11.411   9.436  13.994 -0.0145  0.0371 -0.4102
  150POPC   C2B 1798  11.047   9.178  13.818  0.1901  0.1981 -0.1098
  150POPC   C3B 1799  10.772   8.772  13.858 -0.3280 -0.0030  0.4652
  150POPC   C4B 1800  10.741   8.314  13.892 -0.1525  0.0437 -0.0642
  151POPC   NC3 1801   4.403   5.119   9.932 -0.2783 -0.1633 -0.0898
  151POPC   PO4 1802   4.377   5.226  10.322 -0.0133 -0.1037 -0.0519
  151POPC   GL1 1803   4.614   5.587  10.116 -0.2331 -0.0961 -0.3847
  151POPC   GL2 1804   4.746   5.764  10.211  0.0232 -0.0330 -0.0792
  151POPC   C1A 1805   4.871   5.391   9.779  0.0575  0.0711  0.2513
  151POPC   D2A 1806   4.946   5.446   9.344  0.0776 -0.0460 -0.1155
  151POPC   C3A 1807   5.363   5.598   9.457  0.1061  0.0920 -0.2259
  151POPC   C4A 1808   5.759   5.536   9.341 -0.0952 -0.1331  0.2788
  151POPC   C1B 1809   5.099   5.802   9.857  0.2442  0.3089 -0.0089
  151POPC   C2B 1810   5.296   6.064   9.527  0.0942  0.3144  0.0891
  151POPC   C3B 1811   5.654   6.075   9.257  0.1126 -0.1221  0.0052
  151POPC   C4B 1812   5.956   5.810   8.938 -0.1643  0.3948 -0.1814
  152POPC   NC3 1813  12.034   0.401  14.312 -0.1244  0.0598 -0.2684
  152POPC   PO4 1814  12.308   0.555  14.533  0.3183  0.0254  0.1891
  152POPC   GL1 1815  12.188   0.770  14.919 -0.6132 -0.1885  0.0706
  152POPC   GL2 1816  12.445   0.974  14.872  0.1631  0.1827 -0.2341
  152POPC   C1A 1817  11.893   0.835  15.218 -0.1020 -0.0641 -0.0680
  152POPC   D2A 1818  11.841   0.672  15.649  0.0829 -0.1255 -0.0334
  152POPC   C3A 1819  11.659   0.964  15.957 -0.1152 -0.1850  0.0374
  152POPC   C4A 1820  11.594   1.198  16.339  0.2376  0.2884 -0.0759
  152POPC   C1B 1821  12.129   1.242  15.217 -0.0125 -0.1512 -0.1395
  152POPC   C2B 1822  11.950   1.582  15.415 -0.4012 -0.3347  0.1742
  152POPC   C3B 1823  11.775   1.990  15.418  0.1105  0.0489 -0.1482
  152POPC   C4B 1824  11.533   2.349  15.518  0.2420 -0.1853  0.2311
  153POPC   NC3 1825   5.318   1.250  15.063 -0.0806  0.4432 -0.1236
  153POPC   PO4 1826   5.477   0.999  14.876 -0.0115 -0.0783  0.1401
  153POPC   GL1 1827   5.681   1.039  15.275 -0.1523 -0.2373 -0.4735
  153POPC   GL2 1828   5.830   1.274  15.128  0.2200  0.0097  0.0625
  153POPC   C1A 1829   5.518   1.004  15.722 -0.0915 -0.1345 -0.1025
  153POPC   D2A 1830   5.232   1.206  16.015 -0.2978 -0.0632 -0.0618
  153POPC   C3A 1831   5.432   1.423  16.419 -0.0518  0.0547  0.0125
  153POPC   C4A 1832   5.811   1.589  16.542  0.2340  0.0220 -0.3329
  153POPC   C1B 1833   5.798   1.420  15.608 -0.1798  0.1503  0.0457
  153POPC   C2B 1834   5.860   1.682  16.005  0.2810  0.1309 -0.2895
  153POPC   C3B 1835   5.952   2.088  16.249 -0.3217  0.0907 -0.1138
  153POPC   C4B 1836   5.957   2.223  16.720  0.1716 -0.2822  0.1232
  154POPC   NC3 1837  15.718   2.706   8.897 -0.0096 -0.3346  0.2003
  154POPC   PO4 1838  16.008   2.430   8.913  0.1924 -0.2347 -0.0070
  154POPC   GL1 1839  15.972   2.461   8.610  0.1697  0.4933 -0.1322
  154POPC   GL2 1840  15.696   2.384   8.469  0.0475 -0.0735  0.1511
  154POPC   C1A 1841  15.983   2.721   8.234 -0.2495 -0.0105 -0.0526
  154POPC   D2A 1842  15.969   3.134   8.088 -0.3972  0.0583  0.0054
  154POPC   C3A 1843  15.693   3.490   8.084  0.0391 -0.0911  0.0150
  154POPC   C4A 1844  15.688   3.927   7.851  0.4430 -0.0103  0.2272
  154POPC   C1B 1845  15.475   2.787   8.298 -0.2107  0.1711  0.0304
  154POPC   C2B 1846  15.359   3.116   8.017 -0.1277 -0.0765 -0.0010
  154POPC   C3B 1847  15.291   3.513   7.737 -0.0774 -0.0542  0.2020
  154POPC   C4B 1848  15.483   3.695   7.348  0.2663 -0.5395  0.0786
  155POPC   NC3 1849   4.854   3.201   9.980  0.1240 -0.0816  0.0013
  155POPC   PO4 1850   5.234   3.353   9.978 -0.0803  0.1845 -0.0249
  155POPC   GL1 1851   5.517   3.500  10.138 -0.2621  0.1046  0.2655
  155POPC   GL2 1852   5.565   3.666   9.873  0.0246 -0.1845 -0.2378
  155POPC   C1A 1853   5.976   3.449  10.073 -0.1866 -0.1385  0.0554
  155POPC   D2A 1854   6.350   3.645   9.888  0.0364  0.4220 -0.1980
  155POPC   C3A 1855   6.490   3.971   9.613 -0.4345  0.0779 -0.0138
  155POPC   C4A 1856   6.567   4.120   9.211 -0.3256 -0.2001 -0.0507
  155POPC   C1B 1857   5.903   3.639   9.579 -0.1498 -0.0185  0.0159
  155POPC   C2B 1858   5.939   3.602   9.146  0.0636  0.0579  0.0186
  155POPC   C3B 1859   6.071   3.780   8.751  0.0177 -0.1924 -0.0027
  155POPC   C4B 1860   6.150   4.100   8.419  0.0805 -0.0249 -0.1397
  156POPC   NC3 1861   8.078  12.653   9.324 -0.2183  0.0910 -0.0418
  156POPC   PO4 1862   7.685  12.588   9.265 -0.1345  0.0299  0.1181
  156POPC   GL1 1863   7.701  12.737   8.841 -0.1354  0.1780 -0.0835
  156POPC   GL2 1864   7.493  12.778   8.638  0.0122 -0.0871 -0.0038
  156POPC   C1A 1865   7.919  12.557   8.422  0.2276  0.2105  0.1068
  156POPC   D2A 1866   7.646  12.282   8.241 -0.3148  0.2092 -0.1280
  156POPC   C3A 1867   7.870  12.076   7.844 -0.1045  0.0879  0.2394
  156POPC   C4A 1868   8.004  11.857   7.473  0.1746 -0.0230  0.2139
  156POPC   C1B 1869   7.523  12.764   8.168  0.0872 -0.2858  0.0078
  156POPC   C2B 1870   7.853  12.617   7.845 -0.1886  0.0146  0.2006
  156POPC   C3B 1871   8.043  12.491   7.448 -0.3563 -0.0842 -0.2037
  156POPC   C4B 1872   8.363  12.155   7.387  0.0766  0.1087 -0.0153
  157POPC   NC3 1873  10.222   1.256  13.389 -0.0755  0.0143  0.0496
  157POPC   PO4 1874  10.090   1.060  13.105  0.1062 -0.3020 -0.0706
  157POPC   GL1 1875  10.104   1.340  12.900 -0.3779 -0.2392  0.3016
  157POPC   GL2 1876  10.020   1.419  12.621 -0.0794 -0.2499  0.1659
  157POPC   C1A 1877  10.108   1.833  13.002 -0.0873  0.2387 -0.0831
  157POPC   D2A 1878   9.912   2.230  12.851 -0.2927 -0.3609 -0.1631
  157POPC   C3A 1879  10.049   2.659  12.973 -0.1197 -0.3500 -0.1142
  157POPC   C4A 1880   9.888   3.075  12.951 -0.2183 -0.3096  0.0477
  157POPC   C1B 1881   9.727   1.726  12.741 -0.0000 -0.0406 -0.0081
  157POPC   C2B 1882   9.455   2.032  12.966 -0.0922 -0.3645 -0.3617
  157POPC   C3B 1883   9.189   2.305  13.211  0.0528 -0.0447 -0.2900
  157POPC   C4B 1884   9.077   2.372  13.666  0.3595  0.1530 -0.1950
  158POPC   NC3 1885   3.734  15.894   8.548  0.3052 -0.0128 -0.0723
  158POPC   PO4 1886   3.444  15.635   8.579  0.1174 -0.1133 -0.0364
  158POPC   GL1 1887   3.523  15.586   8.127 -0.0376  0.0223  0.1199
  158POPC   GL2 1888   3.405  15.373   7.982  0.1233 -0.1719 -0.3838
  158POPC   C1A 1889   3.461  15.865   7.729  0.1443  0.1930 -0.1070
  158POPC   D2A 1890   3.369  15.925   7.281 -0.1043 -0.1543 -0.2556
  158POPC   C3A 1891   3.740  15.996   7.013  0.2274  0.0501 -0.3693
  158POPC   C4A 1892   4.048  16.043   6.706 -0.2098  0.0639 -0.2774
  158POPC   C1B 1893   3.485  15.327   7.534  0.0060  0.1227 -0.0198
  158POPC   C2B 1894   3.513  15.415   7.071 -0.0990  0.1333  0.0182
  158POPC   C3B 1895   3.737  15.398   6.652  0.2899 -0.0488  0.1915
  158POPC   C4B 1896   3.846  15.679   6.336 -0.1057  0.0366  0.1337
  159POPC   NC3 1897  11.894   1.057  11.357  0.1954 -0.1986 -0.0688
  159POPC   PO4 1898  11.671   0.982  11.653 -0.0044  0.2111  0.0926
  159POPC   GL1 1899  11.423   1.363  11.556 -0.1389 -0.3791  0.0932
  159POPC   GL2 1900  11.515   1.457  11.254  0.2889  0.0494 -0.3559
  159POPC   C1A 1901  11.012   1.620  11.724  0.3055 -0.0644  0.1335
  159POPC   D2A 1902  10.641   1.719  11.368 -0.0348  0.1096  0.2287
  159POPC   C3A 1903  10.680   2.043  11.091  0.1748  0.2225 -0.2393
  159POPC   C4A 1904  10.699   2.314  10.743  0.1581  0.2185  0.3342
  159POPC   C1B 1905  11.235   1.842  11.203  0.1217 -0.2063 -0.0430
  159POPC   C2B 1906  11.154   2.288  11.040 -0.1024  0.1341  0.1027
  159POPC   C3B 1907  10.970   2.706  10.901  0.4616 -0.1816  0.0274
  159POPC   C4B 1908  10.705   3.088  10.865 -0.0808  0.1851  0.1346
  160POPC   NC3 1909   1.290  15.567   8.213  0.2472  0.4353  0.1174
  160POPC   PO4 1910   1.290  15.190   8.378 -0.0138  0.0347 -0.0455
  160POPC   GL1 1911   1.431  15.168   8.003  0.2422 -0.0961  0.1939
  160POPC   GL2 1912   1.684  15.235   8.053 -0.0260 -0.1209 -0.4329
  160POPC   C1A 1913   1.353  15.241   7.561 -0.2596 -0.0035 -0.0296
  160POPC   D2A 1914   1.120  15.278   7.193  0.1093  0.2294 -0.2560
  160POPC   C3A 1915   1.295  15.152   6.799  0.0490 -0.0382 -0.2245
  160POPC   C4A 1916   1.650  15.186   6.506 -0.0282  0.1062 -0.3731
  160POPC   C1B 1917   1.853  15.129   7.655 -0.2891 -0.0500 -0.0289
  160POPC   C2B 1918   2.061  15.438   7.373  0.0560  0.0848 -0.0905
  160POPC   C3B 1919   1.931  15.661   6.959 -0.2230  0.0220  0.0529
  160POPC   C4B 1920   1.933  15.752   6.480  0.0194  0.2686 -0.0300
  161POPC   NC3 1921   9.877  16.686   9.972 -0.0591  0.1339 -0.2272
  161POPC   PO4 1922   9.730  16.636   9.604  0.1113 -0.1049  0.1053
  161POPC   GL1 1923   9.394  16.599   9.334  0.2367  0.0802  0.0212
  161POPC   GL2 1924   9.303  16.439   9.117 -0.0532  0.1095  0.0340
  161POPC   C1A 1925   9.247  16.909   9.027 -0.1427 -0.1212 -0.0027
  161POPC   D2A 1926   9.146  17.013   8.627 -0.3001 -0.0048 -0.1244
  161POPC   C3A 1927   8.850  17.140   8.381  0.1525 -0.0152  0.3407
  161POPC   C4A 1928   8.743  17.009   7.922  0.0847 -0.2202 -0.0613
  161POPC   C1B 1929   9.416  16.531   8.651  0.3559 -0.2317  0.2222
  161POPC   C2B 1930   9.435  16.861   8.301 -0.3032 -0.2151 -0.2070
  161POPC   C3B 1931   9.290  17.217   8.047  0.0248  0.3797 -0.2069
  161POPC   C4B 1932   9.324  17.256   7.611 -0.0785 -0.0021 -0.4221
  162POPC   NC3 1933   2.113   4.042   8.857  0.1337 -0.1923 -0.3088
  162POPC   PO4 1934   2.472   3.921   8.911  0.1790 -0.3738  0.1841
  162POPC   GL1 1935   2.372   4.033   8.433 -0.2500  0.1290  0.2152
  162POPC   GL2 1936   2.500   4.297   8.476 -0.1649 -0.0012 -0.1321
  162POPC   C1A 1937   2.409   3.770   8.064  0.1436  0.0708 -0.0459
  162POPC   D2A 1938   2.310   3.674   7.663 -0.2233  0.0187 -0.0559
  162POPC   C3A 1939   2.657   3.602   7.405  0.0435  0.1614 -0.2497
  162POPC   C4A 1940   2.877   3.772   7.012  0.1615 -0.1125 -0.1631
  162POPC   C1B 1941   2.385   4.310   8.022  0.3273  0.1169  0.0554
  162POPC   C2B 1942   2.393   4.163   7.634 -0.0807  0.1859 -0.0225
  162POPC   C3B 1943   2.591   4.317   7.197  0.4150 -0.4726 -0.0873
  162POPC   C4B 1944   2.650   4.128   6.771  0.1934 -0.1531 -0.2021
  163POPC   NC3 1945   3.394   1.554  15.751  0.0363  0.4422  0.3278
  163POPC   PO4 1946   3.765   1.690  15.579 -0.1607  0.2062 -0.0253
  163POPC   GL1 1947   4.172   1.795  15.731 -0.1218 -0.0262 -0.1571
  163POPC   GL2 1948   4.124   1.658  16.003  0.1885 -0.1320 -0.2524
  163POPC   C1A 1949   4.596   1.913  15.934  0.2924  0.2179 -0.0721
  163POPC   D2A 1950   4.954   2.166  16.026 -0.1626 -0.3283 -0.2382
  163POPC   C3A 1951   5.000   2.127  16.521 -0.1842 -0.0844  0.0356
  163POPC   C4A 1952   5.065   2.085  16.990  0.0632  0.1613 -0.0615
  163POPC   C1B 1953   3.885   1.644  16.456 -0.0033  0.3948 -0.0546
  163POPC   C2B 1954   3.987   1.771  16.876  0.3074 -0.1549 -0.3414
  163POPC   C3B 1955   3.890   1.892  17.316 -0.0931 -0.0339 -0.0421
  163POPC   C4B 1956   3.634   2.286  17.368 -0.4495  0.0144  0.0197
  164POPC   NC3 1957   0.151   2.919  15.965  0.0269  0.2076  0.1593
  164POPC   PO4 1958   0.443   3.204  15.889 -0.0558  0.3286  0.3442
  164POPC   GL1 1959   0.574   3.019  16.218 -0.0239 -0.1442 -0.1027
  164POPC   GL2 1960   0.350   3.136  16.412  0.0117  0.0591  0.0135
  164POPC   C1A 1961   0.840   3.091  16.577  0.0779 -0.0959  0.1783
  164POPC   D2A 1962   0.749   3.074  17.049 -0.2988  0.1313 -0.0843
  164POPC   C3A 1963   0.935   3.399  17.324  0.0416  0.0888 -0.3050
  164POPC   C4A 1964   1.232   3.751  17.484  0.3630 -0.3629  0.0847
  164POPC   C1B 1965   0.326   3.240  16.858 -0.0389 -0.0975 -0.0256
  164POPC   C2B 1966   0.435   3.277  17.285 -0.2214 -0.3240 -0.1814
  164POPC   C3B 1967   0.675   3.020  17.642  0.3076  0.0881 -0.0361
  164POPC   C4B 1968   0.932   2.805  17.925  0.0092  0.0364  0.1690
  165POPC   NC3 1969   0.783   2.334   9.021 -0.0182 -0.1126  0.1146
  165POPC   PO4 1970   0.523   2.554   9.168  0.0338  0.0610 -0.3065
  165POPC   GL1 1971   0.586   2.737   8.797  0.0007 -0.2017 -0.1766
  165POPC   GL2 1972   0.338   2.833   8.707 -0.2713 -0.2012 -0.0116
  165POPC   C1A 1973   0.744   2.719   8.390  0.2973 -0.0568 -0.1797
  165POPC   D2A 1974   0.602   2.769   7.950  0.3156 -0.2843 -0.0141
  165POPC   C3A 1975   0.363   2.743   7.586  0.0743  0.2035  0.2480
  165POPC   C4A 1976   0.261   2.570   7.217 -0.0245 -0.0042 -0.1292
  165POPC   C1B 1977   0.240   2.612   8.325  0.2242 -0.1450 -0.2197
  165POPC   C2B 1978   0.058   2.729   7.938  0.1426  0.2719  0.0668
  165POPC   C3B 1979  -0.172   3.013   7.609 -0.2016  0.0592 -0.2276
  165POPC   C4B 1980  -0.085   3.065   7.143 -0.2043  0.3292 -0.2600
  166POPC   NC3 1981   7.077  14.193   8.193  0.2907 -0.0762  0.0059
  166POPC   PO4 1982   6.811  14.026   8.467  0.2458  0.3470  0.2935
  166POPC   GL1 1983   6.792  13.845   8.188 -0.1441 -0.1260  0.4737
  166POPC   GL2 1984   7.090  13.688   8.185 -0.0161  0.2029 -0.2207
  166POPC   C1A 1985   6.663  13.971   7.743 -0.2625  0.0408 -0.3133
  166POPC   D2A 1986   6.613  14.167   7.329 -0.1907 -0.0301 -0.1146
  166POPC   C3A 1987   6.354  13.902   7.117  0.1564 -0.1227 -0.0603
  166POPC   C4A 1988   6.145  14.049   6.745  0.1006  0.1763  0.3720
  166POPC   C1B 1989   7.200  13.867   7.745 -0.1815  0.1394  0.0794
  166POPC   C2B 1990   7.216  13.869   7.224  0.0641  0.3572  0.0233
  166POPC   C3B 1991   7.059  13.665   6.894 -0.1556 -0.2816 -0.0422
  166POPC   C4B 1992   6.767  13.384   6.730  0.1180 -0.1274  0.2661
  167POPC   NC3 1993  11.617  15.432   8.292 -0.0645  0.1585  0.0360
  167POPC   PO4 1994  11.538  15.163   8.578  0.1511 -0.0853 -0.0639
  167POPC   GL1 1995  11.628  14.896   8.227  0.2256 -0.3506 -0.0704
  167POPC   GL2 1996  11.360  14.787   8.134  0.2252 -0.1252 -0.0880
  167POPC   C1A 1997  11.664  14.780   7.766  0.0757 -0.0938  0.0543
  167POPC   D2A 1998  11.608  14.625   7.324  0.2226 -0.2376  0.1905
  167POPC   C3A 1999  12.019  14.768   7.035 -0.1387  0.4020 -0.0690
  167POPC   C4A 2000  12.374  14.817   6.792  0.0663 -0.0279  0.3114
  167POPC   C1B 2001  11.164  14.833   7.640 -0.2222 -0.1067  0.1569
  167POPC   C2B 2002  10.744  14.981   7.419 -0.1817  0.1485 -0.1118
  167POPC   C3B 2003  10.414  14.935   7.072 -0.2121  0.0055  0.0443
  167POPC   C4B 2004  10.369  14.744   6.711  0.1655 -0.0886  0.1328
  168POPC   NC3 2005   4.899   7.666  10.242 -0.2980  0.1096 -0.1252
  168POPC   PO4 2006   4.538   7.746  10.060  0.0040  0.1732  0.6344
  168POPC   GL1 2007   4.508   7.662   9.686  0.2730  0.0911  0.2715
  168POPC   GL2 2008   4.291   7.834   9.573 -0.0453  0.1000  0.0864
  168POPC   C1A 2009   4.823   7.410   9.426  0.0766 -0.1652 -0.2018
  168POPC   D2A 2010   5.215   7.179   9.424 -0.2405  0.2681 -0.0722
  168POPC   C3A 2011   5.410   6.943   9.088 -0.4978  0.0901  0.1836
  168POPC   C4A 2012   5.739   6.602   9.100  0.1532  0.3432  0.0364
  168POPC   C1B 2013   4.652   8.073   9.403  0.0369  0.1791  0.0563
  168POPC   C2B 2014   5.065   8.131   9.175  0.0275  0.2637  0.1955
  168POPC   C3B 2015   5.378   8.073   8.839  0.1530  0.1716  0.0172
  168POPC   C4B 2016   5.769   7.783   8.941 -0.1080  0.3575 -0.2417
  169POPC   NC3 2017  15.452   9.108   9.642  0.3181  0.0121 -0.3766
  169POPC   PO4 2018  15.446   9.524   9.573 -0.0529  0.4416  0.2603
  169POPC   GL1 2019  15.484   9.851   9.287  0.0191  0.1891  0.2634
  169POPC   GL2 2020  15.177   9.800   9.273  0.1106 -0.1145  0.1320
  169POPC   C1A 2021  15.420   9.871   8.751 -0.1562  0.0639 -0.0359
  169POPC   D2A 2022  15.534   9.976   8.285  0.0186  0.1086 -0.0076
  169POPC   C3A 2023  15.657  10.287   7.961 -0.0381  0.1409 -0.0300
  169POPC   C4A 2024  15.570  10.712   7.663 -0.2561  0.0459 -0.0537
  169POPC   C1B 2025  14.999   9.520   8.939 -0.1950  0.0581  0.0768
  169POPC   C2B 2026  14.759   9.200   8.799  0.0243 -0.0555  0.0327
  169POPC   C3B 2027  14.446   9.045   8.507 -0.0378  0.3603  0.1414
  169POPC   C4B 2028  14.111   8.747   8.385 -0.1438 -0.1005 -0.1028
  170POPC   NC3 2029  32.770  12.886   8.443  0.1298 -0.3888  0.3172
  170POPC   PO4 2030  33.140  12.790   8.450 -0.3294  0.1132  0.3380
  170POPC   GL1 2031  33.169  12.757   8.034  0.0862 -0.1414  0.0776
  170POPC   GL2 2032  33.013  12.509   7.956  0.1163  0.2233 -0.4057
  170POPC   C1A 2033  33.222  12.753   7.581 -0.1064  0.2115  0.0097
  170POPC   D2A 2034  33.283  12.581   7.168  0.3293  0.2721 -0.4011
  170POPC   C3A 2035  33.323  12.589   6.675  0.0475 -0.0569 -0.1689
  170POPC   C4A 2036  33.468  12.542   6.272 -0.1648 -0.0887  0.4231
  170POPC   C1B 2037  32.825  12.391   7.517 -0.0301 -0.2615  0.0092
  170POPC   C2B 2038  32.936  12.242   7.108 -0.1613  0.0932  0.0800
  170POPC   C3B 2039  33.137  12.077   6.681  0.0014 -0.0941  0.1758
  170POPC   C4B 2040  33.056  12.093   6.240 -0.2992 -0.2578 -0.0258
  171POPC   NC3 2041   9.342   0.928  10.432 -0.0543  0.4524 -0.0509
  171POPC   PO4 2042   9.165   0.546  10.339  0.0245 -0.0694  0.3847
  171POPC   GL1 2043   9.260   0.771   9.996  0.0942 -0.1477 -0.1002
  171POPC   GL2 2044   9.435   0.932   9.880  0.0856 -0.3573 -0.1518
  171POPC   C1A 2045   8.951   1.003   9.675  0.2788  0.0169 -0.0266
  171POPC   D2A 2046   8.840   1.385   9.447  0.4588 -0.3429 -0.0327
  171POPC   C3A 2047   9.004   1.477   9.019 -0.0689 -0.1685 -0.1649
  171POPC   C4A 2048   8.963   1.714   8.634 -0.0123  0.0285  0.2182
  171POPC   C1B 2049   9.375   1.353   9.761  0.1885 -0.1424  0.0849
  171POPC   C2B 2050   9.348   1.699   9.489 -0.0294 -0.1815 -0.1079
  171POPC   C3B 2051   9.363   2.144   9.379 -0.0290  0.2293  0.0495
  171POPC   C4B 2052   9.144   2.312   9.008 -0.0492 -0.1139  0.0447
  172POPC   NC3 2053  14.442   0.489   8.802 -0.0593 -0.2437 -0.0555
  172POPC   PO4 2054  14.642   0.123   8.754 -0.0452  0.2266 -0.2017
  172POPC   GL1 2055  14.724   0.235   8.382  0.0486  0.0053 -0.0398
  172POPC   GL2 2056  14.687   0.021   8.175 -0.1920 -0.0930  0.3227
  172POPC   C1A 2057  14.724   0.531   7.999 -0.0540 -0.2276  0.2934
  172POPC   D2A 2058  14.909   0.634   7.564 -0.1027  0.0589 -0.1442
  172POPC   C3A 2059  14.982   0.449   7.158  0.2538  0.0084 -0.1352
  172POPC   C4A 2060  15.238   0.329   6.764 -0.0677 -0.0155 -0.0262
  172POPC   C1B 2061  14.913   0.068   7.817 -0.1220  0.0464  0.0094
  172POPC   C2B 2062  15.054  -0.063   7.393 -0.1409  0.0750  0.1125
  172POPC   C3B 2063  15.044  -0.168   6.940  0.0783 -0.0924  0.0887
  172POPC   C4B 2064  15.081  -0.153   6.463 -0.0257 -0.1824 -0.4128
  173POPC   NC3 2065   3.702   3.662  14.250  0.4051  0.0049  0.1412
  173POPC   PO4 2066   3.734   3.410  14.571 -0.1210 -0.2058  0.0482
  173POPC   GL1 2067   4.073   3.489  14.903  0.1600 -0.0130  0.0887
  173POPC   GL2 2068   4.113   3.196  14.830  0.3251  0.1418 -0.0448
  173POPC   C1A 2069   4.509   3.499  14.790 -0.4572  0.1082 -0.1266
  173POPC   D2A 2070   4.871   3.273  14.709  0.1901  0.1702  0.2146
  173POPC   C3A 2071   5.184   3.584  14.742 -0.0330 -0.1844 -0.2743
  173POPC   C4A 2072   5.471   3.897  14.966 -0.1421 -0.0410 -0.0389
  173POPC   C1B 2073   4.045   3.294  15.277 -0.1993  0.2571 -0.2506
  173POPC   C2B 2074   4.275   3.178  15.646 -0.2653  0.0177 -0.0941
  173POPC   C3B 2075   4.688   3.215  15.839 -0.1280  0.1081 -0.2674
  173POPC   C4B 2076   5.042   3.108  16.058 -0.3390 -0.1690 -0.2390
  174POPC   NC3 2077   1.394   7.266   9.188 -0.2070  0.0297  0.0238
  174POPC   PO4 2078   1.079   7.022   9.245 -0.0744  0.1811  0.0633
  174POPC   GL1 2079   1.024   7.014   8.888  0.0419  0.1255  0.2664
  174POPC   GL2 2080   0.895   6.720   8.892 -0.0136 -0.2186 -0.0655
  174POPC   C1A 2081   1.328   7.222   8.608 -0.0649 -0.0700 -0.2447
  174POPC   D2A 2082   1.340   7.384   8.218  0.1464 -0.1268 -0.1995
  174POPC   C3A 2083   1.501   7.360   7.776 -0.0594 -0.0448 -0.0561
  174POPC   C4A 2084   1.530   7.330   7.285  0.1626  0.3559  0.2439
  174POPC   C1B 2085   0.671   6.454   8.553  0.0134  0.0385 -0.2741
  174POPC   C2B 2086   0.417   6.437   8.164  0.0789 -0.0844 -0.2219
  174POPC   C3B 2087   0.291   6.630   7.806  0.2356  0.0971 -0.4537
  174POPC   C4B 2088   0.469   7.034   7.584  0.0510 -0.0800  0.0014
  175POPC   NC3 2089  15.311  12.766   8.849 -0.0082 -0.1234 -0.3178
  175POPC   PO4 2090  15.004  12.835   8.619  0.1705  0.0808 -0.1456
  175POPC   GL1 2091  15.084  12.789   8.274  0.5534  0.0704  0.1611
  175POPC   GL2 2092  15.335  12.593   8.277 -0.0126 -0.1471  0.1625
  175POPC   C1A 2093  14.786  12.761   7.926  0.0584  0.4878 -0.0899
  175POPC   D2A 2094  14.459  12.944   7.764  0.0842 -0.2649 -0.2032
  175POPC   C3A 2095  14.315  12.833   7.326  0.0399 -0.1016  0.1305
  175POPC   C4A 2096  14.329  12.667   6.853 -0.2468  0.1164  0.1248
  175POPC   C1B 2097  15.220  12.491   7.854 -0.0028  0.1091 -0.0376
  175POPC   C2B 2098  15.339  12.246   7.494 -0.0045  0.0626 -0.0552
  175POPC   C3B 2099  15.193  12.205   7.052  0.1899 -0.1411 -0.1764
  175POPC   C4B 2100  14.922  12.362   6.756  0.0673  0.5251 -0.1154
  176POPC   NC3 2101  13.692  14.699   8.608  0.2736 -0.0174 -0.2961
  176POPC   PO4 2102  13.525  14.359   8.545  0.2673 -0.1243 -0.1154
  176POPC   GL1 2103  13.512  14.455   8.189 -0.0507  0.1431  0.1148
  176POPC   GL2 2104  13.197  14.502   8.214 -0.1267  0.0583  0.0300
  176POPC   C1A 2105  13.506  14.612   7.752 -0.0802  0.3093  0.4288
  176POPC   D2A 2106  13.739  14.464   7.428  0.0094  0.1522  0.0739
  176POPC   C3A 2107  13.968  14.498   7.039  0.0166 -0.1119 -0.2653
  176POPC   C4A 2108  14.244  14.188   6.768 -0.0807  0.1159 -0.0329
  176POPC   C1B 2109  13.015  14.451   7.877  0.0066 -0.0397 -0.1227
  176POPC   C2B 2110  13.143  14.508   7.434  0.0249  0.1002  0.1326
  176POPC   C3B 2111  13.391  14.606   7.034 -0.1478  0.0187 -0.1969
  176POPC   C4B 2112  13.737  14.844   6.753  0.1616  0.2319  0.2083
  177POPC   NC3 2113  10.202   0.821  10.729 -0.0974 -0.0543  0.4769
  177POPC   PO4 2114   9.905   1.060  10.667 -0.4574  0.2676 -0.0360
  177POPC   GL1 2115   9.812   1.369  10.463 -0.0042 -0.2472  0.0120
  177POPC   GL2 2116   9.633   1.313  10.165 -0.0282 -0.1844 -0.3085
  177POPC   C1A 2117   9.761   1.829  10.315  0.1748 -0.3117 -0.3317
  177POPC   D2A 2118   9.625   2.179  10.069  0.1688 -0.0140  0.0829
  177POPC   C3A 2119   9.494   2.531  10.224 -0.1921  0.1762 -0.4645
  177POPC   C4A 2120   9.184   2.918  10.320 -0.0699 -0.0670  0.2108
  177POPC   C1B 2121   9.843   1.533   9.922  0.3255 -0.0851  0.0315
  177POPC   C2B 2122   9.966   1.984   9.684  0.2813 -0.0053 -0.2153
  177POPC   C3B 2123   9.887   2.256   9.341 -0.0426  0.1136 -0.0791
  177POPC   C4B 2124   9.611   2.442   9.012  0.2311 -0.0037 -0.0933
  178POPC   NC3 2125  10.908  14.542   9.313  0.1401 -0.0853  0.3018
  178POPC   PO4 2126  10.595  14.353   9.354  0.3007  0.0457  0.1019
  178POPC   GL1 2127  10.652  14.275   9.002 -0.1159  0.0686 -0.3149
  178POPC   GL2 2128  10.637  14.523   8.794 -0.3373 -0.0866  0.1142
  178POPC   C1A 2129  10.340  14.091   8.683 -0.3572 -0.2639  0.1928
  178POPC   D2A 2130  10.147  13.818   8.405  0.0878 -0.2487  0.0396
  178POPC   C3A 2131  10.009  13.461   8.137 -0.1281 -0.2722  0.1057
  178POPC   C4A 2132   9.713  13.082   7.986  0.0725  0.1969 -0.0994
  178POPC   C1B 2133  10.668  14.286   8.380  0.0444  0.0617  0.0003
  178POPC   C2B 2134  10.597  13.944   8.156  0.0213  0.3079  0.1994
  178POPC   C3B 2135  10.316  13.791   7.777 -0.2316  0.0253 -0.2747
  178POPC   C4B 2136  10.330  13.406   7.479  0.2732 -0.0345  0.0300
  179POPC   NC3 2137  16.446  32.681   8.145  0.2849  0.0087 -0.0274
  179POPC   PO4 2138  16.346  32.341   8.315  0.4815 -0.0737  0.0195
  179POPC   GL1 2139  16.257  32.348   7.937  0.2972  0.0071  0.0793
  179POPC   GL2 2140  16.458  32.197   7.811  0.0137  0.1285 -0.1126
  179POPC   C1A 2141  16.029  32.561   7.591 -0.3964  0.1066  0.3271
  179POPC   D2A 2142  15.653  32.786   7.501 -0.0611  0.0787  0.2457
  179POPC   C3A 2143  15.469  32.762   7.099 -0.0357  0.0960  0.1739
  179POPC   C4A 2144  15.641  32.851   6.702 -0.0341  0.0193  0.0453
  179POPC   C1B 2145  16.212  32.044   7.435 -0.3268  0.0488  0.1676
  179POPC   C2B 2146  15.791  32.178   7.248 -0.0711  0.0120 -0.1503
  179POPC   C3B 2147  15.642  32.363   6.917  0.2153  0.1301  0.1215
  179POPC   C4B 2148  15.998  32.441   6.646 -0.0966  0.2013  0.2851
  180POPC   NC3 2149   3.165  14.345   7.967 -0.0731  0.0408 -0.1199
  180POPC   PO4 2150   2.929  14.003   7.946  0.2546  0.2222 -0.2977
  180POPC   GL1 2151   3.114  13.992   7.536 -0.2823 -0.2787  0.0722
  180POPC   GL2 2152   3.137  13.686   7.579  0.0259 -0.1549  0.0131
  180POPC   C1A 2153   3.104  13.999   7.063 -0.2215  0.1102  0.2491
  180POPC   D2A 2154   3.395  13.933   6.706  0.0049 -0.0776 -0.1470
  180POPC   C3A 2155   3.446  14.025   6.274  0.3250  0.0319  0.0391
  180POPC   C4A 2156   3.147  14.332   6.085 -0.1558 -0.1367  0.3924
  180POPC   C1B 2157   3.106  13.416   7.237  0.1652 -0.2567 -0.1646
  180POPC   C2B 2158   3.318  13.170   6.880  0.2420 -0.0606 -0.0152
  180POPC   C3B 2159   3.321  12.972   6.488 -0.1983 -0.1853 -0.0891
  180POPC   C4B 2160   3.407  12.831   6.088 -0.2547  0.0480 -0.0715
  181POPC   NC3 2161  14.660   0.795   9.144  0.2975 -0.1138 -0.0248
  181POPC   PO4 2162  14.307   0.940   9.035 -0.1244 -0.3570 -0.0346
  181POPC   GL1 2163  14.130   0.862   8.652 -0.1816 -0.0131  0.1519
  181POPC   GL2 2164  14.027   1.128   8.649 -0.1505 -0.0906  0.0185
  181POPC   C1A 2165  14.000   0.997   8.157  0.0303 -0.1649  0.0168
  181POPC   D2A 2166  14.328   1.050   7.872 -0.0595 -0.1575  0.2382
  181POPC   C3A 2167  14.227   1.402   7.592 -0.1475 -0.1126  0.3190
  181POPC   C4A 2168  14.442   1.840   7.522 -0.1601 -0.3055 -0.0328
  181POPC   C1B 2169  13.664   1.284   8.316  0.2179 -0.1339 -0.0765
  181POPC   C2B 2170  13.299   1.593   8.154  0.0199  0.0042  0.1329
  181POPC   C3B 2171  13.049   1.841   7.878  0.0427  0.1234 -0.0957
  181POPC   C4B 2172  12.795   1.905   7.497 -0.2344 -0.1695 -0.1163
  182POPC   NC3 2173   5.000   4.290  12.995  0.2025 -0.0190  0.3004
  182POPC   PO4 2174   5.173   4.434  12.655 -0.1229 -0.0982  0.0961
  182POPC   GL1 2175   5.501   4.731  12.536  0.1672 -0.2391 -0.0136
  182POPC   GL2 2176   5.498   4.840  12.801 -0.0853 -0.1103  0.2476
  182POPC   C1A 2177   5.956   4.702  12.514 -0.0896  0.0607 -0.1829
  182POPC   D2A 2178   6.382   4.845  12.382  0.2376  0.0604  0.0357
  182POPC   C3A 2179   6.694   4.726  12.689  0.4255 -0.3142 -0.0153
  182POPC   C4A 2180   7.111   4.864  12.876  0.0301  0.0618  0.3805
  182POPC   C1B 2181   5.749   4.999  13.182  0.0614 -0.0534  0.1675
  182POPC   C2B 2182   6.126   5.023  13.423 -0.1284 -0.2839 -0.0581
  182POPC   C3B 2183   6.496   5.298  13.622 -0.1038 -0.0551 -0.2608
  182POPC   C4B 2184   6.799   5.653  13.771 -0.1770  0.2679  0.3133
  183POPC   NC3 2185   2.535  11.763   7.808 -0.1778  0.1685  0.0843
  183POPC   PO4 2186   2.389  11.510   8.022  0.1652 -0.2376  0.1592
  183POPC   GL1 2187   2.770  11.404   7.963 -0.1348  0.2002 -0.2025
  183POPC   GL2 2188   2.824  11.380   7.649  0.0580 -0.2295 -0.1062
  183POPC   C1A 2189   3.143  11.171   7.984 -0.0048  0.2008  0.0675
  183POPC   D2A 2190   3.414  11.005   7.636  0.2186 -0.4118  0.1113
  183POPC   C3A 2191   3.262  11.127   7.247  0.0752  0.1387  0.3047
  183POPC   C4A 2192   3.246  11.303   6.804  0.0128  0.0053  0.0464
  183POPC   C1B 2193   2.826  10.998   7.520  0.1397  0.2773 -0.0972
  183POPC   C2B 2194   2.668  10.683   7.270 -0.1109  0.0831  0.0021
  183POPC   C3B 2195   2.708  10.523   6.835 -0.0423 -0.0832 -0.0011
  183POPC   C4B 2196   2.813  10.182   6.508 -0.1426 -0.1372  0.2428
  184POPC   NC3 2197   6.347  12.420   9.646  0.1818  0.1617 -0.1132
  184POPC   PO4 2198   6.284  12.659   9.320 -0.1720  0.0974  0.1176
  184POPC   GL1 2199   6.389  12.381   9.038 -0.0561  0.0985  0.3972
  184POPC   GL2 2200   6.629  12.466   8.935 -0.1528 -0.0997 -0.3745
  184POPC   C1A 2201   6.356  12.141   8.642  0.0931 -0.3181 -0.0211
  184POPC   D2A 2202   6.566  12.084   8.210  0.1664 -0.0921  0.1032
  184POPC   C3A 2203   6.292  12.408   7.966 -0.3190  0.1021 -0.1028
  184POPC   C4A 2204   6.370  12.330   7.484 -0.0776 -0.2915 -0.0987
  184POPC   C1B 2205   6.691  12.612   8.571 -0.1367 -0.0791  0.1838
  184POPC   C2B 2206   6.660  12.722   8.109  0.1414 -0.1169 -0.2411
  184POPC   C3B 2207   6.688  12.645   7.719  0.0729  0.3240  0.1377
  184POPC   C4B 2208   6.664  12.704   7.310 -0.1360  0.0363  0.0554
  185POPC   NC3 2209  16.162  12.638   8.283 -0.2083 -0.2630 -0.0818
  185POPC   PO4 2210  16.121  12.520   8.633 -0.0485 -0.2493 -0.1689
  185POPC   GL1 2211  15.749  12.482   8.430 -0.0545  0.0480  0.0111
  185POPC   GL2 2212  15.770  12.196   8.403 -0.1014  0.1058 -0.1294
  185POPC   C1A 2213  15.736  12.546   7.982 -0.2630  0.2651  0.2620
  185POPC   D2A 2214  15.767  12.444   7.539  0.0259 -0.1655  0.0711
  185POPC   C3A 2215  15.629  12.502   7.106 -0.1383 -0.2467 -0.0985
  185POPC   C4A 2216  15.493  12.834   6.804  0.1037  0.1595  0.0051
  185POPC   C1B 2217  15.431  12.123   8.085 -0.0772 -0.3361  0.0263
  185POPC   C2B 2218  14.969  11.998   7.881 -0.0516  0.1058  0.0937
  185POPC   C3B 2219  14.775  12.027   7.460 -0.4602  0.2935 -0.1059
  185POPC   C4B 2220  14.759  11.890   7.008 -0.1384 -0.1995  0.0194
  186POPC   NC3 2221   6.128   2.715  12.792 -0.1595 -0.1677 -0.1504
  186POPC   PO4 2222   6.173   2.400  13.062 -0.1344  0.1660  0.1003
  186POPC   GL1 2223   6.478   2.408  13.342  0.3102 -0.2348 -0.1290
  186POPC   GL2 2224   6.330   2.546  13.532 -0.4976 -0.0748 -0.0766
  186POPC   C1A 2225   6.916   2.350  13.298  0.3087  0.1365  0.3302
  186POPC   D2A 2226   6.943   2.015  13.635  0.0637  0.0021  0.0631
  186POPC   C3A 2227   7.104   2.208  14.097 -0.0460  0.1203 -0.2095
  186POPC   C4A 2228   7.381   2.478  14.263  0.0021  0.1259 -0.1782
  186POPC   C1B 2229   6.660   2.845  13.447 -0.0518  0.1844  0.1728
  186POPC   C2B 2230   6.947   3.193  13.597 -0.1304  0.0966 -0.3061
  186POPC   C3B 2231   7.268   3.408  13.781 -0.1582 -0.1350  0.3151
  186POPC   C4B 2232   7.583   3.634  14.040  0.1156  0.1017  0.2431
  187POPC   NC3 2233   1.867  12.163   7.536  0.1581 -0.1975 -0.1117
  187POPC   PO4 2234   2.062  11.872   7.709 -0.4257 -0.1343  0.0181
  187POPC   GL1 2235   2.338  11.800   7.353  0.1016  0.1652 -0.3876
  187POPC   GL2 2236   2.421  11.533   7.343 -0.1229  0.0941 -0.0719
  187POPC   C1A 2237   2.264  11.677   6.880  0.0636  0.0305 -0.1108
  187POPC   D2A 2238   2.424  11.422   6.574 -0.1342 -0.0065 -0.0058
  187POPC   C3A 2239   2.376  11.063   6.302 -0.2006 -0.0266 -0.1179
  187POPC   C4A 2240   2.460  10.621   6.434 -0.0290 -0.0642  0.0469
  187POPC   C1B 2241   2.107  11.239   7.083 -0.0299  0.0974  0.2272
  187POPC   C2B 2242   1.766  10.941   7.034  0.0810 -0.1677  0.0616
  187POPC   C3B 2243   1.419  10.876   6.817 -0.0430 -0.0001 -0.0877
  187POPC   C4B 2244   1.187  10.954   6.446  0.2150 -0.1437 -0.0781
  188POPC   NC3 2245  12.046  13.171   9.135  0.0993  0.1591 -0.1764
  188POPC   PO4 2246  11.788  12.989   8.917  0.1808  0.0386  0.2999
  188POPC   GL1 2247  11.914  13.073   8.580 -0.0778  0.2035  0.0009
  188POPC   GL2 2248  11.957  13.392   8.515 -0.0432 -0.0856 -0.1162
  188POPC   C1A 2249  12.063  12.735   8.324  0.0235  0.0258  0.1746
  188POPC   D2A 2250  12.113  12.571   7.911  0.0762 -0.0302  0.0228
  188POPC   C3A 2251  11.908  12.780   7.473 -0.1145  0.3567 -0.2646
  188POPC   C4A 2252  11.851  13.186   7.243 -0.1051 -0.2329 -0.3885
  188POPC   C1B 2253  11.865  13.109   8.116  0.0576 -0.0990  0.2007
  188POPC   C2B 2254  11.553  12.827   7.907  0.1078  0.1632 -0.1895
  188POPC   C3B 2255  11.459  12.608   7.557 -0.1761  0.0550  0.0960
  188POPC   C4B 2256  11.117  12.471   7.269  0.0284 -0.0419  0.3605
  189POPC   NC3 2257  14.356   5.983  10.217  0.1790 -0.2673 -0.0094
  189POPC   PO4 2258  14.575   6.325  10.143 -0.0319  0.2774 -0.2656
  189POPC   GL1 2259  14.457   6.275   9.752  0.1746  0.1428 -0.3625
  189POPC   GL2 2260  14.251   6.389   9.785 -0.0396 -0.0292 -0.1805
  189POPC   C1A 2261  14.333   5.988   9.443 -0.0636 -0.0217 -0.3632
  189POPC   D2A 2262  14.322   5.717   9.093 -0.0230 -0.2685  0.1353
  189POPC   C3A 2263  13.931   5.531   8.942 -0.0499  0.0537 -0.0709
  189POPC   C4A 2264  13.827   5.388   8.521 -0.2094 -0.4058 -0.1642
  189POPC   C1B 2265  14.091   6.569   9.388 -0.0084  0.2131 -0.0592
  189POPC   C2B 2266  14.013   6.797   8.974 -0.1556 -0.0408  0.0678
  189POPC   C3B 2267  13.959   7.169   8.807  0.2940 -0.2569  0.1031
  189POPC   C4B 2268  13.637   7.328   8.521  0.0313 -0.4899 -0.0735
  190POPC   NC3 2269   2.518   9.866   8.703  0.1330  0.1439  0.2034
  190POPC   PO4 2270   2.761  10.196   8.781 -0.2526  0.0001  0.0506
  190POPC   GL1 2271   3.121  10.268   8.582  0.0558  0.1840  0.2517
  190POPC   GL2 2272   2.999  10.321   8.313  0.1955  0.1662  0.2218
  190POPC   C1A 2273   3.223   9.878   8.315  0.0803  0.0877  0.0855
  190POPC   D2A 2274   3.499   9.788   7.944  0.0617 -0.0834 -0.0677
  190POPC   C3A 2275   3.370   9.455   7.680 -0.3357  0.2535 -0.2824
  190POPC   C4A 2276   3.357   9.191   7.273  0.0283 -0.1429 -0.1584
  190POPC   C1B 2277   3.008  10.063   7.888  0.2000  0.2458  0.0808
  190POPC   C2B 2278   3.206   9.941   7.505  0.0414 -0.4107 -0.2654
  190POPC   C3B 2279   3.576   9.694   7.294 -0.2230 -0.0346  0.6197
  190POPC   C4B 2280   3.808   9.962   6.964  0.0803  0.0811 -0.3708
  191POPC   NC3 2281   4.483  14.258   8.697 -0.0362 -0.0094  0.1476
  191POPC   PO4 2282   4.644  14.319   8.378  0.2517 -0.2274  0.1994
  191POPC   GL1 2283   4.840  14.261   8.047 -0.1313 -0.0154 -0.0470
  191POPC   GL2 2284   4.728  14.034   7.924  0.1227 -0.2944 -0.0089
  191POPC   C1A 2285   4.804  14.561   7.718  0.1515 -0.1732  0.1308
  191POPC   D2A 2286   5.148  14.815   7.439  0.1456  0.1697 -0.2000
  191POPC   C3A 2287   5.089  14.600   7.059  0.3417  0.0214  0.1132
  191POPC   C4A 2288   4.885  14.588   6.609  0.2175 -0.0373 -0.1288
  191POPC   C1B 2289   4.706  13.720   7.666 -0.1691  0.4070 -0.1767
  191POPC   C2B 2290   4.930  13.441   7.437 -0.1142  0.0606 -0.1344
  191POPC   C3B 2291   4.751  13.161   7.151 -0.2544 -0.0858 -0.2133
  191POPC   C4B 2292   4.353  12.927   6.940  0.2691  0.2039 -0.3239
  192POPC   NC3 2293   5.515   8.522  11.910 -0.0997  0.0566  0.1503
  192POPC   PO4 2294   5.522   8.145  11.887 -0.3066 -0.3645 -0.1692
  192POPC   GL1 2295   5.887   8.308  12.073 -0.2776  0.0308  0.1564
  192POPC   GL2 2296   6.000   7.993  12.031  0.2164 -0.1362  0.0424
  192POPC   C1A 2297   6.136   8.415  12.400  0.0811 -0.1430 -0.1138
  192POPC   D2A 2298   6.408   8.373  12.735  0.0881  0.0875 -0.2393
  192POPC   C3A 2299   6.836   8.212  12.671  0.2152 -0.2408 -0.1658
  192POPC   C4A 2300   7.184   8.455  12.456  0.0352 -0.2603 -0.2486
  192POPC   C1B 2301   6.106   7.629  12.250 -0.2525 -0.1811 -0.2469
  192POPC   C2B 2302   6.494   7.372  12.347  0.0957 -0.1658  0.1406
  192POPC   C3B 2303   6.912   7.165  12.546  0.2990 -0.1070  0.3235
  192POPC   C4B 2304   7.350   7.058  12.645 -0.0099  0.0168  0.0466
  193POPC   NC3 2305  13.825   3.662  11.718  0.2218  0.0314 -0.1168
  193POPC   PO4 2306  13.952   3.355  11.922 -0.0801 -0.1272 -0.0449
  193POPC   GL1 2307  13.581   3.415  12.026 -0.0331 -0.1836 -0.1348
  193POPC   GL2 2308  13.357   3.419  11.832 -0.1574 -0.2782 -0.0564
  193POPC   C1A 2309  13.213   3.184  12.231 -0.1922  0.3326 -0.2217
  193POPC   D2A 2310  12.784   3.291  12.340  0.0385  0.1363  0.0702
  193POPC   C3A 2311  12.458   3.351  12.713 -0.0104  0.1443  0.0239
  193POPC   C4A 2312  12.023   3.410  12.913  0.2027 -0.0804  0.2682
  193POPC   C1B 2313  12.939   3.553  11.860 -0.0120 -0.0261  0.0027
  193POPC   C2B 2314  12.551   3.702  12.012 -0.4744 -0.1585  0.1320
  193POPC   C3B 2315  12.149   3.997  12.092 -0.0930 -0.2277  0.2005
  193POPC   C4B 2316  11.801   4.150  11.836 -0.1416 -0.3375  0.1270
  194POPC   NC3 2317  14.521   3.688  12.584  0.0305 -0.3736 -0.1304
  194POPC   PO4 2318  14.432   4.033  12.748 -0.0579  0.1084 -0.1667
  194POPC   GL1 2319  14.041   4.027  12.708 -0.0115  0.0881  0.1667
  194POPC   GL2 2320  14.043   3.880  12.457 -0.0035 -0.0093 -0.2992
  194POPC   C1A 2321  13.589   4.101  12.689  0.0192 -0.1686  0.3867
  194POPC   D2A 2322  13.085   4.159  12.636  0.0456 -0.0015 -0.3664
  194POPC   C3A 2323  12.911   4.254  13.040  0.2990 -0.0155 -0.0987
  194POPC   C4A 2324  12.654   4.493  13.228 -0.2390 -0.3041  0.1524
  194POPC   C1B 2325  13.746   3.928  12.125  0.5424  0.2305  0.0830
  194POPC   C2B 2326  13.390   3.929  11.867 -0.0113  0.0890  0.0253
  194POPC   C3B 2327  12.947   4.047  11.809  0.0624 -0.0046 -0.1462
  194POPC   C4B 2328  12.472   4.142  11.717 -0.0581  0.1118 -0.0279
  195POPC   NC3 2329   3.597   3.543  15.041 -0.0917 -0.2496 -0.2318
  195POPC   PO4 2330   3.311   3.333  15.189  0.1660 -0.1723  0.3328
  195POPC   GL1 2331   3.611   3.244  15.442 -0.3199 -0.3494  0.1698
  195POPC   GL2 2332   3.499   3.409  15.692  0.1502  0.1240 -0.1511
  195POPC   C1A 2333   3.718   2.980  15.812 -0.2533  0.0377  0.0632
  195POPC   D2A 2334   4.007   3.039  16.188  0.0162 -0.0096 -0.2192
  195POPC   C3A 2335   4.166   2.685  16.460  0.0820 -0.0605  0.1971
  195POPC   C4A 2336   4.144   2.306  16.737  0.1135 -0.0692  0.1853
  195POPC   C1B 2337   3.689   3.406  16.113  0.0749  0.1802 -0.3874
  195POPC   C2B 2338   3.979   3.464  16.491  0.0995  0.1507  0.0737
  195POPC   C3B 2339   4.209   3.382  16.876  0.3461  0.1831 -0.3896
  195POPC   C4B 2340   4.420   3.690  17.124  0.2118 -0.0492  0.1783
  196POPC   NC3 2341  13.614   0.489   9.193 -0.2531 -0.3165 -0.1708
  196POPC   PO4 2342  13.972   0.538   9.029  0.0775 -0.2655  0.2033
  196POPC   GL1 2343  13.984   0.410   8.644 -0.3947  0.3171  0.1180
  196POPC   GL2 2344  14.144   0.128   8.581 -0.6064 -0.0141 -0.0139
  196POPC   C1A 2345  13.814   0.547   8.274  0.0182 -0.0859 -0.2011
  196POPC   D2A 2346  13.466   0.771   8.221  0.1439 -0.0469 -0.0543
  196POPC   C3A 2347  13.443   1.100   7.931 -0.0433  0.0083  0.2159
  196POPC   C4A 2348  13.198   1.403   7.665  0.0312  0.0500 -0.1027
  196POPC   C1B 2349  14.179   0.157   8.078 -0.2497 -0.3615 -0.1681
  196POPC   C2B 2350  14.413   0.185   7.710 -0.1244 -0.1452  0.1874
  196POPC   C3B 2351  14.342   0.431   7.310 -0.2143  0.3718  0.1106
  196POPC   C4B 2352  14.164   0.792   7.228 -0.1466 -0.0496 -0.0077
  197POPC   NC3 2353   4.938   6.402  11.266  0.0083  0.1431 -0.0256
  197POPC   PO4 2354   4.721   6.393  10.933  0.2844 -0.2567  0.1071
  197POPC   GL1 2355   5.018   6.463  10.641 -0.3249  0.0378  0.0587
  197POPC   GL2 2356   5.185   6.690  10.688  0.0603 -0.2801 -0.2554
  197POPC   C1A 2357   5.432   6.355  10.419 -0.0169  0.1793 -0.2489
  197POPC   D2A 2358   5.715   6.157  10.677 -0.3414  0.1946 -0.2233
  197POPC   C3A 2359   6.123   6.396  10.602 -0.1185 -0.0096  0.0835
  197POPC   C4A 2360   6.443   6.456  10.232 -0.1837  0.4285 -0.2244
  197POPC   C1B 2361   5.310   6.789  10.230  0.0070  0.0168 -0.0695
  197POPC   C2B 2362   5.594   6.791   9.830  0.1622 -0.0445 -0.2674
  197POPC   C3B 2363   5.947   6.827   9.517 -0.0724  0.0271 -0.2216
  197POPC   C4B 2364   6.246   6.664   9.184 -0.5870 -0.0443  0.1266
  198POPC   NC3 2365  13.688   3.010  11.710  0.0426 -0.2222  0.1318
  198POPC   PO4 2366  13.685   2.912  11.316  0.0252 -0.1150  0.0909
  198POPC   GL1 2367  13.272   2.985  11.448 -0.0049 -0.2293  0.0274
  198POPC   GL2 2368  13.183   2.917  11.759 -0.0609  0.0480  0.0102
  198POPC   C1A 2369  12.904   3.205  11.426 -0.0851 -0.2460 -0.0973
  198POPC   D2A 2370  12.578   3.428  11.197 -0.0018 -0.0534 -0.0877
  198POPC   C3A 2371  12.276   3.274  10.861 -0.0043 -0.2744 -0.0882
  198POPC   C4A 2372  11.845   3.108  10.874  0.0164 -0.1718  0.0062
  198POPC   C1B 2373  12.737   3.096  11.921  0.1261  0.2984  0.0322
  198POPC   C2B 2374  12.308   3.190  11.735 -0.1998  0.0737 -0.1859
  198POPC   C3B 2375  12.038   3.318  11.407  0.2253  0.2279  0.2593
  198POPC   C4B 2376  11.849   3.643  11.128  0.0632 -0.1987  0.1628
  199POPC   NC3 2377  15.944   6.034   9.847 -0.1602 -0.1421  0.0881
  199POPC   PO4 2378  16.322   5.948   9.761 -0.2412 -0.2136 -0.0500
  199POPC   GL1 2379  16.167   5.772   9.523  0.2406  0.2084  0.2863
  199POPC   GL2 2380  15.972   5.523   9.434  0.0373  0.0272 -0.1374
  199POPC   C1A 2381  15.750   5.932   9.352 -0.1836 -0.0422  0.0907
  199POPC   D2A 2382  15.454   5.937   9.008 -0.1782  0.0153 -0.2768
  199POPC   C3A 2383  15.134   6.220   9.079 -0.0961 -0.1370 -0.0747
  199POPC   C4A 2384  14.794   6.395   9.257 -0.1001 -0.1052 -0.2135
  199POPC   C1B 2385  15.572   5.479   9.159  0.2306 -0.3072 -0.1732
  199POPC   C2B 2386  15.381   5.495   8.767 -0.2324 -0.0887  0.1348
  199POPC   C3B 2387  15.152   5.586   8.422  0.3660 -0.0550 -0.0988
  199POPC   C4B 2388  14.760   5.718   8.301 -0.1895 -0.2200 -0.0386
  200POPC   NC3 2389   3.922  14.735   8.265 -0.0724 -0.1534  0.0019
  200POPC   PO4 2390   3.683  14.415   8.175  0.2519 -0.1464 -0.1664
  200POPC   GL1 2391   3.590  14.430   7.757  0.2740  0.3117 -0.2926
  200POPC   GL2 2392   3.817  14.572   7.682 -0.0868 -0.2489  0.0645
  200POPC   C1A 2393   3.189  14.479   7.474 -0.1239 -0.1606  0.2414
  200POPC   D2A 2394   2.767  14.630   7.260 -0.2203  0.1106  0.1744
  200POPC   C3A 2395   2.881  14.665   6.836  0.0291  0.1709 -0.0948
  200POPC   C4A 2396   2.932  14.799   6.408  0.1722  0.4509  0.3690
  200POPC   C1B 2397   3.770  14.765   7.320  0.0541 -0.2809 -0.0018
  200POPC   C2B 2398   3.685  15.000   6.933 -0.1270 -0.0937 -0.2305
  200POPC   C3B 2399   3.625  14.926   6.481 -0.1725  0.0837  0.2289
  200POPC   C4B 2400   3.329  14.778   6.121 -0.1799  0.1848 -0.0262
  201POPC   NC3 2401   1.231   3.737   9.198  0.2906 -0.0964  0.2387
  201POPC   PO4 2402   1.270   3.970   9.503  0.0629  0.0603 -0.2884
  201POPC   GL1 2403   1.076   4.178   9.139 -0.1000  0.0358  0.2834
  201POPC   GL2 2404   1.058   4.484   9.046  0.0688  0.0285 -0.0826
  201POPC   C1A 2405   1.077   4.144   8.691 -0.1505 -0.0863  0.1026
  201POPC   D2A 2406   1.236   4.424   8.344 -0.1015  0.2394 -0.1643
  201POPC   C3A 2407   1.593   4.264   8.107 -0.0968  0.1069  0.0655
  201POPC   C4A 2408   1.876   4.373   7.791  0.1018 -0.4752 -0.1756
  201POPC   C1B 2409   0.960   4.680   8.653 -0.0561 -0.1037  0.3388
  201POPC   C2B 2410   0.883   4.732   8.158  0.1375 -0.2412 -0.1384
  201POPC   C3B 2411   0.767   4.614   7.712 -0.1454  0.0524 -0.0603
  201POPC   C4B 2412   0.518   4.684   7.326  0.0631 -0.1409 -0.1369
  202POPC   NC3 2413  12.686   1.599  10.298  0.1476 -0.0401  0.1346
  202POPC   PO4 2414  13.079   1.606  10.139  0.2132  0.0331 -0.1750
  202POPC   GL1 2415  12.879   1.823   9.908 -0.2343 -0.2573  0.0672
  202POPC   GL2 2416  12.686   1.624   9.811  0.1221 -0.0515 -0.2991
  202POPC   C1A 2417  12.772   2.166   9.624 -0.2442  0.1342  0.2550
  202POPC   D2A 2418  12.650   2.638   9.572 -0.0228  0.0080  0.3583
  202POPC   C3A 2419  12.288   2.936   9.497 -0.1469 -0.2367  0.2756
  202POPC   C4A 2420  11.928   3.268   9.485  0.1252 -0.1100  0.0947
  202POPC   C1B 2421  12.308   1.554   9.504 -0.0218 -0.0826  0.0415
  202POPC   C2B 2422  12.081   1.755   9.135 -0.0696 -0.2459 -0.1147
  202POPC   C3B 2423  11.981   2.142   8.999  0.2790  0.0828  0.0644
  202POPC   C4B 2424  11.903   2.536   9.192  0.0416  0.2888 -0.2357
  203POPC   NC3 2425   3.761   5.460   9.616  0.1334 -0.1690  0.0084
  203POPC   PO4 2426   3.557   5.754   9.717  0.1680 -0.1547 -0.0311
  203POPC   GL1 2427   3.306   5.621   9.301 -0.3688  0.1381  0.0314
  203POPC   GL2 2428   3.571   5.707   9.199 -0.0791  0.0773  0.1676
  203POPC   C1A 2429   3.263   5.550   8.847 -0.2909 -0.0637  0.2679
  203POPC   D2A 2430   3.450   5.513   8.406  0.3698 -0.0511 -0.0091
  203POPC   C3A 2431   3.738   5.525   8.067  0.0815 -0.0177 -0.0020
  203POPC   C4A 2432   4.032   5.683   7.755  0.1277  0.1397 -0.3759
  203POPC   C1B 2433   3.667   5.916   8.834  0.3505  0.0755  0.2627
  203POPC   C2B 2434   3.878   5.964   8.477  0.0183  0.0488  0.0400
  203POPC   C3B 2435   4.014   6.261   8.151  0.3175  0.1718  0.0193
  203POPC   C4B 2436   4.378   6.469   7.908 -0.3039 -0.1963 -0.0014
  204POPC   NC3 2437   8.426  12.803  16.163  0.2406  0.1421  0.2954
  204POPC   PO4 2438   8.479  12.414  16.078 -0.0814 -0.1472  0.0181
  204POPC   GL1 2439   8.580  12.426  16.408 -0.1598 -0.0557  0.1347
  204POPC   GL2 2440   8.457  12.548  16.606 -0.2800 -0.0378  0.0050
  204POPC   C1A 2441   8.533  12.086  16.692  0.3451  0.0015  0.0173
  204POPC   D2A 2442   8.676  11.659  16.922  0.1037 -0.4318  0.2427
  204POPC   C3A 2443   9.082  11.640  17.202  0.2277  0.1713 -0.1126
  204POPC   C4A 2444   9.132  11.214  17.319 -0.3628  0.0112 -0.1585
  204POPC   C1B 2445   8.428  12.892  16.903  0.1867 -0.1307 -0.2894
  204POPC   C2B 2446   8.341  13.176  17.273 -0.0680 -0.0958 -0.0642
  204POPC   C3B 2447   8.235  13.495  17.546 -0.1416 -0.0146 -0.5336
  204POPC   C4B 2448   8.069  13.772  17.941  0.0141 -0.0656 -0.3218
  205POPC   NC3 2449   0.310   1.254   8.505 -0.2788 -0.4634 -0.0002
  205POPC   PO4 2450   0.446   0.911   8.493  0.1156  0.1672 -0.1133
  205POPC   GL1 2451   0.479   0.907   8.122  0.2080  0.3234  0.2425
  205POPC   GL2 2452   0.251   0.771   8.047  0.0018  0.0853  0.0465
  205POPC   C1A 2453   0.868   1.041   7.873  0.0210  0.0681  0.2566
  205POPC   D2A 2454   1.309   0.980   7.688 -0.1355 -0.0397 -0.2483
  205POPC   C3A 2455   1.448   1.011   7.261 -0.0317  0.2030 -0.2576
  205POPC   C4A 2456   1.619   1.124   6.813 -0.1317 -0.2712  0.2953
  205POPC   C1B 2457   0.453   0.929   7.669  0.0824  0.0578  0.1648
  205POPC   C2B 2458   0.431   1.121   7.236  0.3378  0.0396 -0.3104
  205POPC   C3B 2459   0.458   1.344   6.823 -0.0777  0.1503 -0.0402
  205POPC   C4B 2460   0.549   1.723   6.544 -0.0602  0.2142  0.0621
  206POPC   NC3 2461   0.350   5.088   9.047 -0.1113  0.5135 -0.1397
  206POPC   PO4 2462   0.493   4.894   9.349 -0.0508 -0.1641  0.1440
  206POPC   GL1 2463   0.442   4.503   9.231  0.0187 -0.1715  0.0683
  206POPC   GL2 2464   0.228   4.527   9.051  0.1368 -0.3431 -0.2351
  206POPC   C1A 2465   0.565   4.214   8.899 -0.2404  0.0368  0.2302
  206POPC   D2A 2466   0.717   4.320   8.431  0.2347  0.1943  0.0068
  206POPC   C3A 2467   0.508   4.179   8.020  0.0691 -0.3725  0.2709
  206POPC   C4A 2468   0.483   4.172   7.524  0.1075  0.0886 -0.4560
  206POPC   C1B 2469   0.154   4.432   8.572 -0.1170 -0.3205  0.1483
  206POPC   C2B 2470   0.398   4.639   8.175 -0.0830  0.0245  0.0662
  206POPC   C3B 2471   0.206   4.482   7.787  0.2696 -0.1988  0.2697
  206POPC   C4B 2472   0.054   4.385   7.338  0.0618  0.3837  0.2205
  207POPC   NC3 2473   8.856   1.025  13.061 -0.0213 -0.0091 -0.2002
  207POPC   PO4 2474   8.755   0.811  13.361  0.2308  0.2173 -0.0006
  207POPC   GL1 2475   8.849   1.135  13.574 -0.0129  0.1350  0.2692
  207POPC   GL2 2476   8.972   1.399  13.758  0.1637  0.2040  0.0571
  207POPC   C1A 2477   8.639   1.472  13.355 -0.0582 -0.0178 -0.3764
  207POPC   D2A 2478   8.181   1.603  13.266  0.0046 -0.0157  0.1216
  207POPC   C3A 2479   7.851   1.633  13.530  0.1555 -0.1024 -0.3473
  207POPC   C4A 2480   7.579   1.508  13.867  0.2159 -0.2536  0.2661
  207POPC   C1B 2481   8.933   1.814  13.883  0.4185  0.0051 -0.3498
  207POPC   C2B 2482   8.662   2.189  13.913 -0.1425 -0.0691  0.3761
  207POPC   C3B 2483   8.573   2.536  14.213 -0.0040  0.1970 -0.0569
  207POPC   C4B 2484   8.755   2.695  14.584 -0.1861 -0.0141  0.0326
  208POPC   NC3 2485  15.404  11.637   8.946 -0.3059  0.0829  0.2860
  208POPC   PO4 2486  15.113  11.895   9.048  0.1060  0.1659 -0.1037
  208POPC   GL1 2487  15.076  11.855   8.653 -0.2307 -0.1361 -0.2061
  208POPC   GL2 2488  15.278  11.987   8.593  0.0742 -0.2719 -0.0642
  208POPC   C1A 2489  14.710  11.592   8.471  0.0641  0.1970  0.1655
  208POPC   D2A 2490  14.264  11.732   8.484  0.1212 -0.0600 -0.1044
  208POPC   C3A 2491  13.920  11.452   8.403 -0.1142 -0.0323  0.0436
  208POPC   C4A 2492  13.942  11.069   8.168  0.3931 -0.1122  0.0940
  208POPC   C1B 2493  15.205  11.703   8.211  0.3446  0.0111 -0.2250
  208POPC   C2B 2494  14.910  11.365   8.038 -0.0082  0.4009  0.1736
  208POPC   C3B 2495  14.783  11.048   7.760  0.0767 -0.1030 -0.0491
  208POPC   C4B 2496  14.460  10.880   7.472 -0.0216 -0.2692  0.0706
  209POPC   NC3 2497  13.956   3.734  11.015  0.0718 -0.2242  0.0034
  209POPC   PO4 2498  14.246   3.479  10.876  0.1215  0.1665 -0.3115
  209POPC   GL1 2499  13.900   3.493  10.617  0.3864 -0.0951  0.1377
  209POPC   GL2 2500  13.863   3.409  10.263 -0.0634 -0.1039 -0.1876
  209POPC   C1A 2501  13.704   3.885  10.434  0.4396  0.1531  0.0527
  209POPC   D2A 2502  13.238   3.878  10.413  0.0099 -0.0061 -0.2034
  209POPC   C3A 2503  12.814   4.050  10.256 -0.3661 -0.0069  0.1782
  209POPC   C4A 2504  12.500   4.295  10.056 -0.0124  0.1033 -0.0741
  209POPC   C1B 2505  13.460   3.487  10.024  0.0710 -0.1600 -0.1343
  209POPC   C2B 2506  13.169   3.385   9.680  0.1024 -0.0232 -0.1114
  209POPC   C3B 2507  13.091   3.248   9.264 -0.0312  0.2218 -0.3706
  209POPC   C4B 2508  13.003   3.229   8.802  0.1214  0.1119  0.1632
  210POPC   NC3 2509   2.625  13.419  16.603  0.0377  0.1235  0.0076
  210POPC   PO4 2510   2.451  13.768  16.708 -0.1026  0.0598 -0.0789
  210POPC   GL1 2511   2.532  13.841  17.107  0.0820 -0.0113  0.0723
  210POPC   GL2 2512   2.448  13.532  17.257 -0.2112  0.0632  0.0168
  210POPC   C1A 2513   2.461  14.001  17.561 -0.1355 -0.2728 -0.0995
  210POPC   D2A 2514   2.253  14.040  17.947  0.0812  0.0145 -0.0742
  210POPC   C3A 2515   2.309  14.067  18.431 -0.3938 -0.0614  0.1094
  210POPC   C4A 2516   2.384  14.173  18.870  0.2134  0.3154  0.1246
  210POPC   C1B 2517   2.474  13.437  17.681 -0.3530 -0.0662  0.0774
  210POPC   C2B 2518   2.699  13.311  18.023  0.1654  0.4189  0.2879
  210POPC   C3B 2519   2.766  13.329  18.492 -0.1687 -0.0045 -0.1230
  210POPC   C4B 2520   2.935  13.336  18.942 -0.1859  0.1720 -0.1383
  211POPC   NC3 2521   8.500   1.089  12.090  0.2929 -0.4506  0.1997
  211POPC   PO4 2522   8.842   1.250  12.026  0.0779  0.1303 -0.1730
  211POPC   GL1 2523   9.111   1.492  12.285 -0.0629  0.2243 -0.1705
  211POPC   GL2 2524   9.058   1.726  12.149 -0.3917  0.1072 -0.1284
  211POPC   C1A 2525   9.119   1.794  12.661  0.1354  0.0995  0.1731
  211POPC   D2A 2526   8.936   2.216  12.794 -0.0537  0.1296  0.0003
  211POPC   C3A 2527   9.006   2.661  12.875 -0.1484  0.1576 -0.2367
  211POPC   C4A 2528   8.726   2.981  12.783 -0.0057 -0.1843  0.0046
  211POPC   C1B 2529   9.061   2.135  12.284  0.1568  0.2181  0.2960
  211POPC   C2B 2530   9.291   2.441  12.556 -0.1482 -0.1019 -0.1905
  211POPC   C3B 2531   9.497   2.561  12.918  0.2027 -0.2671  0.0271
  211POPC   C4B 2532   9.605   2.563  13.350 -0.1004 -0.2483 -0.2865
  212POPC   NC3 2533   0.621  13.084   7.923  0.5207 -0.3496 -0.0181
  212POPC   PO4 2534   0.938  13.321   7.936  0.0334  0.2891  0.1276
  212POPC   GL1 2535   0.877  13.253   7.576  0.1251 -0.3653  0.3503
  212POPC   GL2 2536   1.143  13.061   7.552 -0.1290  0.0371  0.0799
  212POPC   C1A 2537   0.700  13.450   7.163  0.2270 -0.0562  0.0097
  212POPC   D2A 2538   0.814  13.580   6.755  0.2042 -0.1632 -0.0831
  212POPC   C3A 2539   0.556  13.637   6.364 -0.3573 -0.2761 -0.1022
  212POPC   C4A 2540   0.160  13.725   6.152  0.1596  0.1051 -0.4327
  212POPC   C1B 2541   0.965  12.951   7.174 -0.3051 -0.2437  0.2234
  212POPC   C2B 2542   0.853  13.052   6.737 -0.1021  0.0376 -0.1543
  212POPC   C3B 2543   0.635  13.082   6.300 -0.0234 -0.0517 -0.1157
  212POPC   C4B 2544   0.703  13.343   5.948  0.0806 -0.0845 -0.1841
  213POPC   NC3 2545   5.257   3.813  13.055 -0.0397 -0.1014 -0.0221
  213POPC   PO4 2546   5.396   3.450  13.067  0.0201  0.1557 -0.1904
  213POPC   GL1 2547   5.662   3.592  13.347 -0.0102  0.5512  0.2093
  213POPC   GL2 2548   5.649   3.923  13.342  0.2193  0.0023  0.0360
  213POPC   C1A 2549   6.118   3.469  13.302 -0.1332 -0.0078  0.4255
  213POPC   D2A 2550   6.450   3.753  13.280  0.0120 -0.1571 -0.0011
  213POPC   C3A 2551   6.780   3.973  13.403 -0.1244  0.5009  0.0036
  213POPC   C4A 2552   7.139   3.904  13.696 -0.1981  0.0264  0.0703
  213POPC   C1B 2553   6.045   4.146  13.473  0.0451 -0.4576  0.0471
  213POPC   C2B 2554   6.468   4.374  13.473 -0.1951 -0.0210 -0.2025
  213POPC   C3B 2555   6.908   4.360  13.625  0.0960  0.2387 -0.1210
  213POPC   C4B 2556   7.333   4.337  13.674  0.0157 -0.1777 -0.0905
  214POPC   NC3 2557   1.159   1.244   9.044 -0.0522 -0.0058 -0.2169
  214POPC   PO4 2558   1.085   1.210   8.666 -0.2657  0.0195 -0.0254
  214POPC   GL1 2559   1.048   1.268   8.306 -0.0798 -0.2686 -0.2191
  214POPC   GL2 2560   0.811   1.449   8.247  0.0637  0.3111  0.0797
  214POPC   C1A 2561   1.227   1.427   7.894 -0.2508 -0.5459  0.1899
  214POPC   D2A 2562   1.142   1.739   7.601 -0.2276  0.2991  0.2825
  214POPC   C3A 2563   1.263   1.885   7.125 -0.0327 -0.1891  0.1922
  214POPC   C4A 2564   0.885   1.924   6.875 -0.1203  0.1732 -0.0553
  214POPC   C1B 2565   0.891   1.779   8.043  0.3758 -0.1313  0.0615
  214POPC   C2B 2566   0.850   2.104   7.748 -0.2696 -0.0907 -0.1374
  214POPC   C3B 2567   0.693   2.157   7.319 -0.2464 -0.0688  0.1395
  214POPC   C4B 2568   0.424   2.135   6.943  0.3840  0.0316  0.0777
  215POPC   NC3 2569  13.877   3.296  13.257  0.1655  0.1573 -0.1366
  215POPC   PO4 2570  14.020   2.963  13.095  0.1145  0.1691  0.1586
  215POPC   GL1 2571  13.565   3.024  13.186 -0.1465  0.0315  0.3485
  215POPC   GL2 2572  13.541   3.160  12.875 -0.1069  0.0683  0.1713
  215POPC   C1A 2573  13.117   2.910  13.290  0.1318 -0.1436 -0.4589
  215POPC   D2A 2574  12.750   3.178  13.154 -0.0846 -0.4163 -0.2543
  215POPC   C3A 2575  12.295   2.956  13.036  0.1653  0.4247  0.0473
  215POPC   C4A 2576  12.072   2.845  12.647  0.0142  0.0675  0.3743
  215POPC   C1B 2577  13.266   3.380  13.201 -0.1479  0.1721 -0.2896
  215POPC   C2B 2578  12.904   3.600  13.262  0.0754  0.1533 -0.2341
  215POPC   C3B 2579  12.443   3.617  13.177  0.1500 -0.4427 -0.1622
  215POPC   C4B 2580  11.990   3.849  13.260  0.1811  0.2802  0.0914
  216POPC   NC3 2581   5.185   9.429  10.269  0.1716  0.0784 -0.0685
  216POPC   PO4 2582   5.010   9.076  10.161 -0.4335 -0.0091 -0.2227
  216POPC   GL1 2583   5.420   8.781  10.149 -0.1209 -0.1719 -0.1749
  216POPC   GL2 2584   5.566   8.923   9.932  0.6932  0.0487 -0.1950
  216POPC   C1A 2585   5.426   8.327  10.115 -0.1887  0.0792 -0.0470
  216POPC   D2A 2586   5.790   8.044  10.185  0.2370  0.0384  0.2459
  216POPC   C3A 2587   5.958   7.873   9.784  0.0709 -0.3215  0.0406
  216POPC   C4A 2588   6.155   7.706   9.360 -0.1937  0.0055 -0.1713
  216POPC   C1B 2589   5.642   8.876   9.438  0.1181 -0.0610 -0.1364
  216POPC   C2B 2590   5.917   8.819   9.018  0.1925  0.1607 -0.2354
  216POPC   C3B 2591   5.992   8.944   8.597  0.0549 -0.0778 -0.2654
  216POPC   C4B 2592   6.351   8.983   8.341  0.1073  0.2067 -0.2978
  217POPC   NC3 2593   1.685   4.973   9.212  0.0923 -0.2986 -0.1956
  217POPC   PO4 2594   1.972   4.907   8.963  0.0020 -0.3050  0.0750
  217POPC   GL1 2595   2.034   4.973   8.625  0.0721 -0.5258 -0.1826
  217POPC   GL2 2596   2.164   4.739   8.518 -0.0331 -0.2899 -0.0210
  217POPC   C1A 2597   1.932   5.186   8.204 -0.1057 -0.0032 -0.1776
  217POPC   D2A 2598   1.845   5.399   7.786 -0.2530  0.0090 -0.0288
  217POPC   C3A 2599   1.902   5.876   7.596 -0.2988  0.0322 -0.2958
  217POPC   C4A 2600   1.704   6.290   7.560  0.1254  0.0557  0.3462
  217POPC   C1B 2601   2.107   4.729   8.039 -0.0079  0.0547 -0.0934
  217POPC   C2B 2602   2.039   4.864   7.651 -0.0599  0.0980 -0.0345
  217POPC   C3B 2603   2.194   5.151   7.379  0.0356 -0.2504 -0.3127
  217POPC   C4B 2604   2.467   5.534   7.234  0.1439  0.0793 -0.2247
  218POPC   NC3 2605   5.292   3.966  11.586 -0.0773 -0.1181  0.0619
  218POPC   PO4 2606   5.494   3.717  11.384 -0.1857 -0.0718  0.0313
  218POPC   GL1 2607   5.769   3.921  11.541  0.2733  0.2327 -0.3557
  218POPC   GL2 2608   5.776   4.194  11.445 -0.1872 -0.0134  0.2059
  218POPC   C1A 2609   6.246   3.990  11.523 -0.2404  0.0227  0.3329
  218POPC   D2A 2610   6.638   4.011  11.330 -0.0713  0.3211 -0.0594
  218POPC   C3A 2611   6.861   4.131  11.787 -0.1072  0.0568  0.0071
  218POPC   C4A 2612   6.824   3.982  12.177  0.0513  0.1273 -0.2836
  218POPC   C1B 2613   6.175   4.516  11.504  0.1491 -0.0414 -0.2704
  218POPC   C2B 2614   6.572   4.442  11.490  0.0501 -0.1205  0.0315
  218POPC   C3B 2615   7.047   4.466  11.329  0.2703  0.2282 -0.0748
  218POPC   C4B 2616   7.345   4.459  11.013  0.0486 -0.2133 -0.4416
  219POPC   NC3 2617  12.915   8.779  11.587 -0.0128  0.1023  0.1466
  219POPC   PO4 2618  13.020   9.029  11.861  0.3338 -0.5929  0.1018
  219POPC   GL1 2619  12.589   9.010  11.946 -0.1730  0.1637  0.4668
  219POPC   GL2 2620  12.553   8.760  11.899  0.1430  0.2241  0.2561
  219POPC   C1A 2621  12.264   9.248  12.111 -0.1549 -0.3347  0.0611
  219POPC   D2A 2622  11.842   9.164  11.970 -0.1743  0.0511  0.0964
  219POPC   C3A 2623  11.614   8.955  11.615 -0.1428 -0.1056  0.0750
  219POPC   C4A 2624  11.512   8.539  11.562 -0.3264  0.0932 -0.2936
  219POPC   C1B 2625  12.401   8.569  11.521 -0.1535 -0.2869 -0.0034
  219POPC   C2B 2626  12.349   8.399  11.141  0.2551  0.2078  0.0589
  219POPC   C3B 2627  12.064   8.181  10.812  0.2238  0.0245  0.1580
  219POPC   C4B 2628  11.744   8.347  10.502 -0.5262  0.0461  0.0416
  220POPC   NC3 2629   4.529   4.455  10.238 -0.2576  0.4077  0.3658
  220POPC   PO4 2630   4.702   4.761  10.128 -0.2281 -0.1767  0.0711
  220POPC   GL1 2631   4.977   4.992   9.951 -0.2870  0.0089 -0.1365
  220POPC   GL2 2632   5.187   4.931  10.081  0.1022  0.0736 -0.4172
  220POPC   C1A 2633   5.117   5.002   9.510  0.1560 -0.1525  0.2376
  220POPC   D2A 2634   5.335   5.204   9.115 -0.0289 -0.2257 -0.1440
  220POPC   C3A 2635   5.166   5.243   8.727  0.1324  0.0198  0.1074
  220POPC   C4A 2636   4.831   4.941   8.584  0.2965 -0.0066  0.2841
  220POPC   C1B 2637   5.656   4.909  10.044 -0.0708 -0.2868  0.0662
  220POPC   C2B 2638   6.037   4.778   9.774  0.2040  0.0751 -0.1846
  220POPC   C3B 2639   6.468   4.840   9.747  0.0525 -0.0440  0.1112
  220POPC   C4B 2640   6.773   4.719   9.469 -0.2478 -0.0697 -0.0766
  221POPC   NC3 2641  14.460   2.996  10.235 -0.4366  0.1231  0.0197
  221POPC   PO4 2642  14.408   3.371  10.287  0.0646 -0.2995 -0.2495
  221POPC   GL1 2643  14.267   3.493   9.891 -0.2724  0.1268 -0.0833
  221POPC   GL2 2644  14.256   3.257   9.814  0.0365  0.2999  0.0513
  221POPC   C1A 2645  13.852   3.676   9.742  0.0059 -0.2622 -0.2344
  221POPC   D2A 2646  13.535   3.935   9.897  0.0522 -0.0009  0.0940
  221POPC   C3A 2647  13.124   3.892   9.645  0.0527 -0.0784 -0.4084
  221POPC   C4A 2648  12.904   3.681   9.296  0.0295  0.2421  0.0654
  221POPC   C1B 2649  14.057   3.351   9.451  0.2010  0.1483  0.4190
  221POPC   C2B 2650  13.934   3.501   9.010 -0.2231 -0.1933  0.1441
  221POPC   C3B 2651  13.909   3.746   8.644 -0.1510  0.3477  0.2281
  221POPC   C4B 2652  13.982   4.141   8.416 -0.0642 -0.1833  0.0506
  222POPC   NC3 2653   2.046   9.754   9.092 -0.1839 -0.1612  0.0902
  222POPC   PO4 2654   2.150   9.426   9.276  0.1074 -0.2022  0.2238
  222POPC   GL1 2655   2.393   9.399   8.920 -0.2024  0.3304 -0.4985
  222POPC   GL2 2656   2.329   9.301   8.654 -0.0554  0.0735  0.2589
  222POPC   C1A 2657   2.770   9.171   8.683 -0.0269 -0.0359  0.0741
  222POPC   D2A 2658   3.119   8.987   8.432  0.1092  0.1558 -0.0612
  222POPC   C3A 2659   3.189   8.648   8.124  0.0801 -0.0766  0.1683
  222POPC   C4A 2660   3.410   8.500   7.708 -0.0748  0.1002 -0.2352
  222POPC   C1B 2661   2.350   9.516   8.208 -0.1714  0.0492 -0.4455
  222POPC   C2B 2662   2.423   9.332   7.738  0.2178 -0.0119 -0.3630
  222POPC   C3B 2663   2.506   9.221   7.275 -0.0782 -0.1580  0.0409
  222POPC   C4B 2664   2.637   9.026   6.894  0.1247  0.0428 -0.1139
  223POPC   NC3 2665   7.874  11.022  10.669  0.0467  0.2754  0.1247
  223POPC   PO4 2666   8.105  11.338  10.605  0.1235 -0.1338 -0.2624
  223POPC   GL1 2667   8.336  11.035  10.409  0.0039 -0.1474 -0.0359
  223POPC   GL2 2668   8.089  10.960  10.218 -0.1705  0.0673 -0.0177
  223POPC   C1A 2669   8.528  10.606  10.225 -0.0163  0.1586  0.1026
  223POPC   D2A 2670   8.896  10.299  10.210 -0.0742  0.0985  0.2197
  223POPC   C3A 2671   9.034   9.984   9.906  0.1292  0.0125  0.0365
  223POPC   C4A 2672   9.327   9.985   9.523 -0.3113  0.1428  0.0808
  223POPC   C1B 2673   7.963  10.615   9.944 -0.2259  0.1391 -0.0584
  223POPC   C2B 2674   8.168  10.233   9.725 -0.2668  0.4156  0.1431
  223POPC   C3B 2675   8.193   9.782   9.587 -0.1115  0.0206  0.0604
  223POPC   C4B 2676   8.450   9.345   9.581  0.2447  0.1669  0.1675
  224POPC   NC3 2677   7.324  13.363   8.567  0.1130  0.3790  0.2623
  224POPC   PO4 2678   7.534  13.611   8.753  0.1500 -0.3805 -0.0192
  224POPC   GL1 2679   7.704  13.722   8.405 -0.0803  0.1621  0.0339
  224POPC   GL2 2680   7.968  13.610   8.445  0.0575  0.4468  0.0261
  224POPC   C1A 2681   7.492  13.541   8.026 -0.2757  0.2071  0.2402
  224POPC   D2A 2682   7.241  13.143   7.991  0.0095  0.1173  0.1327
  224POPC   C3A 2683   7.203  12.911   7.626 -0.3339 -0.0669 -0.0857
  224POPC   C4A 2684   7.157  12.673   7.267 -0.2234  0.1325  0.1014
  224POPC   C1B 2685   7.964  13.612   8.018 -0.0058 -0.0120 -0.1796
  224POPC   C2B 2686   8.137  13.693   7.630 -0.1379  0.5087 -0.0932
  224POPC   C3B 2687   8.234  13.577   7.165 -0.1113 -0.0759  0.1402
  224POPC   C4B 2688   8.238  13.581   6.728  0.2001  0.0504 -0.3730
  225POPC   NC3 2689   3.927   2.670   9.097 -0.2942 -0.0453  0.1510
  225POPC   PO4 2690   4.104   2.477   9.352  0.2850 -0.2831  0.2051
  225POPC   GL1 2691   4.341   2.381   9.003  0.0648  0.1516 -0.2698
  225POPC   GL2 2692   4.242   2.313   8.765 -0.0058 -0.0628  0.2913
  225POPC   C1A 2693   4.735   2.462   8.731  0.0537 -0.0100  0.1275
  225POPC   D2A 2694   4.875   2.300   8.298 -0.2107 -0.0338  0.1814
  225POPC   C3A 2695   4.912   2.192   7.827  0.0529 -0.1049  0.0633
  225POPC   C4A 2696   5.145   1.970   7.507  0.1064  0.1935  0.5184
  225POPC   C1B 2697   4.156   2.755   8.658  0.2565 -0.1655 -0.0504
  225POPC   C2B 2698   4.253   3.093   8.349 -0.0407 -0.1625 -0.1604
  225POPC   C3B 2699   4.416   3.247   7.969 -0.0503  0.1023 -0.3188
  225POPC   C4B 2700   4.828   3.280   7.761  0.0646 -0.3186 -0.1144
  226POPC   NC3 2701   7.575  15.855   8.863  0.1466  0.0306  0.2905
  226POPC   PO4 2702   7.250  15.614   8.808  0.2070  0.2798 -0.0236
  226POPC   GL1 2703   7.321  15.647   8.495  0.1608  0.2828 -0.1406
  226POPC   GL2 2704   7.384  15.378   8.388 -0.0040 -0.0159 -0.2267
  226POPC   C1A 2705   7.226  15.784   8.094  0.1156 -0.1625 -0.3814
  226POPC   D2A 2706   6.928  15.947   7.729 -0.0982 -0.0865  0.0622
  226POPC   C3A 2707   7.015  16.336   7.486  0.1381 -0.0930  0.0084
  226POPC   C4A 2708   6.901  16.558   7.089 -0.3895  0.0371 -0.1325
  226POPC   C1B 2709   7.331  15.378   7.962  0.2281 -0.1488  0.0474
  226POPC   C2B 2710   7.137  15.445   7.537 -0.0727 -0.0492  0.0340
  226POPC   C3B 2711   7.093  15.271   7.132  0.0092  0.1607 -0.2399
  226POPC   C4B 2712   6.898  15.124   6.707  0.1479 -0.1974  0.0656
  227POPC   NC3 2713   1.751   2.999   8.828 -0.0676 -0.3994 -0.1999
  227POPC   PO4 2714   2.156   3.081   8.864  0.2798 -0.2563 -0.1071
  227POPC   GL1 2715   2.076   3.131   8.484  0.0329  0.0055  0.1395
  227POPC   GL2 2716   2.248   2.882   8.367  0.1147  0.1738 -0.2041
  227POPC   C1A 2717   2.450   3.287   8.219 -0.0447  0.1220 -0.0271
  227POPC   D2A 2718   2.687   3.335   7.859 -0.1170  0.1597  0.0817
  227POPC   C3A 2719   2.420   3.129   7.573 -0.2495  0.0603 -0.0552
  227POPC   C4A 2720   2.122   3.378   7.277  0.0315 -0.2023 -0.0508
  227POPC   C1B 2721   2.520   2.799   8.060  0.0327  0.3562  0.4002
  227POPC   C2B 2722   2.757   2.742   7.648 -0.3496  0.1334  0.0780
  227POPC   C3B 2723   2.963   3.132   7.454  0.1679  0.4675 -0.3661
  227POPC   C4B 2724   3.094   3.518   7.508  0.1215 -0.2280  0.1764
  228POPC   NC3 2725   8.445  17.531  10.076  0.1872 -0.1854  0.1510
  228POPC   PO4 2726   8.815  17.451  10.214  0.0148  0.1031 -0.1905
  228POPC   GL1 2727   8.926  17.599   9.907  0.0481  0.1243  0.2335
  228POPC   GL2 2728   8.805  17.472   9.679 -0.1016  0.0197  0.1407
  228POPC   C1A 2729   8.828  17.990   9.718  0.0562 -0.2392  0.0531
  228POPC   D2A 2730   8.597  18.361   9.954 -0.1313 -0.2481  0.0946
  228POPC   C3A 2731   8.859  18.753  10.044 -0.0484  0.0850 -0.0119
  228POPC   C4A 2732   8.758  19.193  10.048 -0.1532  0.0109 -0.2430
  228POPC   C1B 2733   8.907  17.426   9.197 -0.3171  0.1548  0.1253
  228POPC   C2B 2734   8.809  17.372   8.791 -0.0705 -0.0228  0.1500
  228POPC   C3B 2735   9.076  17.551   8.456 -0.0853 -0.2831  0.1732
  228POPC   C4B 2736   9.026  17.822   8.042  0.2694  0.3097  0.4060
  229POPC   NC3 2737  11.452  32.019   9.144  0.0846  0.0343  0.1323
  229POPC   PO4 2738  11.502  32.100   8.761  0.2717  0.0118 -0.3772
  229POPC   GL1 2739  11.589  32.347   8.469  0.3916  0.0408 -0.4272
  229POPC   GL2 2740  11.675  32.559   8.661 -0.2090  0.2126  0.1289
  229POPC   C1A 2741  11.735  32.241   8.085 -0.1174 -0.1195  0.1076
  229POPC   D2A 2742  11.713  32.152   7.676 -0.1961  0.2268  0.0626
  229POPC   C3A 2743  11.778  32.243   7.227 -0.2693  0.0904 -0.0388
  229POPC   C4A 2744  11.932  31.936   6.848  0.2801  0.0043  0.0188
  229POPC   C1B 2745  11.564  32.886   8.368  0.0461  0.0132  0.0919
  229POPC   C2B 2746  11.792  33.186   8.063  0.0453 -0.2749  0.0512
  229POPC   C3B 2747  11.648  33.492   7.781 -0.1138 -0.1598 -0.1081
  229POPC   C4B 2748  11.622  33.653   7.378  0.3339  0.1820  0.2534
  230POPC   NC3 2749  10.152  15.022   9.192  0.1655  0.0025 -0.2752
  230POPC   PO4 2750  10.324  14.899   8.868  0.1247  0.3472  0.4279
  230POPC   GL1 2751  10.163  14.852   8.430  0.0627 -0.0479 -0.0567
  230POPC   GL2 2752  10.156  14.562   8.539  0.1615  0.3054  0.4032
  230POPC   C1A 2753   9.901  14.614   8.123  0.1333 -0.2334 -0.0496
  230POPC   D2A 2754   9.950  14.502   7.672 -0.0159 -0.2894  0.2870
  230POPC   C3A 2755   9.529  14.643   7.481 -0.0782 -0.2597 -0.1942
  230POPC   C4A 2756   9.229  14.411   7.303  0.4927  0.0957  0.1648
  230POPC   C1B 2757  10.366  14.506   8.128 -0.0509  0.2648 -0.1229
  230POPC   C2B 2758  10.434  14.266   7.785  0.1236  0.2352  0.1156
  230POPC   C3B 2759  10.456  14.140   7.363  0.0666  0.2814  0.1593
  230POPC   C4B 2760  10.569  14.423   7.022  0.2276  0.3498  0.0027
  231POPC   NC3 2761   7.984  13.644   8.969 -0.0632  0.1316 -0.2335
  231POPC   PO4 2762   8.240  13.471   9.203  0.0692 -0.0995  0.0055
  231POPC   GL1 2763   8.417  13.250   8.946 -0.5468 -0.1439 -0.0305
  231POPC   GL2 2764   8.272  13.349   8.665  0.0515 -0.1298 -0.5301
  231POPC   C1A 2765   8.838  13.095   8.754  0.0583 -0.0730  0.3107
  231POPC   D2A 2766   9.246  13.031   8.537 -0.2043  0.0263 -0.3705
  231POPC   C3A 2767   9.261  12.864   8.107 -0.0569 -0.2150  0.0171
  231POPC   C4A 2768   9.031  12.589   7.754  0.1481 -0.0848  0.1429
  231POPC   C1B 2769   8.315  13.252   8.213  0.1517  0.0901 -0.1644
  231POPC   C2B 2770   8.216  13.179   7.786 -0.3155  0.4546 -0.0110
  231POPC   C3B 2771   8.103  12.986   7.390 -0.1674 -0.1455  0.1710
  231POPC   C4B 2772   7.901  13.258   7.096 -0.0865 -0.2267 -0.2430
  232POPC   NC3 2773   6.744  32.615   9.196  0.0623 -0.0599 -0.3301
  232POPC   PO4 2774   6.819  32.651   9.573  0.0459 -0.0261  0.1889
  232POPC   GL1 2775   7.230  32.738   9.291  0.1759 -0.1964  0.5521
  232POPC   GL2 2776   7.186  33.042   9.487  0.1314  0.0783  0.0369
  232POPC   C1A 2777   7.499  32.997   9.053  0.0326  0.2094 -0.1189
  232POPC   D2A 2778   7.668  33.320   8.752 -0.1038  0.1686 -0.3310
  232POPC   C3A 2779   7.994  33.447   8.463 -0.1136  0.1642 -0.0680
  232POPC   C4A 2780   8.140  33.481   8.011  0.0186 -0.2713  0.0834
  232POPC   C1B 2781   7.281  33.454   9.267  0.0598  0.3971  0.0082
  232POPC   C2B 2782   7.165  33.739   8.942 -0.1879 -0.0222 -0.1159
  232POPC   C3B 2783   7.246  33.860   8.536  0.2154  0.1192 -0.1624
  232POPC   C4B 2784   7.305  34.013   8.121 -0.3140  0.1649  0.3830
  233POPC   NC3 2785  12.564   0.238   9.799 -0.2178 -0.1761  0.1130
  233POPC   PO4 2786  12.414   0.291   9.425 -0.1183  0.1510  0.1367
  233POPC   GL1 2787  12.461   0.492   9.050 -0.0587  0.2097  0.1974
  233POPC   GL2 2788  12.726   0.729   9.046 -0.0301  0.0541 -0.2102
  233POPC   C1A 2789  12.567   0.616   8.586  0.1353 -0.0892 -0.0048
  233POPC   D2A 2790  12.553   0.912   8.287  0.1437  0.0683  0.0328
  233POPC   C3A 2791  12.499   1.014   7.825 -0.1463  0.4206  0.0913
  233POPC   C4A 2792  12.517   1.322   7.496  0.2463  0.2212 -0.0104
  233POPC   C1B 2793  12.793   1.054   8.717  0.0881 -0.3021  0.0254
  233POPC   C2B 2794  12.658   1.432   8.490  0.1154 -0.1285  0.0601
  233POPC   C3B 2795  12.656   1.864   8.337 -0.2180 -0.1541  0.1252
  233POPC   C4B 2796  12.665   2.203   7.983 -0.1637  0.0752  0.2090
  234POPC   NC3 2797   4.537  13.593   8.170 -0.1839 -0.2491  0.0154
  234POPC   PO4 2798   4.777  13.820   8.397  0.2112  0.0580 -0.2129
  234POPC   GL1 2799   5.017  13.697   8.108 -0.3082  0.1671  0.0738
  234POPC   GL2 2800   5.159  13.457   8.113 -0.2813 -0.0280  0.2048
  234POPC   C1A 2801   5.195  13.829   7.728  0.0484 -0.3030 -0.4444
  234POPC   D2A 2802   4.968  13.882   7.310 -0.2064  0.0739 -0.1810
  234POPC   C3A 2803   5.131  14.087   6.902 -0.1592  0.3908  0.0183
  234POPC   C4A 2804   5.245  14.145   6.456  0.1990 -0.0247  0.2217
  234POPC   C1B 2805   5.506  13.133   8.010  0.0683  0.1812  0.3516
  234POPC   C2B 2806   5.498  13.013   7.556  0.0777  0.1226  0.1136
  234POPC   C3B 2807   5.776  13.054   7.154  0.2240  0.0105  0.0852
  234POPC   C4B 2808   5.701  13.310   6.683 -0.0649  0.0505  0.2498
  235POPC   NC3 2809   4.465   6.142  12.952  0.0759  0.0697 -0.2098
  235POPC   PO4 2810   4.821   6.063  12.792 -0.1559  0.1409 -0.2107
  235POPC   GL1 2811   5.085   6.188  12.966 -0.0720 -0.3390 -0.1836
  235POPC   GL2 2812   5.071   6.085  13.224  0.1403 -0.0267  0.3341
  235POPC   C1A 2813   5.552   6.058  12.951  0.3795 -0.1220  0.0822
  235POPC   D2A 2814   6.029   6.091  12.830 -0.1697 -0.1682  0.0429
  235POPC   C3A 2815   6.362   6.035  13.144  0.0785 -0.2004  0.1907
  235POPC   C4A 2816   6.565   6.038  13.488  0.1294  0.1537 -0.4360
  235POPC   C1B 2817   5.023   6.099  13.689 -0.2382 -0.0142 -0.1774
  235POPC   C2B 2818   5.291   6.221  14.042  0.1141  0.0801  0.1608
  235POPC   C3B 2819   5.751   6.230  14.153  0.0609 -0.0387 -0.0696
  235POPC   C4B 2820   6.129   6.199  14.395 -0.0155 -0.1870  0.0010
  236POPC   NC3 2821   7.400  10.147  12.167  0.1583 -0.0345  0.2920
  236POPC   PO4 2822   7.102   9.940  12.299  0.2585 -0.3055 -0.2122
  236POPC   GL1 2823   7.267   9.600  12.282  0.0261 -0.1683 -0.1426
  236POPC   GL2 2824   7.334   9.512  12.001 -0.0627 -0.1166  0.0391
  236POPC   C1A 2825   7.448   9.272  12.533 -0.0362 -0.0887 -0.1381
  236POPC   D2A 2826   7.553   8.857  12.643 -0.1017  0.0854 -0.0959
  236POPC   C3A 2827   7.653   8.371  12.500 -0.2582  0.1770 -0.1164
  236POPC   C4A 2828   7.858   7.967  12.602 -0.1344  0.0505  0.0359
  236POPC   C1B 2829   7.576   9.189  11.752  0.1310  0.2375  0.0846
  236POPC   C2B 2830   7.828   8.739  11.875 -0.1459 -0.1039  0.0455
  236POPC   C3B 2831   7.952   8.410  12.121  0.1732  0.1932  0.3272
  236POPC   C4B 2832   8.092   7.995  12.167  0.1109  0.1188  0.1206
  237POPC   NC3 2833  10.547  15.329   8.742  0.0655  0.1705  0.2088
  237POPC   PO4 2834  10.501  15.343   9.164 -0.0900 -0.1116  0.1543
  237POPC   GL1 2835  10.197  15.531   9.000 -0.3316  0.3868 -0.0884
  237POPC   GL2 2836  10.024  15.307   8.835  0.0983 -0.1919  0.1493
  237POPC   C1A 2837  10.104  15.807   8.631  0.1710  0.0382 -0.1286
  237POPC   D2A 2838  10.113  16.160   8.286 -0.2321 -0.0354 -0.0283
  237POPC   C3A 2839  10.452  16.265   8.028 -0.0727  0.2751 -0.0683
  237POPC   C4A 2840  10.429  16.181   7.525  0.2551 -0.1576 -0.3019
  237POPC   C1B 2841  10.009  15.383   8.399  0.1285  0.0698  0.2719
  237POPC   C2B 2842   9.995  15.674   8.075 -0.0882 -0.0747 -0.1256
  237POPC   C3B 2843  10.025  16.040   7.822 -0.1808  0.2306 -0.1045
  237POPC   C4B 2844  10.021  16.049   7.317  0.1814  0.1629  0.0697
  238POPC   NC3 2845   8.128  14.950  15.728  0.0669 -0.1155 -0.2498
  238POPC   PO4 2846   8.183  15.327  15.649 -0.1780 -0.1672  0.2223
  238POPC   GL1 2847   8.310  15.700  15.922  0.3017 -0.1197 -0.6240
  238POPC   GL2 2848   8.380  15.961  15.809  0.0040  0.1926  0.0692
  238POPC   C1A 2849   8.610  15.730  16.253  0.0341  0.0676 -0.1607
  238POPC   D2A 2850   8.918  15.782  16.630 -0.1255  0.1391 -0.3120
  238POPC   C3A 2851   8.920  16.014  17.072  0.2285 -0.0639  0.0251
  238POPC   C4A 2852   8.882  16.257  17.457  0.2518 -0.0445 -0.3023
  238POPC   C1B 2853   8.290  16.126  16.257  0.0361 -0.0789 -0.0194
  238POPC   C2B 2854   7.983  16.264  16.626  0.1085 -0.4180 -0.2044
  238POPC   C3B 2855   7.608  16.352  16.862  0.1479 -0.0337  0.1276
  238POPC   C4B 2856   7.543  16.471  17.228  0.2220 -0.0242  0.1355
  239POPC   NC3 2857  10.069  13.528   9.677 -0.0346 -0.1094 -0.0812
  239POPC   PO4 2858  10.029  13.636   9.337 -0.1144  0.1079 -0.0806
  239POPC   GL1 2859  10.093  13.571   8.937 -0.1209  0.0132 -0.1326
  239POPC   GL2 2860   9.922  13.695   8.803  0.1418 -0.2387 -0.2226
  239POPC   C1A 2861  10.019  13.276   8.566 -0.0099  0.3683  0.1494
  239POPC   D2A 2862  10.136  12.903   8.268  0.1271  0.0474 -0.2198
  239POPC   C3A 2863  10.244  13.064   7.877  0.1155  0.1340  0.2485
  239POPC   C4A 2864  10.167  12.818   7.415  0.0173  0.0766 -0.3608
  239POPC   C1B 2865   9.627  13.604   8.404  0.0908 -0.0444  0.0917
  239POPC   C2B 2866   9.338  13.364   8.157  0.2484  0.1109  0.1268
  239POPC   C3B 2867   9.285  13.290   7.667 -0.1134  0.2251  0.0281
  239POPC   C4B 2868   9.157  13.426   7.286  0.0506  0.2076  0.0216
  240POPC   NC3 2869   6.973   1.888  10.328  0.1828 -0.1084  0.0121
  240POPC   PO4 2870   6.607   1.720  10.429 -0.0536 -0.1357 -0.0404
  240POPC   GL1 2871   6.614   1.841  10.050 -0.0152 -0.3109  0.2130
  240POPC   GL2 2872   6.478   1.825   9.757  0.0248 -0.1419 -0.3077
  240POPC   C1A 2873   6.811   2.237   9.811  0.3532 -0.1561 -0.2019
  240POPC   D2A 2874   7.082   2.453   9.474  0.1656 -0.4741  0.1793
  240POPC   C3A 2875   7.444   2.231   9.357  0.1834  0.0509 -0.1874
  240POPC   C4A 2876   7.770   2.222   9.039  0.1798  0.0321  0.3709
  240POPC   C1B 2877   6.709   1.948   9.417  0.0724  0.2035 -0.0607
  240POPC   C2B 2878   7.018   2.133   9.082  0.0776  0.0657 -0.0670
  240POPC   C3B 2879   7.307   2.378   8.739 -0.0211  0.0799 -0.0166
  240POPC   C4B 2880   7.636   2.291   8.479  0.2468  0.0163 -0.3338
  241POPC   NC3 2881   2.322  12.806   8.092 -0.2732  0.3575 -0.0244
  241POPC   PO4 2882   2.671  12.716   7.934 -0.0480 -0.0218  0.0521
  241POPC   GL1 2883   2.654  12.610   7.615  0.2407 -0.1515  0.1309
  241POPC   GL2 2884   2.465  12.803   7.404  0.1955 -0.0025 -0.1225
  241POPC   C1A 2885   2.955  12.399   7.322 -0.2044  0.1748  0.1621
  241POPC   D2A 2886   3.181  12.571   6.955 -0.1483  0.1892  0.2035
  241POPC   C3A 2887   3.484  12.463   6.639 -0.3215  0.2816  0.3440
  241POPC   C4A 2888   3.553  12.197   6.233 -0.1763 -0.0681 -0.0666
  241POPC   C1B 2889   2.411  12.837   6.985  0.1147 -0.2778 -0.2768
  241POPC   C2B 2890   2.380  12.773   6.521  0.2536  0.0204  0.0987
  241POPC   C3B 2891   2.417  12.319   6.370 -0.0410 -0.3185 -0.2602
  241POPC   C4B 2892   2.579  11.891   6.470  0.1624  0.0776 -0.0017
  242POPC   NC3 2893   0.728   2.734   9.660 -0.0401  0.2887  0.0597
  242POPC   PO4 2894   1.008   2.932   9.465 -0.2610  0.2071 -0.0069
  242POPC   GL1 2895   0.937   3.168   9.131 -0.1324  0.0905 -0.0349
  242POPC   GL2 2896   0.860   3.040   8.850 -0.1018 -0.1607  0.2256
  242POPC   C1A 2897   0.729   3.539   8.911  0.1342  0.1737  0.1534
  242POPC   D2A 2898   0.694   3.827   8.566 -0.0480  0.3079 -0.0438
  242POPC   C3A 2899   0.289   4.005   8.398 -0.0067  0.2809 -0.0766
  242POPC   C4A 2900  -0.022   4.165   8.107 -0.3353  0.1215  0.0740
  242POPC   C1B 2901   0.854   3.296   8.433 -0.0498  0.1018  0.0848
  242POPC   C2B 2902   1.088   3.435   8.071 -0.1070 -0.0522 -0.1361
  242POPC   C3B 2903   1.223   3.363   7.659  0.1849  0.1181  0.2084
  242POPC   C4B 2904   1.197   3.631   7.248 -0.1313 -0.0299  0.0957
  243POPC   NC3 2905   9.660   1.198  11.397  0.1480  0.1850 -0.2094
  243POPC   PO4 2906   9.949   1.364  11.640  0.2239  0.0988  0.1260
  243POPC   GL1 2907  10.171   1.689  11.745 -0.1066  0.1260  0.0567
  243POPC   GL2 2908  10.406   1.590  11.784  0.1919  0.2947 -0.0298
  243POPC   C1A 2909  10.128   2.023  11.400 -0.2260  0.0250  0.1223
  243POPC   D2A 2910  10.281   2.367  11.126 -0.1339  0.1365  0.2424
  243POPC   C3A 2911  10.076   2.662  11.338 -0.0183 -0.1673  0.0220
  243POPC   C4A 2912  10.004   3.071  11.538  0.0034  0.1737 -0.0426
  243POPC   C1B 2913  10.423   2.014  11.785  0.2721  0.1746  0.1850
  243POPC   C2B 2914  10.464   2.458  11.642  0.0410  0.0089 -0.2331
  243POPC   C3B 2915  10.559   2.822  11.312  0.3286  0.0107  0.0547
  243POPC   C4B 2916  10.873   3.166  11.349  0.1547  0.0201  0.2810
  244POPC   NC3 2917   1.930  15.922   8.862 -0.1530  0.1279  0.2253
  244POPC   PO4 2918   2.256  15.996   8.646  0.0650 -0.2124  0.1180
  244POPC   GL1 2919   2.268  15.833   8.235 -0.0311  0.4954  0.2951
  244POPC   GL2 2920   2.443  16.025   8.021  0.1439  0.1694  0.2166
  244POPC   C1A 2921   2.095  15.665   7.821 -0.2110 -0.0828  0.1558
  244POPC   D2A 2922   2.105  15.938   7.434  0.4882  0.2841 -0.0287
  244POPC   C3A 2923   2.396  16.020   7.068  0.1258 -0.2159  0.0913
  244POPC   C4A 2924   2.486  16.276   6.692 -0.1195 -0.2420  0.0161
  244POPC   C1B 2925   2.615  16.083   7.607  0.0784 -0.0841 -0.1882
  244POPC   C2B 2926   2.845  16.082   7.207  0.1556 -0.1764  0.2113
  244POPC   C3B 2927   3.168  16.097   6.850 -0.0924  0.1480  0.0234
  244POPC   C4B 2928   3.571  16.174   6.576 -0.1313 -0.0452  0.0432
  245POPC   NC3 2929   3.310   2.038   9.379  0.0215  0.2766  0.0575
  245POPC   PO4 2930   3.623   2.305   9.412 -0.1368  0.2580 -0.2608
  245POPC   GL1 2931   3.559   2.259   9.056 -0.3522  0.1739 -0.1245
  245POPC   GL2 2932   3.803   2.211   8.945 -0.0937 -0.0177 -0.0398
  245POPC   C1A 2933   3.523   2.649   8.814 -0.1156  0.1574  0.0010
  245POPC   D2A 2934   3.254   2.744   8.469 -0.0172 -0.2192  0.1528
  245POPC   C3A 2935   3.509   2.573   8.073  0.0811  0.2109 -0.1634
  245POPC   C4A 2936   3.738   2.886   7.856  0.2788 -0.1072 -0.0895
  245POPC   C1B 2937   3.852   2.360   8.553 -0.0920 -0.2026  0.1006
  245POPC   C2B 2938   4.065   2.590   8.192  0.1368  0.5252  0.0122
  245POPC   C3B 2939   4.245   2.765   7.782  0.0553  0.1371  0.0319
  245POPC   C4B 2940   4.492   3.042   7.494  0.1385  0.1813 -0.0381
  246POPC   NC3 2941   5.148   3.839  10.180 -0.2250  0.1065 -0.2572
  246POPC   PO4 2942   5.491   3.891  10.388  0.0922 -0.0285  0.1440
  246POPC   GL1 2943   5.471   4.119  10.110 -0.2143  0.0548 -0.2015
  246POPC   GL2 2944   5.486   4.428  10.164  0.0930  0.0932 -0.1323
  246POPC   C1A 2945   5.662   4.109   9.696  0.1957  0.1402 -0.0420
  246POPC   D2A 2946   6.046   4.109   9.449 -0.0402 -0.1041 -0.1067
  246POPC   C3A 2947   6.122   4.255   8.986 -0.0603  0.0621  0.0910
  246POPC   C4A 2948   6.161   4.559   8.670  0.2678 -0.2003 -0.2176
  246POPC   C1B 2949   5.889   4.386  10.076 -0.0852 -0.0552  0.1749
  246POPC   C2B 2950   6.294   4.361   9.989 -0.4070 -0.0625 -0.0050
  246POPC   C3B 2951   6.703   4.402   9.880 -0.2057  0.1964  0.2985
  246POPC   C4B 2952   7.027   4.173   9.644  0.2628 -0.0797  0.1600
  247POPC   NC3 2953  16.052  12.973   8.817 -0.1323 -0.0541  0.0682
  247POPC   PO4 2954  15.778  12.904   8.573  0.1054  0.0004 -0.2670
  247POPC   GL1 2955  15.702  13.045   8.140 -0.0371 -0.0712  0.1274
  247POPC   GL2 2956  15.778  13.315   8.034 -0.3828  0.1927 -0.4168
  247POPC   C1A 2957  15.247  13.025   7.923 -0.2431 -0.1744  0.1834
  247POPC   D2A 2958  14.921  12.967   7.531 -0.0964  0.0687 -0.2312
  247POPC   C3A 2959  14.813  12.513   7.410 -0.4466 -0.0582 -0.2735
  247POPC   C4A 2960  14.512  12.343   7.166 -0.2897 -0.2330 -0.0103
  247POPC   C1B 2961  15.716  13.129   7.630  0.2457 -0.0768  0.1869
  247POPC   C2B 2962  15.401  12.813   7.489  0.1815  0.1236  0.0121
  247POPC   C3B 2963  15.154  12.730   7.134  0.1349 -0.1667 -0.1050
  247POPC   C4B 2964  14.898  12.835   6.710  0.0055  0.4740  0.0880
  248POPC   NC3 2965   4.354   3.196  14.372 -0.2973 -0.1719 -0.1422
  248POPC   PO4 2966   4.109   3.335  14.093  0.0901  0.1964  0.1957
  248POPC   GL1 2967   4.516   3.605  14.098  0.0920 -0.3948  0.1864
  248POPC   GL2 2968   4.526   3.892  14.139 -0.1480 -0.0644  0.1115
  248POPC   C1A 2969   4.919   3.455  14.244  0.0227 -0.1326 -0.3163
  248POPC   D2A 2970   5.358   3.262  14.419 -0.2523 -0.0356 -0.1178
  248POPC   C3A 2971   5.653   3.521  14.668  0.1202  0.0737 -0.0428
  248POPC   C4A 2972   5.980   3.858  14.822  0.0453 -0.1929  0.2635
  248POPC   C1B 2973   4.870   4.062  14.414 -0.1519  0.0395 -0.0001
  248POPC   C2B 2974   5.164   4.251  14.704 -0.1671  0.0961 -0.1257
  248POPC   C3B 2975   5.382   4.400  15.053 -0.1092  0.1341 -0.2792
  248POPC   C4B 2976   5.612   4.576  15.413 -0.1809  0.0980  0.2862
  249POPC   NC3 2977   5.380   1.836   9.593 -0.0175 -0.1643 -0.1083
  249POPC   PO4 2978   5.119   1.643   9.453  0.1002  0.3112 -0.1171
  249POPC   GL1 2979   5.167   1.858   9.080  0.3229  0.1320 -0.0775
  249POPC   GL2 2980   5.394   1.724   8.952  0.1059  0.1708 -0.2136
  249POPC   C1A 2981   5.139   2.201   8.795  0.0806 -0.2135  0.1158
  249POPC   D2A 2982   5.394   2.316   8.397  0.2497 -0.3718 -0.0063
  249POPC   C3A 2983   5.303   2.475   7.987 -0.0096  0.0497  0.0859
  249POPC   C4A 2984   5.206   2.476   7.556  0.0699  0.1026 -0.0805
  249POPC   C1B 2985   5.573   1.809   8.534 -0.3511  0.2559 -0.3535
  249POPC   C2B 2986   5.773   1.800   8.087  0.1874 -0.2115 -0.1063
  249POPC   C3B 2987   5.717   1.744   7.641  0.0209  0.2614  0.3168
  249POPC   C4B 2988   5.529   1.792   7.190  0.1184 -0.0804 -0.2204
  250POPC   NC3 2989   2.590  10.614   8.471  0.1050 -0.0434  0.2696
  250POPC   PO4 2990   2.220  10.595   8.516  0.1428 -0.1760  0.1265
  250POPC   GL1 2991   2.345  10.257   8.486 -0.0328 -0.2776  0.0341
  250POPC   GL2 2992   2.048  10.166   8.337 -0.3870 -0.2792  0.0194
  250POPC   C1A 2993   2.546  10.023   8.162 -0.0536 -0.1917 -0.1185
  250POPC   D2A 2994   2.553   9.861   7.728  0.1659 -0.0653  0.1662
  250POPC   C3A 2995   2.479   9.769   7.302 -0.0620 -0.0739 -0.2375
  250POPC   C4A 2996   2.460   9.506   6.913 -0.2324  0.0464  0.0554
  250POPC   C1B 2997   2.042   9.956   7.943  0.0045  0.0157 -0.2770
  250POPC   C2B 2998   2.052   9.718   7.542 -0.0187 -0.1779  0.1958
  250POPC   C3B 2999   2.014   9.406   7.211 -0.2118  0.0624  0.0680
  250POPC   C4B 3000   1.655   9.193   7.059 -0.3836 -0.2675  0.0173
  251POPC   NC3 3001   3.420   4.844   9.592 -0.2930  0.0095  0.1399
  251POPC   PO4 3002   3.422   5.170   9.378 -0.3560 -0.2886  0.2936
  251POPC   GL1 3003   3.578   5.271   9.020 -0.1999 -0.1277 -0.3522
  251POPC   GL2 3004   3.448   5.048   8.838 -0.0234 -0.3884 -0.2229
  251POPC   C1A 3005   3.856   5.466   8.730  0.2757  0.1020 -0.2648
  251POPC   D2A 3006   4.157   5.518   8.389 -0.1114 -0.1110  0.2756
  251POPC   C3A 3007   4.299   5.872   8.179  0.1206 -0.0003 -0.0508
  251POPC   C4A 3008   4.432   6.005   7.754  0.1263  0.1673  0.2102
  251POPC   C1B 3009   3.330   5.060   8.372  0.1255  0.2183  0.0160
  251POPC   C2B 3010   3.320   5.231   7.914 -0.0140 -0.1381  0.0652
  251POPC   C3B 3011   3.363   5.023   7.436 -0.0530 -0.0830 -0.1311
  251POPC   C4B 3012   3.399   4.794   7.039 -0.0883  0.2511 -0.1414
  252POPC   NC3 3013  15.257  32.037   8.878 -0.0994 -0.0859  0.1398
  252POPC   PO4 3014  14.932  31.990   8.692  0.2501 -0.1105  0.1689
  252POPC   GL1 3015  14.837  32.169   8.323 -0.0400  0.0808  0.0653
  252POPC   GL2 3016  14.808  32.405   8.252  0.2004  0.1844 -0.1021
  252POPC   C1A 3017  14.909  31.996   7.885  0.0513 -0.1012  0.0297
  252POPC   D2A 3018  14.712  31.898   7.489 -0.1559 -0.2851  0.1181
  252POPC   C3A 3019  14.831  32.250   7.249 -0.1261  0.1419  0.0252
  252POPC   C4A 3020  14.678  32.301   6.814  0.0911 -0.1627 -0.2622
  252POPC   C1B 3021  14.711  32.457   7.834 -0.1602  0.3046 -0.1895
  252POPC   C2B 3022  14.575  32.627   7.456  0.5222 -0.1523  0.2668
  252POPC   C3B 3023  14.632  32.904   7.101 -0.1125  0.2252  0.0540
  252POPC   C4B 3024  14.760  33.029   6.664 -0.0560  0.1144 -0.0315
  253POPC   NC3 3025   8.585  14.842   9.055  0.4226 -0.1132  0.0364
  253POPC   PO4 3026   8.939  14.827   9.127 -0.2156  0.4434 -0.0671
  253POPC   GL1 3027   8.857  14.643   8.737  0.3597  0.1051  0.4313
  253POPC   GL2 3028   8.698  14.813   8.530  0.2497  0.1403 -0.1912
  253POPC   C1A 3029   8.915  14.339   8.355  0.2882  0.0115  0.1606
  253POPC   D2A 3030   8.907  14.153   7.875 -0.0433  0.3955  0.0035
  253POPC   C3A 3031   8.804  14.499   7.620  0.2250  0.0438  0.1393
  253POPC   C4A 3032   8.902  14.895   7.331  0.0822  0.0053  0.2019
  253POPC   C1B 3033   9.060  14.802   8.237  0.2330 -0.1940 -0.0602
  253POPC   C2B 3034   9.166  14.907   7.765  0.1606 -0.1894  0.0709
  253POPC   C3B 3035   9.299  15.166   7.382 -0.2247 -0.0579  0.2705
  253POPC   C4B 3036   9.462  15.475   7.123  0.3760 -0.1201  0.0558
  254POPC   NC3 3037   5.151   7.050  13.066 -0.0294 -0.1881  0.2819
  254POPC   PO4 3038   5.025   7.380  12.894 -0.0515  0.2245  0.0279
  254POPC   GL1 3039   5.523   7.518  13.022  0.0811 -0.0801 -0.2551
  254POPC   GL2 3040   5.663   7.296  12.939 -0.2145  0.3041  0.0209
  254POPC   C1A 3041   5.747   7.462  13.426 -0.0789  0.3170 -0.3078
  254POPC   D2A 3042   6.113   7.321  13.578 -0.1440 -0.3138  0.1178
  254POPC   C3A 3043   6.182   6.887  13.514 -0.2582  0.1370  0.3743
  254POPC   C4A 3044   6.442   6.564  13.775  0.1457 -0.1042  0.1537
  254POPC   C1B 3045   6.096   7.137  13.138  0.0320 -0.1339  0.2237
  254POPC   C2B 3046   6.543   7.229  12.994 -0.2852  0.0373 -0.0358
  254POPC   C3B 3047   6.974   7.412  13.036 -0.0310 -0.0986  0.4159
  254POPC   C4B 3048   7.287   7.375  13.339  0.2110 -0.0408 -0.1005
  255POPC   NC3 3049   3.759  13.180   8.022 -0.0361  0.0328  0.2000
  255POPC   PO4 3050   3.581  13.492   7.912  0.2158 -0.0406  0.1726
  255POPC   GL1 3051   3.788  13.542   7.579 -0.2127  0.1593  0.2252
  255POPC   GL2 3052   3.660  13.344   7.364 -0.2286  0.1060  0.0754
  255POPC   C1A 3053   3.609  13.811   7.227 -0.0234  0.2499  0.0567
  255POPC   D2A 3054   3.588  14.249   7.265 -0.2922  0.0044 -0.0248
  255POPC   C3A 3055   3.411  14.447   6.915 -0.3021 -0.0276  0.0269
  255POPC   C4A 3056   3.496  14.421   6.473  0.0408 -0.0848  0.1144
  255POPC   C1B 3057   3.961  13.243   7.024  0.1400  0.0194  0.1263
  255POPC   C2B 3058   4.197  13.324   6.641 -0.2975  0.0518 -0.1463
  255POPC   C3B 3059   4.260  13.668   6.433  0.1844  0.1831 -0.0368
  255POPC   C4B 3060   3.983  14.042   6.338 -0.2776 -0.0924 -0.1321
  256POPC   NC3 3061   4.265  11.277   8.824 -0.1909 -0.0076  0.0579
  256POPC   PO4 3062   4.618  11.169   8.675  0.1071  0.2784  0.1621
  256POPC   GL1 3063   4.867  11.277   8.566  0.2865  0.0614  0.1128
  256POPC   GL2 3064   4.839  11.141   8.249  0.0911  0.2410  0.1039
  256POPC   C1A 3065   5.253  11.370   8.344  0.0536  0.0342  0.3657
  256POPC   D2A 3066   5.536  11.298   8.005 -0.1852 -0.1332 -0.1824
  256POPC   C3A 3067   5.882  11.037   7.856  0.3429 -0.1841 -0.0329
  256POPC   C4A 3068   6.132  10.627   7.768  0.3017 -0.0618 -0.0115
  256POPC   C1B 3069   5.026  11.194   7.813 -0.1977  0.4677 -0.1030
  256POPC   C2B 3070   5.081  11.182   7.345  0.1463  0.2760  0.1078
  256POPC   C3B 3071   4.955  11.270   6.881  0.2902 -0.0515  0.1089
  256POPC   C4B 3072   4.975  11.162   6.427 -0.0560 -0.1363  0.3195
  257POPC   NC3 3073  15.004   3.303   9.359 -0.0635 -0.0261  0.0249
  257POPC   PO4 3074  15.292   3.151   9.537  0.0843 -0.0351 -0.2354
  257POPC   GL1 3075  15.297   3.012   9.137  0.3769 -0.2424 -0.0435
  257POPC   GL2 3076  15.016   2.906   9.082 -0.1523  0.0120 -0.0806
  257POPC   C1A 3077  15.099   3.347   8.856 -0.1262 -0.1211 -0.1119
  257POPC   D2A 3078  14.745   3.344   8.591  0.0299 -0.0018 -0.2368
  257POPC   C3A 3079  14.774   3.134   8.204  0.0213 -0.1005  0.1273
  257POPC   C4A 3080  14.764   3.207   7.763  0.0635  0.0450 -0.2482
  257POPC   C1B 3081  15.164   2.886   8.634  0.1138  0.2540  0.0287
  257POPC   C2B 3082  14.968   2.667   8.279 -0.0451  0.1333 -0.0870
  257POPC   C3B 3083  14.540   2.696   8.139  0.0521  0.0844  0.1885
  257POPC   C4B 3084  14.206   2.462   8.038  0.0250 -0.1179 -0.2412
  258POPC   NC3 3085  10.186   1.255  12.152 -0.0893 -0.0183 -0.2680
  258POPC   PO4 3086   9.844   1.111  12.027 -0.3195  0.2786  0.2460
  258POPC   GL1 3087   9.841   1.482  12.100 -0.2103  0.2403 -0.0919
  258POPC   GL2 3088   9.656   1.663  12.175  0.3843  0.2728  0.0261
  258POPC   C1A 3089  10.191   1.778  12.193 -0.1518  0.1112 -0.2622
  258POPC   D2A 3090  10.136   2.171  12.412  0.2830 -0.2834 -0.2551
  258POPC   C3A 3091  10.434   2.416  12.195  0.1348 -0.0786  0.1946
  258POPC   C4A 3092  10.819   2.609  12.028 -0.0076 -0.0377  0.1280
  258POPC   C1B 3093   9.566   2.057  12.394  0.1093 -0.3167 -0.3414
  258POPC   C2B 3094   9.790   2.513  12.473 -0.0975 -0.0981  0.1466
  258POPC   C3B 3095  10.214   2.692  12.539  0.0609  0.1841  0.1016
  258POPC   C4B 3096  10.580   2.880  12.337 -0.2095  0.1416  0.2585
  259POPC   NC3 3097   8.233  16.101   9.519  0.2296 -0.0656 -0.0751
  259POPC   PO4 3098   8.271  15.936   9.176  0.0348  0.0432 -0.1378
  259POPC   GL1 3099   7.995  15.931   8.862 -0.3108  0.0457  0.3262
  259POPC   GL2 3100   8.262  15.918   8.673  0.2922  0.1596 -0.2859
  259POPC   C1A 3101   7.958  16.268   8.547  0.1431 -0.1843  0.0919
  259POPC   D2A 3102   7.956  16.514   8.185 -0.1159 -0.0517  0.2066
  259POPC   C3A 3103   7.884  16.501   7.706 -0.4014  0.1017 -0.1152
  259POPC   C4A 3104   7.671  16.468   7.344  0.0661  0.0079 -0.3667
  259POPC   C1B 3105   8.167  15.917   8.184  0.0643 -0.1032 -0.0379
  259POPC   C2B 3106   7.996  15.842   7.762  0.3442  0.0696 -0.4260
  259POPC   C3B 3107   7.845  15.967   7.320 -0.2466  0.0684 -0.2717
  259POPC   C4B 3108   8.055  16.163   6.953  0.3208  0.2812 -0.0029
  260POPC   NC3 3109   1.619   0.752   7.977 -0.0785  0.2726 -0.1545
  260POPC   PO4 3110   1.440   0.937   8.284  0.0947 -0.0556  0.1466
  260POPC   GL1 3111   1.636   1.214   7.997  0.0823 -0.1034 -0.2377
  260POPC   GL2 3112   1.921   1.269   8.183 -0.2853 -0.0109 -0.0047
  260POPC   C1A 3113   1.715   1.393   7.579  0.1402 -0.2261  0.0257
  260POPC   D2A 3114   1.618   1.541   7.176  0.4466  0.2463  0.0063
  260POPC   C3A 3115   1.935   1.547   6.832  0.0331  0.1508  0.3073
  260POPC   C4A 3116   2.268   1.586   6.533  0.0231  0.0349  0.1388
  260POPC   C1B 3117   2.208   1.464   7.925 -0.2623  0.1446  0.2900
  260POPC   C2B 3118   2.497   1.626   7.639 -0.0242 -0.0759 -0.1386
  260POPC   C3B 3119   2.716   1.862   7.306 -0.0246  0.0757  0.1499
  260POPC   C4B 3120   2.830   2.090   6.942  0.1618  0.0605  0.1241
  261POPC   NC3 3121  14.336   5.705  14.599 -0.0196  0.2843  0.2137
  261POPC   PO4 3122  14.467   6.017  14.703  0.0243  0.1334  0.0100
  261POPC   GL1 3123  14.387   5.924  15.036 -0.1589  0.3528 -0.2042
  261POPC   GL2 3124  14.503   6.086  15.191 -0.0716 -0.3293 -0.1223
  261POPC   C1A 3125  14.090   5.577  15.130 -0.0226  0.0905 -0.2640
  261POPC   D2A 3126  14.017   5.389  15.536  0.1002  0.3101 -0.4520
  261POPC   C3A 3127  13.700   5.064  15.517  0.0452 -0.2221 -0.2412
  261POPC   C4A 3128  13.428   4.663  15.638 -0.2430  0.1152  0.3788
  261POPC   C1B 3129  14.016   6.098  15.218  0.3337 -0.0931  0.0626
  261POPC   C2B 3130  13.714   5.907  15.488 -0.0957 -0.0062  0.1917
  261POPC   C3B 3131  13.384   5.831  15.804 -0.2497  0.1011  0.1398
  261POPC   C4B 3132  13.263   6.166  16.134 -0.1267 -0.1402  0.1838
  262POPC   NC3 3133  11.349  14.643  16.435 -0.2087 -0.0184  0.0663
  262POPC   PO4 3134  11.105  14.784  16.193 -0.3688  0.0349  0.1384
  262POPC   GL1 3135  11.232  15.076  16.417 -0.3068  0.6185  0.1869
  262POPC   GL2 3136  11.399  15.349  16.362 -0.1001 -0.0995 -0.0773
  262POPC   C1A 3137  11.316  15.026  16.897  0.2520 -0.0893 -0.1908
  262POPC   D2A 3138  11.446  15.200  17.311  0.0726  0.0926  0.0557
  262POPC   C3A 3139  11.228  15.505  17.616  0.2897  0.0433  0.2682
  262POPC   C4A 3140  11.337  15.937  17.756  0.0562  0.0962  0.1874
  262POPC   C1B 3141  11.394  15.659  16.763 -0.1274  0.0676  0.1248
  262POPC   C2B 3142  11.466  15.753  17.202 -0.0380  0.0141 -0.0778
  262POPC   C3B 3143  11.733  16.032  17.398 -0.0680 -0.1283 -0.1015
  262POPC   C4B 3144  12.020  16.360  17.222 -0.0806  0.1043  0.2058
  263POPC   NC3 3145  14.524   5.217  13.310  0.0562  0.0783 -0.0404
  263POPC   PO4 3146  14.132   5.262  13.388  0.0237 -0.1068  0.2019
  263POPC   GL1 3147  13.964   5.044  13.692 -0.0166 -0.2274  0.2021
  263POPC   GL2 3148  13.666   4.925  13.642 -0.0600  0.0103  0.1891
  263POPC   C1A 3149  13.622   5.143  14.034 -0.0145  0.1828  0.0298
  263POPC   D2A 3150  13.274   4.981  14.297 -0.1214 -0.0593  0.1139
  263POPC   C3A 3151  12.865   5.087  14.191 -0.4898  0.2040 -0.0143
  263POPC   C4A 3152  12.569   4.989  13.858 -0.2507 -0.0575  0.2020
  263POPC   C1B 3153  13.250   5.123  13.643 -0.0537 -0.0954  0.3636
  263POPC   C2B 3154  12.894   5.428  13.794  0.1827  0.2651  0.2288
  263POPC   C3B 3155  12.498   5.502  13.930  0.0625  0.1325  0.0095
  263POPC   C4B 3156  12.142   5.359  14.218  0.1145  0.3887  0.0389
  264POPC   NC3 3157   5.375   1.668  13.985 -0.1579 -0.1241 -0.4999
  264POPC   PO4 3158   5.558   1.770  14.313  0.2302  0.0519 -0.1035
  264POPC   GL1 3159   5.722   2.017  14.486  0.2800  0.3781 -0.3533
  264POPC   GL2 3160   5.734   1.942  14.763 -0.0312 -0.0652 -0.0403
  264POPC   C1A 3161   5.572   2.475  14.460  0.2005 -0.0530 -0.0840
  264POPC   D2A 3162   5.710   2.913  14.554  0.0278 -0.3127 -0.0303
  264POPC   C3A 3163   5.944   3.278  14.340  0.3801  0.0627  0.3360
  264POPC   C4A 3164   6.328   3.461  14.129  0.1588  0.0176 -0.1107
  264POPC   C1B 3165   5.930   2.344  14.890 -0.2080 -0.0008 -0.0859
  264POPC   C2B 3166   6.155   2.653  15.050  0.1038 -0.1157  0.3616
  264POPC   C3B 3167   6.178   2.901  15.437 -0.0645  0.1205 -0.0970
  264POPC   C4B 3168   5.838   3.106  15.645 -0.0123 -0.1090  0.0233
  265POPC   NC3 3169   8.782  16.168   9.047  0.1393 -0.1943  0.1856
  265POPC   PO4 3170   8.711  16.346   9.376 -0.2096  0.1481 -0.0041
  265POPC   GL1 3171   8.835  16.589   9.179  0.4696 -0.2116 -0.0556
  265POPC   GL2 3172   8.931  16.798   9.461  0.0207  0.2005 -0.0339
  265POPC   C1A 3173   8.912  16.560   8.703  0.0061 -0.0423  0.0812
  265POPC   D2A 3174   8.931  16.692   8.289  0.4445 -0.0865  0.1954
  265POPC   C3A 3175   8.822  16.448   7.899 -0.0678  0.0039 -0.0304
  265POPC   C4A 3176   9.124  16.276   7.553  0.2465  0.1513 -0.2729
  265POPC   C1B 3177   8.703  16.999   9.099  0.1577  0.0115 -0.0074
  265POPC   C2B 3178   8.497  16.846   8.688 -0.2550  0.2063  0.0944
  265POPC   C3B 3179   8.397  16.767   8.275  0.2544  0.0136  0.0321
  265POPC   C4B 3180   8.172  16.897   7.901  0.1641  0.0322  0.0902
  266POPC   NC3 3181  16.293   8.496   9.335 -0.5025 -0.0924  0.2112
  266POPC   PO4 3182  16.249   8.886   9.247  0.1633  0.0224 -0.0268
  266POPC   GL1 3183  16.013   8.611   9.011 -0.0147 -0.1287  0.1131
  266POPC   GL2 3184  15.831   8.815   8.904  0.2178 -0.1774  0.0895
  266POPC   C1A 3185  15.797   8.360   8.678 -0.2948 -0.3520  0.1271
  266POPC   D2A 3186  15.553   8.285   8.306 -0.1777 -0.0974  0.0353
  266POPC   C3A 3187  15.462   8.085   7.892 -0.1738 -0.1376 -0.1777
  266POPC   C4A 3188  15.197   8.157   7.514  0.0690 -0.3073  0.1137
  266POPC   C1B 3189  15.425   8.581   9.092  0.1141  0.2034  0.0406
  266POPC   C2B 3190  15.043   8.309   9.080 -0.2303  0.1149 -0.0364
  266POPC   C3B 3191  14.784   8.289   8.726 -0.0339 -0.0973 -0.1469
  266POPC   C4B 3192  14.555   8.327   8.311 -0.2318 -0.2519 -0.0212
  267POPC   NC3 3193   9.631   0.093   9.688  0.0201 -0.0527  0.1830
  267POPC   PO4 3194   9.929   0.126   9.910  0.1555 -0.0523  0.2902
  267POPC   GL1 3195  10.248   0.379   9.796 -0.4448 -0.1738  0.0483
  267POPC   GL2 3196  10.090   0.641   9.817  0.0058  0.2021  0.0643
  267POPC   C1A 3197  10.551   0.602   9.518  0.2301 -0.0005 -0.1743
  267POPC   D2A 3198  10.570   0.630   9.072  0.0249 -0.2816 -0.1550
  267POPC   C3A 3199  10.602   0.978   8.819 -0.1835  0.0280 -0.3595
  267POPC   C4A 3200  10.532   1.288   8.457 -0.1049  0.0778  0.3599
  267POPC   C1B 3201   9.944   1.059   9.702  0.0093 -0.0799 -0.2441
  267POPC   C2B 3202   9.745   1.401   9.427  0.1800  0.1035 -0.1515
  267POPC   C3B 3203   9.773   1.800   9.268 -0.2723  0.0762 -0.0043
  267POPC   C4B 3204   9.912   1.922   8.834  0.0603 -0.1473  0.0172
  268POPC   NC3 3205  13.482   1.632  14.402 -0.3689 -0.0033  0.0755
  268POPC   PO4 3206  13.509   1.236  14.480  0.0900 -0.0718  0.0334
  268POPC   GL1 3207  13.296   1.482  14.751  0.5086 -0.1338 -0.1463
  268POPC   GL2 3208  13.416   1.375  14.940 -0.4484 -0.1022 -0.2203
  268POPC   C1A 3209  13.068   1.778  15.067  0.0193  0.2258 -0.0550
  268POPC   D2A 3210  12.698   2.108  15.208 -0.0394  0.2423  0.0052
  268POPC   C3A 3211  12.366   1.994  15.481  0.0057  0.2323 -0.1050
  268POPC   C4A 3212  12.065   1.945  15.834  0.0190 -0.2032 -0.0702
  268POPC   C1B 3213  13.212   1.374  15.373  0.0571  0.0717 -0.2163
  268POPC   C2B 3214  12.804   1.570  15.467 -0.0507  0.3179 -0.2530
  268POPC   C3B 3215  12.521   1.583  15.166 -0.0962 -0.0281 -0.3035
  268POPC   C4B 3216  12.340   1.440  14.797  0.1715  0.0551 -0.0509
  269POPC   NC3 3217   7.544  16.325   8.984  0.0116  0.0587 -0.1056
  269POPC   PO4 3218   7.771  16.137   9.239 -0.0624 -0.1963  0.0771
  269POPC   GL1 3219   8.019  16.415   8.997 -0.0003 -0.4195 -0.2294
  269POPC   GL2 3220   8.350  16.487   9.071  0.2991 -0.1194  0.0637
  269POPC   C1A 3221   7.946  16.796   8.667  0.3812  0.2916  0.0605
  269POPC   D2A 3222   7.925  17.120   8.302  0.0221 -0.0098  0.1050
  269POPC   C3A 3223   8.365  17.247   8.185  0.0500  0.1757 -0.3080
  269POPC   C4A 3224   8.586  17.637   8.257 -0.1011  0.2892 -0.2202
  269POPC   C1B 3225   8.409  16.361   8.669 -0.0001 -0.1020 -0.1752
  269POPC   C2B 3226   8.540  16.273   8.279 -0.4119 -0.0979 -0.3178
  269POPC   C3B 3227   8.362  16.365   7.862  0.1246  0.0867  0.1522
  269POPC   C4B 3228   8.321  16.389   7.410 -0.3838  0.0403 -0.1930
  270POPC   NC3 3229   0.281  15.343   8.264 -0.0542  0.1105 -0.1666
  270POPC   PO4 3230   0.315  14.947   8.299  0.2343 -0.2130 -0.0117
  270POPC   GL1 3231   0.267  14.772   8.004 -0.5204 -0.0591 -0.0025
  270POPC   GL2 3232   0.527  14.926   7.853 -0.0467 -0.1135 -0.0515
  270POPC   C1A 3233   0.171  14.716   7.525  0.2052 -0.0105 -0.2133
  270POPC   D2A 3234   0.139  14.615   7.125 -0.1056  0.2440 -0.0959
  270POPC   C3A 3235   0.340  14.979   6.948 -0.3557  0.0821 -0.1485
  270POPC   C4A 3236   0.738  15.139   6.720 -0.1693 -0.1777  0.0996
  270POPC   C1B 3237   0.642  14.905   7.395  0.0166 -0.0876  0.0537
  270POPC   C2B 3238   0.933  14.864   7.061  0.0160  0.0548  0.3696
  270POPC   C3B 3239   1.034  14.627   6.630 -0.0905  0.1330 -0.0005
  270POPC   C4B 3240   1.279  14.309   6.362 -0.1798 -0.2212 -0.0869
  271POPC   NC3 3241   3.139   7.998   9.480 -0.3881 -0.0624 -0.3400
  271POPC   PO4 3242   3.300   8.332   9.407  0.1250 -0.4035 -0.2980
  271POPC   GL1 3243   3.522   8.261   9.036 -0.1624 -0.4695  0.1349
  271POPC   GL2 3244   3.292   8.026   8.968  0.0976  0.1097 -0.0257
  271POPC   C1A 3245   3.880   8.083   8.764  0.1034  0.1484  0.1264
  271POPC   D2A 3246   4.212   7.842   8.615  0.2247  0.1161  0.2235
  271POPC   C3A 3247   4.524   7.728   8.244 -0.0579 -0.1835  0.3575
  271POPC   C4A 3248   4.548   7.417   7.862 -0.1235 -0.0294  0.2316
  271POPC   C1B 3249   3.470   7.876   8.586 -0.2044  0.0025  0.2115
  271POPC   C2B 3250   3.817   7.834   8.247  0.1824 -0.1311 -0.0752
  271POPC   C3B 3251   4.065   7.573   7.922  0.1178 -0.2641 -0.0885
  271POPC   C4B 3252   4.134   7.130   7.795  0.0042 -0.1684  0.0421
  272POPC   NC3 3253  16.691   1.826   9.083  0.1208 -0.2811  0.1615
  272POPC   PO4 3254  16.756   1.752   8.716  0.0048  0.3749 -0.0022
  272POPC   GL1 3255  16.546   1.879   8.403 -0.2374 -0.3091 -0.2529
  272POPC   GL2 3256  16.612   2.181   8.295  0.0516  0.0348 -0.1960
  272POPC   C1A 3257  16.435   1.743   8.017  0.0265 -0.0376  0.0933
  272POPC   D2A 3258  16.078   1.837   7.735  0.0489 -0.0292 -0.1907
  272POPC   C3A 3259  16.088   1.828   7.256  0.1675  0.0334 -0.0974
  272POPC   C4A 3260  15.967   2.015   6.864 -0.1197  0.3187 -0.0191
  272POPC   C1B 3261  16.437   2.215   7.907  0.2486  0.1121 -0.2035
  272POPC   C2B 3262  16.109   2.284   7.548  0.2168 -0.1810 -0.1365
  272POPC   C3B 3263  15.941   2.391   7.116  0.0344  0.2432  0.0138
  272POPC   C4B 3264  15.669   2.361   6.706  0.0183  0.0570  0.1456
  273POPC   NC3 3265   7.605  12.078   9.510 -0.0943  0.0695 -0.1700
  273POPC   PO4 3266   7.936  12.284   9.589  0.0407  0.3658 -0.1567
  273POPC   GL1 3267   8.211  12.188   9.261 -0.1948  0.1068  0.1891
  273POPC   GL2 3268   7.978  12.131   9.063 -0.3428  0.2614 -0.1081
  273POPC   C1A 3269   8.386  11.851   8.917  0.3676  0.0664 -0.3150
  273POPC   D2A 3270   8.298  11.394   8.874  0.1351  0.1125 -0.2513
  273POPC   C3A 3271   8.372  11.343   8.423  0.0420  0.1347  0.1288
  273POPC   C4A 3272   8.345  11.408   7.945 -0.1340 -0.0890 -0.0381
  273POPC   C1B 3273   7.837  11.750   8.888  0.2200 -0.0922 -0.0337
  273POPC   C2B 3274   7.788  11.509   8.480 -0.1489 -0.2955 -0.0152
  273POPC   C3B 3275   7.622  11.152   8.298  0.3580  0.3343 -0.0934
  273POPC   C4B 3276   7.461  10.786   8.086  0.0085  0.0423 -0.0611
  274POPC   NC3 3277  10.249  16.120  15.314  0.0936  0.0102  0.0512
  274POPC   PO4 3278  10.619  16.071  15.494  0.2421  0.5301  0.0365
  274POPC   GL1 3279  10.460  16.274  15.756 -0.1462  0.1873  0.1072
  274POPC   GL2 3280  10.646  16.102  15.992 -0.2991 -0.0521  0.0310
  274POPC   C1A 3281  10.569  16.512  16.141  0.0290 -0.0259 -0.2212
  274POPC   D2A 3282  10.647  16.626  16.606  0.1449 -0.0037  0.5071
  274POPC   C3A 3283  10.403  16.615  17.034  0.1142 -0.0767  0.0390
  274POPC   C4A 3284  10.269  16.340  17.404  0.0299  0.0862 -0.1419
  274POPC   C1B 3285  10.684  16.074  16.463 -0.1625 -0.2571  0.0401
  274POPC   C2B 3286  10.451  16.173  16.820  0.0591 -0.5443  0.1620
  274POPC   C3B 3287  10.192  15.993  17.094 -0.1919  0.2471  0.0964
  274POPC   C4B 3288   9.833  15.665  17.106 -0.0839  0.2359  0.2026
  275POPC   NC3 3289   0.863  14.955   8.237  0.2396  0.1950 -0.1436
  275POPC   PO4 3290   0.781  15.346   8.239 -0.0445 -0.0237 -0.2058
  275POPC   GL1 3291   1.038  15.286   7.927  0.3972  0.0452  0.0909
  275POPC   GL2 3292   1.003  15.523   7.820  0.1063  0.0524  0.1932
  275POPC   C1A 3293   1.039  14.886   7.761  0.0681  0.2244  0.0015
  275POPC   D2A 3294   1.012  14.535   7.496 -0.0540 -0.0561  0.0718
  275POPC   C3A 3295   1.139  14.438   7.067  0.1408 -0.0102 -0.0094
  275POPC   C4A 3296   1.459  14.126   6.888  0.1274 -0.0062 -0.0554
  275POPC   C1B 3297   0.808  15.651   7.408  0.2404  0.2271  0.1719
  275POPC   C2B 3298   0.701  15.621   6.965  0.0119  0.0550 -0.0203
  275POPC   C3B 3299   0.515  15.852   6.633 -0.0188  0.1233  0.3683
  275POPC   C4B 3300   0.313  15.996   6.245  0.0793 -0.1043 -0.0535
  276POPC   NC3 3301   1.330  10.073   9.308  0.1951  0.1473 -0.1902
  276POPC   PO4 3302   1.095   9.766   9.215  0.0027 -0.1095 -0.2443
  276POPC   GL1 3303   1.357   9.758   8.885  0.1613 -0.2203 -0.1317
  276POPC   GL2 3304   1.409   9.475   8.793 -0.1551 -0.0603 -0.1480
  276POPC   C1A 3305   1.284   9.862   8.443  0.3229 -0.2848  0.1077
  276POPC   D2A 3306   1.316   9.734   8.002 -0.1880 -0.1559 -0.1698
  276POPC   C3A 3307   1.030   9.480   7.730  0.1268 -0.0955 -0.0573
  276POPC   C4A 3308   0.821   9.224   7.485 -0.0175  0.0422  0.0267
  276POPC   C1B 3309   1.269   9.348   8.342 -0.1861 -0.1403  0.0702
  276POPC   C2B 3310   1.409   9.222   7.947 -0.2668 -0.1480  0.1441
  276POPC   C3B 3311   1.329   9.057   7.527 -0.2190 -0.0601  0.1297
  276POPC   C4B 3312   1.160   9.294   7.172 -0.2352 -0.1704 -0.1290
  277POPC   NC3 3313   4.930  13.210   8.986 -0.1089  0.0786  0.0417
  277POPC   PO4 3314   4.937  12.878   8.737  0.0607 -0.0370  0.0912
  277POPC   GL1 3315   5.039  12.563   8.425 -0.0899  0.1917 -0.2170
  277POPC   GL2 3316   4.765  12.452   8.422 -0.0350  0.0019  0.0302
  277POPC   C1A 3317   5.314  12.588   8.007  0.1544 -0.0359  0.0887
  277POPC   D2A 3318   5.511  12.520   7.592  0.0399 -0.2611 -0.1322
  277POPC   C3A 3319   5.392  12.662   7.185  0.1271 -0.1868 -0.0590
  277POPC   C4A 3320   5.192  12.921   6.956 -0.1466 -0.0690  0.0751
  277POPC   C1B 3321   5.037  12.146   8.186 -0.1313  0.0586 -0.2544
  277POPC   C2B 3322   5.292  12.112   7.816  0.1440 -0.1037  0.0359
  277POPC   C3B 3323   5.495  12.067   7.381 -0.0424  0.2237 -0.1352
  277POPC   C4B 3324   5.485  12.236   6.964  0.2151  0.1495 -0.0168
  278POPC   NC3 3325  13.628  13.004   8.866  0.0230  0.1131 -0.1389
  278POPC   PO4 3326  13.856  13.260   8.624  0.0898  0.1049  0.0015
  278POPC   GL1 3327  13.566  13.108   8.377  0.0060 -0.1527  0.2125
  278POPC   GL2 3328  13.298  13.032   8.393  0.0037 -0.2607  0.1254
  278POPC   C1A 3329  13.512  12.915   8.003  0.2144  0.2242 -0.1547
  278POPC   D2A 3330  13.728  12.774   7.579 -0.2318  0.3076 -0.0070
  278POPC   C3A 3331  13.610  12.800   7.171 -0.1856 -0.1831  0.1786
  278POPC   C4A 3332  13.835  12.751   6.745  0.2017 -0.1708 -0.1905
  278POPC   C1B 3333  13.289  13.359   8.082  0.2929  0.0906 -0.0278
  278POPC   C2B 3334  13.353  13.626   7.680  0.2257  0.2267 -0.1049
  278POPC   C3B 3335  13.297  13.633   7.194 -0.2029 -0.1569  0.1480
  278POPC   C4B 3336  13.326  13.742   6.780 -0.2483 -0.1547  0.1735
  279POPC   NC3 3337   1.411  13.159   7.926  0.2014 -0.4726 -0.1878
  279POPC   PO4 3338   1.788  13.322   7.923  0.0544  0.1071 -0.1017
  279POPC   GL1 3339   1.795  13.539   7.592 -0.0697  0.1318 -0.3119
  279POPC   GL2 3340   1.638  13.257   7.413 -0.1450 -0.0637  0.2554
  279POPC   C1A 3341   2.067  13.564   7.205  0.1184 -0.2268 -0.3199
  279POPC   D2A 3342   2.340  13.627   6.779 -0.0534 -0.1637 -0.1408
  279POPC   C3A 3343   2.490  13.991   6.505 -0.0399 -0.2827  0.3281
  279POPC   C4A 3344   2.556  14.350   6.239  0.2122 -0.0470  0.1228
  279POPC   C1B 3345   1.689  13.379   6.995  0.1697 -0.1175  0.1566
  279POPC   C2B 3346   1.695  13.397   6.521 -0.0046 -0.0243  0.0475
  279POPC   C3B 3347   2.015  13.572   6.227 -0.3048  0.0108 -0.2196
  279POPC   C4B 3348   2.464  13.541   6.151 -0.2932 -0.0301  0.1828
  280POPC   NC3 3349   6.077   2.914  10.249 -0.0338  0.1285  0.2043
  280POPC   PO4 3350   6.003   2.596  10.032  0.0657 -0.2736  0.0168
  280POPC   GL1 3351   6.072   2.650   9.605 -0.1679 -0.1691 -0.0748
  280POPC   GL2 3352   5.893   2.650   9.403  0.1662  0.0301 -0.2489
  280POPC   C1A 3353   6.384   2.885   9.310  0.2326 -0.1960 -0.0351
  280POPC   D2A 3354   6.418   2.963   8.855  0.1999 -0.1605 -0.2000
  280POPC   C3A 3355   6.376   2.519   8.590 -0.3221 -0.0834 -0.2362
  280POPC   C4A 3356   6.493   2.196   8.260  0.0044  0.2069  0.2766
  280POPC   C1B 3357   6.093   2.599   8.995 -0.0605  0.2155  0.2673
  280POPC   C2B 3358   5.919   2.474   8.608  0.1452 -0.1657 -0.1612
  280POPC   C3B 3359   5.897   2.279   8.194 -0.1501  0.0803  0.3225
  280POPC   C4B 3360   5.635   2.205   7.809  0.3711 -0.2690  0.0152
  281POPC   NC3 3361   5.999   9.356  11.392 -0.0584  0.3729 -0.0151
  281POPC   PO4 3362   6.096   9.299  11.798  0.2482 -0.0009  0.0979
  281POPC   GL1 3363   6.341   9.053  11.872 -0.2142 -0.2825 -0.2342
  281POPC   GL2 3364   6.555   9.003  12.090  0.0065  0.3162 -0.2084
  281POPC   C1A 3365   6.402   8.567  11.845  0.0283 -0.2022 -0.1179
  281POPC   D2A 3366   6.454   8.115  11.881 -0.1689  0.2741  0.0056
  281POPC   C3A 3367   6.600   7.670  11.930 -0.0849 -0.0393 -0.0707
  281POPC   C4A 3368   7.008   7.482  11.881 -0.0778 -0.1359 -0.0609
  281POPC   C1B 3369   7.045   9.109  12.153  0.2745  0.2256  0.1500
  281POPC   C2B 3370   7.458   8.858  12.136  0.0982  0.1386  0.2467
  281POPC   C3B 3371   7.456   8.429  11.998 -0.0350  0.2775 -0.1858
  281POPC   C4B 3372   7.568   7.985  11.970  0.0719 -0.0179  0.0297
  282POPC   NC3 3373   1.140   9.294   9.164  0.1629 -0.0898 -0.0253
  282POPC   PO4 3374   1.025   8.886   9.237 -0.1076 -0.0540 -0.2057
  282POPC   GL1 3375   0.930   8.806   8.878 -0.1584 -0.1506  0.1359
  282POPC   GL2 3376   1.143   8.997   8.745 -0.0801 -0.0056 -0.1283
  282POPC   C1A 3377   1.001   8.455   8.582  0.1611  0.2239 -0.0505
  282POPC   D2A 3378   1.061   8.298   8.200 -0.0319 -0.1860 -0.3436
  282POPC   C3A 3379   0.886   8.213   7.837 -0.0567 -0.1288 -0.0607
  282POPC   C4A 3380   0.612   8.198   7.482 -0.0581 -0.1010 -0.3342
  282POPC   C1B 3381   1.345   8.793   8.317 -0.1479  0.0186  0.0942
  282POPC   C2B 3382   1.453   8.526   7.967 -0.0845  0.0437 -0.0755
  282POPC   C3B 3383   1.529   8.560   7.467 -0.2434 -0.3351 -0.4368
  282POPC   C4B 3384   1.193   8.690   7.172 -0.3158  0.0850  0.2940
  283POPC   NC3 3385   4.326   5.696  10.588 -0.0300 -0.2173 -0.0928
  283POPC   PO4 3386   4.256   5.855  10.258  0.1270 -0.0404  0.2076
  283POPC   GL1 3387   4.238   5.583   9.911  0.1499  0.1981 -0.2162
  283POPC   GL2 3388   4.129   5.839   9.765  0.1106  0.2003 -0.2534
  283POPC   C1A 3389   4.445   5.490   9.506  0.1404  0.1819  0.1838
  283POPC   D2A 3390   4.548   5.630   9.106  0.0967 -0.1561  0.3859
  283POPC   C3A 3391   4.966   5.716   8.936 -0.1246  0.1819 -0.0742
  283POPC   C4A 3392   5.450   5.671   8.910  0.0795  0.0045  0.1747
  283POPC   C1B 3393   4.239   5.957   9.306 -0.0789  0.2893 -0.0526
  283POPC   C2B 3394   4.235   5.946   8.831  0.2292  0.1370 -0.1361
  283POPC   C3B 3395   4.625   5.882   8.570 -0.2110 -0.2009  0.1361
  283POPC   C4B 3396   4.795   5.980   8.127 -0.0280  0.1832  0.0500
  284POPC   NC3 3397  13.904   2.844  10.157  0.2574  0.1751  0.1095
  284POPC   PO4 3398  14.207   2.743   9.903 -0.0931 -0.0841  0.3506
  284POPC   GL1 3399  13.976   2.941   9.689 -0.3538  0.0712  0.2247
  284POPC   GL2 3400  13.743   3.144   9.797 -0.1264 -0.0814  0.1166
  284POPC   C1A 3401  13.625   2.760   9.524 -0.0153 -0.1607 -0.1855
  284POPC   D2A 3402  13.163   2.838   9.563 -0.4193  0.1747  0.1073
  284POPC   C3A 3403  12.982   2.579   9.955 -0.1900  0.2769  0.1884
  284POPC   C4A 3404  12.813   2.471  10.384  0.1609  0.0788  0.1126
  284POPC   C1B 3405  13.589   3.313   9.400 -0.2778 -0.0788  0.0910
  284POPC   C2B 3406  13.541   3.235   8.966  0.1129 -0.0514 -0.2745
  284POPC   C3B 3407  13.348   3.532   8.593 -0.0329  0.0587 -0.2490
  284POPC   C4B 3408  13.473   3.905   8.333  0.1818  0.0737 -0.2967
  285POPC   NC3 3409  12.892  10.114  10.851  0.0453  0.1317 -0.3839
  285POPC   PO4 3410  13.272  10.018  10.810  0.1171  0.1636 -0.2126
  285POPC   GL1 3411  13.120   9.745  10.642 -0.1417 -0.0556 -0.2182
  285POPC   GL2 3412  12.937   9.734  10.465  0.0927 -0.0268 -0.1287
  285POPC   C1A 3413  13.347   9.543  10.281 -0.2835 -0.2228 -0.3130
  285POPC   D2A 3414  13.058   9.277  10.028 -0.1597  0.2173 -0.2188
  285POPC   C3A 3415  13.356   9.181   9.662  0.2407  0.2440 -0.1623
  285POPC   C4A 3416  13.813   9.235   9.668  0.1232  0.1443 -0.0499
  285POPC   C1B 3417  12.651   9.901  10.102 -0.2752 -0.0837 -0.1654
  285POPC   C2B 3418  12.267   9.659   9.961 -0.0575 -0.0654  0.1042
  285POPC   C3B 3419  12.085   9.299   9.675 -0.0025 -0.1110  0.1152
  285POPC   C4B 3420  12.271   8.970   9.381  0.1221 -0.0223 -0.1006
  286POPC   NC3 3421   1.927   2.392   9.253  0.2653  0.1513  0.2004
  286POPC   PO4 3422   1.624   2.528   8.975 -0.0681 -0.0006 -0.1981
  286POPC   GL1 3423   1.694   2.558   8.611 -0.3231 -0.3659 -0.0229
  286POPC   GL2 3424   1.443   2.417   8.453 -0.0513 -0.1976  0.1996
  286POPC   C1A 3425   1.791   2.772   8.196 -0.1783  0.0460  0.2042
  286POPC   D2A 3426   1.654   2.663   7.743 -0.4647 -0.0348  0.0939
  286POPC   C3A 3427   1.839   2.423   7.419 -0.2610  0.1498 -0.1254
  286POPC   C4A 3428   1.795   2.085   7.053  0.0477  0.3240 -0.1244
  286POPC   C1B 3429   1.288   2.846   8.257  0.0816  0.0716  0.0659
  286POPC   C2B 3430   0.974   3.035   7.909  0.0429  0.0092  0.0803
  286POPC   C3B 3431   0.700   3.133   7.559 -0.0191 -0.2107  0.0569
  286POPC   C4B 3432   0.459   3.055   7.162  0.2479  0.0843  0.3725
  287POPC   NC3 3433  10.359  15.788   9.367 -0.0082  0.2657  0.0018
  287POPC   PO4 3434  10.602  15.827   9.065  0.1737 -0.0064 -0.1463
  287POPC   GL1 3435  10.656  15.771   8.735  0.1123  0.1189  0.2710
  287POPC   GL2 3436  10.631  16.090   8.560 -0.0690  0.3564 -0.1569
  287POPC   C1A 3437  10.457  15.699   8.295  0.1403  0.1356 -0.1165
  287POPC   D2A 3438  10.443  15.512   7.897 -0.3791 -0.0226  0.0441
  287POPC   C3A 3439  10.205  15.672   7.563  0.2096 -0.1595  0.3659
  287POPC   C4A 3440  10.070  15.551   7.162  0.0181  0.2828  0.1205
  287POPC   C1B 3441  10.404  16.489   8.518  0.0182 -0.0531  0.3164
  287POPC   C2B 3442  10.308  16.747   8.139 -0.0181  0.1388  0.0507
  287POPC   C3B 3443  10.284  17.030   7.712  0.2745 -0.4368  0.2398
  287POPC   C4B 3444  10.343  17.378   7.456 -0.2387  0.0775 -0.1708
  288POPC   NC3 3445   4.246   4.867  13.139 -0.2020  0.0759  0.2784
  288POPC   PO4 3446   4.586   4.851  12.886 -0.3388 -0.0384 -0.0891
  288POPC   GL1 3447   5.010   4.779  12.960 -0.3422  0.1584 -0.0234
  288POPC   GL2 3448   4.996   4.952  13.170  0.0588 -0.0034 -0.0802
  288POPC   C1A 3449   5.293   4.612  13.298  0.1522  0.0676 -0.0522
  288POPC   D2A 3450   5.721   4.463  13.452  0.0706 -0.0532 -0.1295
  288POPC   C3A 3451   6.112   4.645  13.771  0.2285  0.2509 -0.1374
  288POPC   C4A 3452   6.420   4.879  14.054  0.0688 -0.3596 -0.0124
  288POPC   C1B 3453   5.305   5.051  13.518 -0.5017  0.0691 -0.1513
  288POPC   C2B 3454   5.354   5.328  13.883  0.0934  0.4897 -0.5668
  288POPC   C3B 3455   5.683   5.387  14.197 -0.0616  0.1349 -0.2131
  288POPC   C4B 3456   6.052   5.232  14.493 -0.0853  0.1984  0.1906
  289POPC   NC3 3457  14.411   3.417  14.766  0.2213  0.0677  0.1641
  289POPC   PO4 3458  14.383   3.792  14.555 -0.1344  0.0773 -0.2355
  289POPC   GL1 3459  14.038   4.016  14.417 -0.0649  0.0737 -0.0360
  289POPC   GL2 3460  13.884   4.235  14.414 -0.1246 -0.1969 -0.0749
  289POPC   C1A 3461  13.586   3.907  14.470 -0.1053 -0.0290 -0.4395
  289POPC   D2A 3462  13.137   3.972  14.510 -0.0699 -0.0335 -0.2236
  289POPC   C3A 3463  12.770   3.755  14.557  0.0230  0.3240 -0.0287
  289POPC   C4A 3464  12.373   3.900  14.601 -0.2458  0.0783 -0.2773
  289POPC   C1B 3465  13.605   4.364  14.674  0.1155 -0.1087  0.0335
  289POPC   C2B 3466  13.214   4.339  14.916  0.1102  0.0682  0.0103
  289POPC   C3B 3467  13.062   4.558  15.281  0.0619  0.2167 -0.1075
  289POPC   C4B 3468  12.815   4.483  15.677 -0.0305 -0.1053 -0.1132
  290POPC   NC3 3469   3.657  10.133  16.512 -0.4105  0.0560  0.0998
  290POPC   PO4 3470   3.684  10.127  16.106  0.1517  0.1623  0.2518
  290POPC   GL1 3471   4.074  10.055  16.297  0.3906 -0.1832 -0.2010
  290POPC   GL2 3472   4.112   9.843  16.485 -0.0575 -0.2310  0.1378
  290POPC   C1A 3473   4.152  10.285  16.722  0.1225 -0.0037 -0.1245
  290POPC   D2A 3474   4.184  10.372  17.195 -0.0821  0.1749  0.2241
  290POPC   C3A 3475   4.593  10.329  17.323 -0.1575 -0.0311  0.1216
  290POPC   C4A 3476   4.898   9.948  17.341 -0.1400 -0.0337  0.0467
  290POPC   C1B 3477   4.328   9.491  16.698  0.1106 -0.1856 -0.2632
  290POPC   C2B 3478   4.518   9.317  17.099 -0.2326  0.1429  0.1243
  290POPC   C3B 3479   4.359   9.192  17.511  0.4736  0.0140 -0.0767
  290POPC   C4B 3480   4.440   9.319  17.967  0.1205  0.2317  0.1666
  291POPC   NC3 3481  14.383  11.317   9.292 -0.1594 -0.0866  0.1035
  291POPC   PO4 3482  14.012  11.332   9.457 -0.0955  0.1229 -0.1451
  291POPC   GL1 3483  14.035  11.210   9.012  0.2485 -0.0249 -0.1470
  291POPC   GL2 3484  13.792  11.349   8.954  0.2309  0.1078  0.0763
  291POPC   C1A 3485  14.105  10.911   8.646 -0.0410 -0.1358  0.1463
  291POPC   D2A 3486  14.210  10.596   8.316 -0.3488  0.3052 -0.0584
  291POPC   C3A 3487  14.604  10.403   8.149  0.1616 -0.2145 -0.0937
  291POPC   C4A 3488  14.760  10.132   7.843 -0.1847  0.1171  0.1498
  291POPC   C1B 3489  13.563  10.995   8.770  0.1794 -0.2680  0.1631
  291POPC   C2B 3490  13.704  10.742   8.376 -0.1128  0.1416 -0.0251
  291POPC   C3B 3491  13.793  10.680   7.918  0.3092 -0.0386  0.3431
  291POPC   C4B 3492  13.914  11.008   7.613 -0.1247  0.0470 -0.0659
  292POPC   NC3 3493   9.140  16.261   9.611 -0.1993  0.1604 -0.0023
  292POPC   PO4 3494   9.130  15.973   9.331 -0.0679 -0.0049  0.0507
  292POPC   GL1 3495   9.291  16.056   8.897 -0.1998 -0.2080 -0.0493
  292POPC   GL2 3496   9.135  15.967   8.702  0.3416 -0.3498 -0.1929
  292POPC   C1A 3497   9.717  16.148   8.721  0.0496 -0.2104 -0.2272
  292POPC   D2A 3498   9.899  16.516   8.530  0.2564 -0.1557  0.0409
  292POPC   C3A 3499   9.855  16.570   8.058 -0.2755 -0.0742  0.0174
  292POPC   C4A 3500  10.138  16.542   7.661 -0.0031  0.2518  0.1785
  292POPC   C1B 3501   9.084  16.261   8.351 -0.1388  0.0688  0.2202
  292POPC   C2B 3502   9.342  16.476   8.015  0.2975  0.1330 -0.0168
  292POPC   C3B 3503   9.361  16.737   7.659  0.1265 -0.2141  0.2095
  292POPC   C4B 3504   9.294  16.840   7.211 -0.1578 -0.2931  0.3859
  293POPC   NC3 3505   7.878  14.374   9.338 -0.0640 -0.0472 -0.1919
  293POPC   PO4 3506   8.017  14.165   9.048  0.0402 -0.0952 -0.1255
  293POPC   GL1 3507   8.191  14.118   8.777 -0.1622 -0.1274  0.1959
  293POPC   GL2 3508   8.350  13.924   8.748 -0.0248  0.1654  0.6521
  293POPC   C1A 3509   8.363  14.435   8.450  0.0839  0.0873 -0.3224
  293POPC   D2A 3510   8.516  14.639   8.087  0.3197  0.0138  0.1179
  293POPC   C3A 3511   8.675  15.025   7.889  0.0197  0.2212 -0.1547
  293POPC   C4A 3512   8.877  15.413   7.695  0.1190 -0.0523 -0.0002
  293POPC   C1B 3513   8.377  13.767   8.283  0.0361 -0.1354 -0.3039
  293POPC   C2B 3514   8.547  13.551   7.941 -0.1157  0.0780  0.0674
  293POPC   C3B 3515   8.596  13.414   7.444  0.0124  0.0125 -0.0459
  293POPC   C4B 3516   8.749  13.660   7.122 -0.1235 -0.1370 -0.4266
  294POPC   NC3 3517  14.603   2.538   9.528 -0.1275 -0.0701 -0.0261
  294POPC   PO4 3518  14.954   2.653   9.592  0.2752  0.1110 -0.0406
  294POPC   GL1 3519  14.655   2.958   9.350  0.1701 -0.0160 -0.1737
  294POPC   GL2 3520  14.358   2.961   9.429  0.1655  0.1852 -0.1524
  294POPC   C1A 3521  14.498   3.351   9.134  0.1837  0.1112  0.1380
  294POPC   D2A 3522  14.418   3.695   8.778  0.1676  0.0019 -0.0636
  294POPC   C3A 3523  14.330   3.608   8.346 -0.0672 -0.0159 -0.3448
  294POPC   C4A 3524  14.284   3.996   7.992  0.2160  0.2317 -0.0237
  294POPC   C1B 3525  13.995   2.911   9.084 -0.1997 -0.1298 -0.0838
  294POPC   C2B 3526  13.685   2.792   8.773 -0.2451  0.1114  0.2468
  294POPC   C3B 3527  13.434   3.070   8.476 -0.0137 -0.3701 -0.1058
  294POPC   C4B 3528  13.086   3.224   8.275 -0.5479 -0.0735  0.3459
  295POPC   NC3 3529  14.811   8.741  10.308  0.0768 -0.1167  0.3399
  295POPC   PO4 3530  14.598   8.417  10.379  0.1197 -0.2610  0.0362
  295POPC   GL1 3531  14.396   8.478  10.041 -0.0194 -0.0068 -0.1723
  295POPC   GL2 3532  14.376   8.294   9.801 -0.0521 -0.3283  0.2859
  295POPC   C1A 3533  14.531   8.795   9.738 -0.1325  0.2758  0.2089
  295POPC   D2A 3534  14.598   8.953   9.346  0.0017  0.1105 -0.0000
  295POPC   C3A 3535  14.441   8.805   8.911  0.0388  0.0320  0.1962
  295POPC   C4A 3536  14.280   8.428   8.722 -0.0984 -0.1158 -0.2049
  295POPC   C1B 3537  14.086   8.094   9.497  0.0881 -0.3898  0.1070
  295POPC   C2B 3538  13.773   7.908   9.234 -0.0698  0.0691  0.1278
  295POPC   C3B 3539  13.460   8.069   8.887 -0.0078 -0.1763 -0.1824
  295POPC   C4B 3540  13.117   8.233   8.616  0.2521  0.2765  0.2494
  296POPC   NC3 3541  12.667  14.247   8.262  0.1965  0.2427 -0.1898
  296POPC   PO4 3542  12.341  14.301   8.458  0.0314  0.2567 -0.1350
  296POPC   GL1 3543  12.102  14.218   8.156 -0.4059  0.0409 -0.1115
  296POPC   GL2 3544  12.055  14.367   7.927  0.2326  0.0134 -0.0268
  296POPC   C1A 3545  12.333  13.978   7.772  0.0633  0.4529  0.0097
  296POPC   D2A 3546  12.627  14.101   7.382  0.1783 -0.1569  0.3178
  296POPC   C3A 3547  12.672  13.774   7.037 -0.3215  0.3167 -0.1115
  296POPC   C4A 3548  12.823  13.374   6.760 -0.1368 -0.2586  0.0558
  296POPC   C1B 3549  12.145  14.834   7.844 -0.3184 -0.2428 -0.1794
  296POPC   C2B 3550  12.075  15.070   7.448  0.0177  0.1290 -0.3186
  296POPC   C3B 3551  12.218  15.261   7.059 -0.1034  0.2291  0.0006
  296POPC   C4B 3552  12.280  15.630   6.821  0.1573 -0.0077  0.2715
  297POPC   NC3 3553   3.228   0.989   8.934 -0.0492 -0.3336  0.2670
  297POPC   PO4 3554   3.579   1.032   8.741  0.0909 -0.1182 -0.1715
  297POPC   GL1 3555   3.799   0.939   8.496 -0.4803  0.1320  0.1289
  297POPC   GL2 3556   3.640   0.928   8.266 -0.1775  0.1010  0.0787
  297POPC   C1A 3557   4.068   1.099   8.133  0.0453  0.3345  0.1298
  297POPC   D2A 3558   4.230   1.536   8.052  0.1264  0.0017 -0.2052
  297POPC   C3A 3559   4.033   1.880   7.788  0.0874  0.0520 -0.0233
  297POPC   C4A 3560   3.698   1.973   7.507 -0.0552  0.0995 -0.1249
  297POPC   C1B 3561   3.767   0.923   7.786  0.2683  0.0364  0.0708
  297POPC   C2B 3562   4.038   1.169   7.535 -0.0094  0.2364  0.1911
  297POPC   C3B 3563   4.470   1.319   7.684 -0.0805 -0.3244  0.3391
  297POPC   C4B 3564   4.671   1.748   7.763  0.0019  0.1689  0.0136
  298POPC   NC3 3565   7.984   0.896  10.323 -0.3314 -0.2550 -0.1435
  298POPC   PO4 3566   8.350   0.979  10.400  0.0719  0.2442 -0.0478
  298POPC   GL1 3567   8.453   1.011  10.015 -0.1010 -0.0573 -0.3288
  298POPC   GL2 3568   8.170   1.118   9.917 -0.0657 -0.0515  0.3119
  298POPC   C1A 3569   8.440   0.726   9.645 -0.0699  0.2519 -0.2480
  298POPC   D2A 3570   8.660   0.523   9.292  0.2915 -0.1709  0.1341
  298POPC   C3A 3571   8.914   0.781   9.093  0.0055 -0.0577  0.0860
  298POPC   C4A 3572   9.130   1.078   8.827  0.0947 -0.2553 -0.2430
  298POPC   C1B 3573   8.384   1.273   9.535 -0.1329  0.1304 -0.1899
  298POPC   C2B 3574   8.544   1.089   9.184  0.0845  0.1328  0.1172
  298POPC   C3B 3575   8.639   1.103   8.756 -0.1398  0.2591 -0.0617
  298POPC   C4B 3576   8.715   1.221   8.324 -0.2667  0.1920 -0.0296
  299POPC   NC3 3577   2.406   3.485   9.067 -0.0250 -0.1474 -0.0964
  299POPC   PO4 3578   2.010   3.526   9.029  0.2172 -0.2873  0.1134
  299POPC   GL1 3579   1.790   3.595   8.554  0.1171 -0.1877  0.0628
  299POPC   GL2 3580   1.728   3.815   8.474 -0.1594 -0.1388  0.4467
  299POPC   C1A 3581   1.972   3.527   8.140 -0.0597 -0.0593  0.3326
  299POPC   D2A 3582   2.088   3.088   7.943  0.1830 -0.0453 -0.1494
  299POPC   C3A 3583   1.928   2.986   7.486 -0.0278  0.1942  0.1342
  299POPC   C4A 3584   2.061   2.946   7.079 -0.0280  0.1487  0.0850
  299POPC   C1B 3585   1.533   3.728   8.092 -0.0623  0.0984  0.0469
  299POPC   C2B 3586   1.457   3.835   7.641 -0.0983 -0.2619 -0.1753
  299POPC   C3B 3587   1.461   4.111   7.216 -0.1666  0.1292  0.0751
  299POPC   C4B 3588   1.273   4.306   6.878 -0.0795 -0.1315  0.0502
  300POPC   NC3 3589  12.310   1.228   9.831 -0.1834  0.0090 -0.0456
  300POPC   PO4 3590  12.223   1.351  10.212  0.1815 -0.0502  0.1268
  300POPC   GL1 3591  12.254   1.708   9.923 -0.2696  0.2019  0.4695
  300POPC   GL2 3592  12.447   2.010  10.087 -0.2421  0.2061  0.2018
  300POPC   C1A 3593  12.298   2.100   9.595  0.0648  0.1127 -0.2434
  300POPC   D2A 3594  12.476   2.334   9.220 -0.1761 -0.2564  0.0836
  300POPC   C3A 3595  12.334   2.716   9.062  0.0437 -0.0330 -0.2758
  300POPC   C4A 3596  12.052   3.054   9.012 -0.0259 -0.2182  0.0767
  300POPC   C1B 3597  12.420   2.460  10.018  0.0539 -0.1757  0.0341
  300POPC   C2B 3598  12.443   2.977   9.996 -0.0450  0.3008  0.3145
  300POPC   C3B 3599  12.453   3.424  10.011 -0.1174  0.0136 -0.1325
  300POPC   C4B 3600  12.374   3.810  10.249  0.4246  0.3333  0.1502
  301POPC   NC3 3601   4.517   5.327  13.350 -0.3734  0.1330  0.1411
  301POPC   PO4 3602   4.724   5.651  13.292  0.3361  0.1236 -0.0824
  301POPC   GL1 3603   5.008   5.410  13.328  0.0262 -0.2187  0.2466
  301POPC   GL2 3604   5.126   5.584  13.580  0.2952 -0.2531  0.1295
  301POPC   C1A 3605   5.341   5.240  13.060 -0.2165  0.0425  0.0092
  301POPC   D2A 3606   5.660   5.390  12.801  0.0927 -0.1061 -0.0501
  301POPC   C3A 3607   6.016   5.534  13.054  0.0282  0.2525  0.1481
  301POPC   C4A 3608   6.484   5.547  13.197  0.1228 -0.1694  0.3618
  301POPC   C1B 3609   5.371   5.726  13.261 -0.1741  0.0263 -0.0288
  301POPC   C2B 3610   5.776   5.898  13.313  0.2186 -0.1070 -0.2964
  301POPC   C3B 3611   6.176   5.788  13.569  0.6595 -0.1018 -0.0419
  301POPC   C4B 3612   6.358   5.664  13.980  0.0264  0.1911  0.1490
  302POPC   NC3 3613   4.466  15.566   8.426  0.0973  0.1019 -0.1782
  302POPC   PO4 3614   4.087  15.602   8.427  0.0515  0.0081 -0.2612
  302POPC   GL1 3615   4.114  15.816   8.089 -0.1520 -0.4144  0.1614
  302POPC   GL2 3616   4.261  15.649   7.941 -0.0613  0.0396 -0.0124
  302POPC   C1A 3617   4.047  16.094   7.705 -0.0538 -0.1511 -0.0400
  302POPC   D2A 3618   4.260  16.086   7.278  0.0846 -0.1420 -0.0227
  302POPC   C3A 3619   4.498  15.934   6.901  0.0769 -0.1525  0.0690
  302POPC   C4A 3620   4.720  15.849   6.547  0.0417  0.0541 -0.2706
  302POPC   C1B 3621   4.444  15.674   7.484 -0.0119 -0.0116  0.1691
  302POPC   C2B 3622   4.690  15.501   7.162 -0.0203 -0.0731 -0.1417
  302POPC   C3B 3623   5.032  15.588   6.862 -0.0277 -0.0043 -0.0676
  302POPC   C4B 3624   5.314  15.392   6.557  0.2199 -0.1756 -0.0837
  303POPC   NC3 3625  10.329   0.169  10.215  0.0260 -0.2906  0.2095
  303POPC   PO4 3626  10.445   0.554  10.268  0.0092  0.1498  0.0111
  303POPC   GL1 3627  10.683   0.706   9.995  0.4738  0.0677 -0.0436
  303POPC   GL2 3628  10.810   0.950  10.092  0.0090 -0.1944  0.1984
  303POPC   C1A 3629  10.461   1.011   9.754 -0.0310 -0.1464 -0.1579
  303POPC   D2A 3630  10.298   1.469   9.766 -0.3342 -0.0208 -0.2192
  303POPC   C3A 3631  10.247   1.705   9.388  0.0266  0.0629  0.0077
  303POPC   C4A 3632  10.341   1.918   9.024 -0.0777  0.3056 -0.1732
  303POPC   C1B 3633  10.794   1.350  10.140 -0.0487 -0.1034  0.2036
  303POPC   C2B 3634  10.808   1.721   9.856 -0.1542 -0.3241  0.0152
  303POPC   C3B 3635  10.985   2.130   9.964  0.3089 -0.0389 -0.2207
  303POPC   C4B 3636  10.859   2.594  10.058 -0.0140 -0.1857  0.1327
  304POPC   NC3 3637  15.235   3.027  14.570  0.1636 -0.4136  0.0958
  304POPC   PO4 3638  14.940   3.086  14.813 -0.3346  0.0872 -0.2145
  304POPC   GL1 3639  14.752   3.227  15.068 -0.2519 -0.1471  0.1704
  304POPC   GL2 3640  14.767   3.097  15.327  0.0002 -0.0028 -0.1155
  304POPC   C1A 3641  14.307   3.193  15.218  0.1187  0.1698  0.3415
  304POPC   D2A 3642  14.039   3.398  15.578 -0.0589  0.2042 -0.2064
  304POPC   C3A 3643  13.750   3.576  15.913  0.2472 -0.1595  0.1330
  304POPC   C4A 3644  13.544   3.754  16.273 -0.0503  0.1702 -0.2895
  304POPC   C1B 3645  14.455   3.165  15.707 -0.2663 -0.1473  0.1428
  304POPC   C2B 3646  14.391   3.251  16.157  0.1273  0.2754 -0.0752
  304POPC   C3B 3647  14.396   3.350  16.576 -0.2766  0.0312  0.1042
  304POPC   C4B 3648  14.096   3.608  16.802  0.2462 -0.2136  0.0986
  305POPC   NC3 3649   5.351   9.302  13.641 -0.0645 -0.2070 -0.4448
  305POPC   PO4 3650   5.351   9.202  13.284 -0.0446 -0.1316  0.1226
  305POPC   GL1 3651   5.729   8.998  13.153  0.2594  0.0719 -0.5693
  305POPC   GL2 3652   5.797   8.911  13.419  0.1837 -0.2504 -0.0080
  305POPC   C1A 3653   6.113   8.742  13.003 -0.1545  0.0423 -0.0507
  305POPC   D2A 3654   6.325   8.862  12.603 -0.2928  0.0245  0.0133
  305POPC   C3A 3655   6.763   8.688  12.508  0.3213 -0.2071 -0.1961
  305POPC   C4A 3656   6.944   8.620  12.095 -0.0005 -0.2029  0.2219
  305POPC   C1B 3657   6.000   8.599  13.622  0.2406  0.1578  0.0070
  305POPC   C2B 3658   6.313   8.519  13.952  0.2460  0.1533 -0.2591
  305POPC   C3B 3659   6.618   8.343  14.263 -0.1166  0.3045 -0.0063
  305POPC   C4B 3660   6.828   8.085  14.594 -0.3174 -0.2339  0.0251
  306POPC   NC3 3661   1.500   5.676  15.357 -0.2465 -0.1178  0.0341
  306POPC   PO4 3662   1.413   5.335  15.434 -0.0557  0.1687  0.2931
  306POPC   GL1 3663   1.489   5.401  15.893 -0.2678  0.2074  0.2595
  306POPC   GL2 3664   1.257   5.285  16.001  0.2878 -0.0855  0.0870
  306POPC   C1A 3665   1.595   5.554  16.345 -0.0668  0.0807  0.1115
  306POPC   D2A 3666   1.615   5.657  16.768  0.0292  0.0867  0.0453
  306POPC   C3A 3667   1.677   5.726  17.230 -0.0548 -0.1696  0.0075
  306POPC   C4A 3668   1.726   5.917  17.617 -0.0564 -0.0425  0.1258
  306POPC   C1B 3669   1.225   5.193  16.464  0.0355  0.0731  0.2076
  306POPC   C2B 3670   1.069   5.227  16.926  0.2194  0.0121 -0.0558
  306POPC   C3B 3671   1.068   5.180  17.390 -0.0297  0.1191  0.2428
  306POPC   C4B 3672   1.001   4.758  17.542  0.1167 -0.3790  0.1074
  307POPC   NC3 3673  14.749   4.904  15.163  0.0891 -0.1513  0.3915
  307POPC   PO4 3674  14.748   4.496  15.078  0.1690 -0.4138 -0.0859
  307POPC   GL1 3675  14.781   4.544  15.465  0.0037  0.0306  0.0705
  307POPC   GL2 3676  14.776   4.312  15.573 -0.1053 -0.2013  0.2716
  307POPC   C1A 3677  14.689   4.728  15.891 -0.0739  0.4657  0.0358
  307POPC   D2A 3678  14.372   4.623  16.229  0.0583 -0.4459  0.2265
  307POPC   C3A 3679  14.525   4.748  16.657  0.0773 -0.0576 -0.3953
  307POPC   C4A 3680  14.476   5.051  17.003  0.1391 -0.0647 -0.0674
  307POPC   C1B 3681  14.407   4.331  15.836 -0.1454  0.1381  0.3984
  307POPC   C2B 3682  14.028   4.151  15.973  0.1982  0.0676 -0.0238
  307POPC   C3B 3683  13.884   4.058  16.421 -0.2352 -0.0630 -0.0612
  307POPC   C4B 3684  13.908   4.099  16.870  0.5108  0.1362  0.1708
  308POPC   NC3 3685   6.672   9.599  13.038  0.5529 -0.0741  0.0156
  308POPC   PO4 3686   6.961   9.814  13.209  0.2744 -0.0145  0.0532
  308POPC   GL1 3687   7.084   9.457  13.055 -0.1317 -0.3371 -0.0854
  308POPC   GL2 3688   7.010   9.258  13.266  0.0173 -0.3658 -0.1952
  308POPC   C1A 3689   7.504   9.246  13.040 -0.2603 -0.0594  0.0306
  308POPC   D2A 3690   7.784   9.153  13.404 -0.0869  0.0454  0.3960
  308POPC   C3A 3691   8.149   9.315  13.497  0.2954 -0.1121  0.0672
  308POPC   C4A 3692   8.527   9.320  13.641 -0.0436  0.0857 -0.0734
  308POPC   C1B 3693   6.877   8.897  13.530  0.0256  0.2327  0.0258
  308POPC   C2B 3694   6.906   8.640  13.895 -0.0086 -0.0460 -0.2271
  308POPC   C3B 3695   7.108   8.329  14.163 -0.2258  0.1293  0.1467
  308POPC   C4B 3696   7.148   7.899  14.165 -0.0133  0.4255  0.1151
  309POPC   NC3 3697   4.142   1.851  15.190 -0.4992 -0.2583 -0.1408
  309POPC   PO4 3698   4.536   1.860  15.089 -0.0320 -0.0723  0.0785
  309POPC   GL1 3699   4.722   2.067  15.331 -0.2611 -0.2444 -0.5283
  309POPC   GL2 3700   4.779   2.304  15.215  0.0967 -0.2379  0.0693
  309POPC   C1A 3701   4.983   1.847  15.644 -0.1538 -0.0420 -0.0401
  309POPC   D2A 3702   5.242   1.717  16.032 -0.1544 -0.1122  0.0248
  309POPC   C3A 3703   5.490   1.934  16.257  0.2052 -0.0856 -0.1204
  309POPC   C4A 3704   5.488   2.200  16.624  0.1578 -0.2630 -0.1321
  309POPC   C1B 3705   5.173   2.465  15.410 -0.1002  0.2389  0.0117
  309POPC   C2B 3706   5.397   2.765  15.702  0.1731  0.3164 -0.2413
  309POPC   C3B 3707   5.557   2.986  16.073  0.1106 -0.0892  0.2054
  309POPC   C4B 3708   5.502   2.917  16.474  0.1629  0.0997 -0.1287
  310POPC   NC3 3709  16.687   9.766   9.043 -0.3724  0.2228 -0.0751
  310POPC   PO4 3710  16.402  10.045   9.172 -0.1133  0.4264 -0.1271
  310POPC   GL1 3711  16.450  10.204   8.808 -0.2051  0.2550  0.3759
  310POPC   GL2 3712  16.196  10.298   8.833  0.1643  0.0044  0.0087
  310POPC   C1A 3713  16.406  10.059   8.344 -0.0507  0.1589  0.1405
  310POPC   D2A 3714  16.242  10.192   7.963 -0.2630  0.0962  0.0459
  310POPC   C3A 3715  16.156   9.883   7.587  0.1419  0.0016  0.1212
  310POPC   C4A 3716  16.446   9.653   7.329  0.2921 -0.3667  0.1216
  310POPC   C1B 3717  15.959  10.177   8.489  0.2713 -0.0482  0.2637
  310POPC   C2B 3718  16.002   9.801   8.241  0.0994  0.0370 -0.1737
  310POPC   C3B 3719  15.841   9.667   7.891  0.2747  0.0325  0.3725
  310POPC   C4B 3720  15.618   9.285   7.675  0.1283  0.1382  0.0460
  311POPC   NC3 3721  15.168   9.854   9.791  0.1029  0.1124 -0.0134
  311POPC   PO4 3722  14.916  10.118   9.643  0.0020 -0.1253  0.0929
  311POPC   GL1 3723  14.713   9.978   9.410  0.6378 -0.1113 -0.2999
  311POPC   GL2 3724  14.624   9.692   9.465  0.0225  0.0360  0.3021
  311POPC   C1A 3725  14.690   9.923   8.951 -0.0591  0.0191  0.0147
  311POPC   D2A 3726  14.463   9.681   8.618 -0.0431  0.0352 -0.0526
  311POPC   C3A 3727  14.532   9.557   8.170 -0.0341 -0.1609 -0.2167
  311POPC   C4A 3728  14.904   9.603   7.930 -0.1642 -0.0050  0.0712
  311POPC   C1B 3729  14.455   9.407   9.144  0.1442 -0.0583 -0.0622
  311POPC   C2B 3730  14.191   9.328   8.818 -0.3383 -0.0769 -0.0406
  311POPC   C3B 3731  14.067   9.366   8.345  0.2079 -0.0815 -0.1260
  311POPC   C4B 3732  13.913   9.115   7.987 -0.2379 -0.2655 -0.5548
  312POPC   NC3 3733   0.802   3.887  15.964  0.0124 -0.0499  0.0526
  312POPC   PO4 3734   0.809   3.531  15.861 -0.0412  0.1313  0.0943
  312POPC   GL1 3735   0.842   3.455  16.241 -0.0062  0.2780  0.1524
  312POPC   GL2 3736   0.980   3.563  16.431  0.0152  0.1430  0.0932
  312POPC   C1A 3737   0.588   3.598  16.676  0.0837  0.0361  0.1341
  312POPC   D2A 3738   0.536   3.737  17.060 -0.1261 -0.1668  0.0231
  312POPC   C3A 3739   0.643   3.903  17.487  0.0705 -0.0203 -0.2063
  312POPC   C4A 3740   0.745   4.276  17.772 -0.3001  0.1155  0.0490
  312POPC   C1B 3741   1.128   3.953  16.430  0.0572 -0.0997  0.0390
  312POPC   C2B 3742   1.396   4.204  16.695 -0.2034  0.0254  0.1837
  312POPC   C3B 3743   1.449   4.156  17.149  0.1002 -0.0978  0.1711
  312POPC   C4B 3744   1.197   4.283  17.519  0.3429  0.1746 -0.2839
  313POPC   NC3 3745  15.553  14.414   8.391 -0.1713  0.3039 -0.3141
  313POPC   PO4 3746  15.711  14.058   8.374  0.2065  0.1596  0.0690
  313POPC   GL1 3747  15.599  13.818   8.173 -0.0918 -0.0563  0.3871
  313POPC   GL2 3748  15.724  13.762   7.906  0.1393  0.3662 -0.1246
  313POPC   C1A 3749  15.303  13.537   7.934 -0.0641  0.0692 -0.0661
  313POPC   D2A 3750  15.179  13.460   7.508  0.0534 -0.2392 -0.1425
  313POPC   C3A 3751  15.301  13.292   7.076 -0.2002 -0.1361 -0.0147
  313POPC   C4A 3752  15.695  13.112   7.106 -0.0744 -0.1357 -0.3338
  313POPC   C1B 3753  15.660  13.555   7.450  0.0250  0.1358  0.1770
  313POPC   C2B 3754  15.653  13.634   6.992 -0.0642 -0.0347  0.2720
  313POPC   C3B 3755  15.417  13.768   6.687  0.2543 -0.3514 -0.0010
  313POPC   C4B 3756  15.192  14.090   6.455 -0.0316 -0.2395 -0.1394
  314POPC   NC3 3757   8.583  12.881  10.244 -0.0398  0.1119 -0.2757
  314POPC   PO4 3758   8.710  12.888   9.855 -0.2718 -0.1086 -0.1668
  314POPC   GL1 3759   8.714  12.491   9.712  0.0901 -0.2272  0.0093
  314POPC   GL2 3760   8.538  12.441   9.434 -0.4224 -0.2528  0.0243
  314POPC   C1A 3761   8.725  12.001   9.629 -0.4148  0.0458 -0.1147
  314POPC   D2A 3762   8.680  11.577   9.782  0.0839  0.1113  0.2632
  314POPC   C3A 3763   8.735  11.185   9.559  0.0709 -0.3024  0.0205
  314POPC   C4A 3764   8.907  10.831   9.384  0.0564 -0.0763 -0.1991
  314POPC   C1B 3765   8.639  12.240   9.096  0.0275  0.2108  0.0750
  314POPC   C2B 3766   8.685  12.054   8.640 -0.0034  0.1294 -0.0650
  314POPC   C3B 3767   8.633  11.738   8.286 -0.0862 -0.2841  0.1134
  314POPC   C4B 3768   8.848  11.632   7.875  0.2820  0.2403  0.0465
  315POPC   NC3 3769   5.075   5.016  12.607  0.1300 -0.0286  0.2356
  315POPC   PO4 3770   5.326   5.124  12.352 -0.0108  0.1309  0.0182
  315POPC   GL1 3771   5.729   5.159  12.445 -0.1886  0.0418 -0.2363
  315POPC   GL2 3772   5.927   5.170  12.248  0.1281  0.1379 -0.5404
  315POPC   C1A 3773   6.072   5.065  12.751 -0.0917 -0.2054 -0.2845
  315POPC   D2A 3774   6.537   5.179  12.797  0.2654  0.0409  0.1880
  315POPC   C3A 3775   6.906   5.376  12.897 -0.3101  0.0616  0.3835
  315POPC   C4A 3776   7.323   5.578  12.882  0.0033  0.0267  0.0280
  315POPC   C1B 3777   6.364   5.315  12.329 -0.1336 -0.0649  0.1637
  315POPC   C2B 3778   6.824   5.408  12.418  0.3970 -0.2562  0.1613
  315POPC   C3B 3779   7.190   5.669  12.402 -0.1850  0.0833  0.0706
  315POPC   C4B 3780   7.571   5.802  12.113 -0.1256 -0.1052 -0.3319
  316POPC   NC3 3781   5.518   3.845  10.900  0.2387 -0.0072 -0.2220
  316POPC   PO4 3782   5.334   4.175  11.045 -0.0568  0.2110 -0.1802
  316POPC   GL1 3783   5.744   4.282  10.923 -0.0320 -0.2959  0.0205
  316POPC   GL2 3784   5.726   4.238  10.634 -0.0059  0.2643 -0.2490
  316POPC   C1A 3785   6.060   4.637  10.943 -0.1634 -0.1135 -0.0681
  316POPC   D2A 3786   6.450   4.922  10.799  0.3855  0.0453 -0.0456
  316POPC   C3A 3787   6.623   4.887  10.345  0.1080 -0.0132 -0.2624
  316POPC   C4A 3788   6.880   5.067   9.960  0.1241  0.0287 -0.3511
  316POPC   C1B 3789   6.172   4.174  10.429  0.0856  0.2160  0.1326
  316POPC   C2B 3790   6.639   4.375  10.459 -0.1394  0.0581  0.0698
  316POPC   C3B 3791   7.020   4.282  10.637 -0.3142  0.0394 -0.1022
  316POPC   C4B 3792   7.046   4.052  11.044  0.1798 -0.2933  0.2240
  317POPC   NC3 3793  11.208   1.147  11.915 -0.0786  0.1156 -0.2846
  317POPC   PO4 3794  11.104   0.973  12.254 -0.1346 -0.0158 -0.0425
  317POPC   GL1 3795  10.954   1.340  12.303 -0.0132  0.0288 -0.1057
  317POPC   GL2 3796  10.766   1.337  12.057  0.1697 -0.0025  0.0667
  317POPC   C1A 3797  11.104   1.743  12.523  0.0863 -0.0950  0.2859
  317POPC   D2A 3798  11.274   2.174  12.553 -0.0039 -0.2313 -0.1387
  317POPC   C3A 3799  11.228   2.514  12.295 -0.4876  0.3175  0.1403
  317POPC   C4A 3800  11.202   2.941  12.203  0.0322  0.1775 -0.0947
  317POPC   C1B 3801  10.739   1.821  12.110  0.0087 -0.2692 -0.2223
  317POPC   C2B 3802  10.812   2.141  12.436  0.3997  0.1531  0.1707
  317POPC   C3B 3803  10.918   2.523  12.666 -0.1949 -0.0906  0.0771
  317POPC   C4B 3804  11.008   2.951  12.748 -0.0441  0.1501 -0.1769
  318POPC   NC3 3805  15.093   0.172   8.938 -0.3828  0.0851 -0.1036
  318POPC   PO4 3806  14.945   0.531   8.850  0.1859  0.0016  0.0657
  318POPC   GL1 3807  14.760   0.710   8.583  0.1032  0.2495  0.0595
  318POPC   GL2 3808  14.700   0.959   8.662  0.2697 -0.2919  0.0543
  318POPC   C1A 3809  14.353   0.661   8.314 -0.0311 -0.0989 -0.3567
  318POPC   D2A 3810  14.180   0.594   7.874  0.0811  0.1479 -0.0013
  318POPC   C3A 3811  13.795   0.844   7.726 -0.1941 -0.0167  0.0252
  318POPC   C4A 3812  13.740   1.223   7.447  0.2131  0.0869 -0.0796
  318POPC   C1B 3813  14.458   1.181   8.331  0.2667  0.4366 -0.0526
  318POPC   C2B 3814  14.144   1.425   8.137 -0.0163 -0.5779 -0.0242
  318POPC   C3B 3815  13.817   1.545   7.864  0.0450  0.1886  0.0169
  318POPC   C4B 3816  13.487   1.770   7.589 -0.0507  0.2496 -0.0942
  319POPC   NC3 3817  12.186   1.251  12.119 -0.2993  0.1316  0.1027
  319POPC   PO4 3818  12.213   1.097  11.765  0.0652 -0.1605  0.0246
  319POPC   GL1 3819  11.902   1.330  11.812  0.1990 -0.1763  0.3618
  319POPC   GL2 3820  11.936   1.537  11.587  0.0829 -0.1170  0.0523
  319POPC   C1A 3821  11.584   1.641  12.015 -0.0045  0.0829  0.1511
  319POPC   D2A 3822  11.384   2.016  12.113  0.0947 -0.1140 -0.0225
  319POPC   C3A 3823  11.104   2.252  11.829  0.0903  0.0664 -0.0515
  319POPC   C4A 3824  10.892   2.458  11.413  0.3720 -0.0889  0.0450
  319POPC   C1B 3825  11.659   1.960  11.632  0.0118 -0.2862  0.0101
  319POPC   C2B 3826  11.424   2.329  11.445 -0.0904  0.1726 -0.0564
  319POPC   C3B 3827  11.276   2.723  11.401 -0.1241  0.1579  0.0950
  319POPC   C4B 3828  11.178   3.076  11.736  0.0969  0.1388  0.1465
  320POPC   NC3 3829  11.282  10.887  10.899  0.2703 -0.0208 -0.0427
  320POPC   PO4 3830  11.566  10.647  10.966  0.3393 -0.1746  0.1811
  320POPC   GL1 3831  11.377  10.281  11.013 -0.0190 -0.0238  0.0575
  320POPC   GL2 3832  11.387  10.318  10.685  0.1457 -0.1309 -0.1072
  320POPC   C1A 3833  10.959  10.171  11.133  0.3155 -0.0271  0.2450
  320POPC   D2A 3834  10.612   9.855  11.278 -0.2144 -0.3319  0.1969
  320POPC   C3A 3835  10.230   9.778  11.041  0.2552 -0.2257 -0.1349
  320POPC   C4A 3836   9.744   9.774  11.006  0.0743 -0.2633  0.1946
  320POPC   C1B 3837  11.111   9.958  10.705 -0.1686 -0.1324 -0.1384
  320POPC   C2B 3838  10.874   9.845  10.353  0.0242  0.0272  0.0888
  320POPC   C3B 3839  10.543   9.647  10.122 -0.0154 -0.1925  0.1412
  320POPC   C4B 3840  10.441   9.296   9.829  0.3593 -0.0462  0.2344
  321POPC   NC3 3841   5.467   5.364  11.461 -0.3390 -0.2873 -0.0030
  321POPC   PO4 3842   5.226   5.107  11.357  0.1277  0.0254 -0.0681
  321POPC   GL1 3843   5.520   4.982  11.100 -0.1427 -0.1109 -0.0974
  321POPC   GL2 3844   5.823   4.876  11.256 -0.1828 -0.0133  0.3200
  321POPC   C1A 3845   5.832   5.215  10.775 -0.1650 -0.0670  0.0119
  321POPC   D2A 3846   6.192   5.398  10.553  0.2271  0.1130 -0.0800
  321POPC   C3A 3847   6.705   5.388  10.571 -0.0976  0.1184 -0.2358
  321POPC   C4A 3848   7.100   5.622  10.679 -0.0101 -0.1029  0.3140
  321POPC   C1B 3849   6.299   4.927  11.296  0.1082 -0.1963 -0.2360
  321POPC   C2B 3850   6.784   4.881  11.254 -0.1243 -0.0011  0.1796
  321POPC   C3B 3851   7.238   4.949  11.134 -0.2589 -0.1468  0.1660
  321POPC   C4B 3852   7.664   4.811  11.073  0.1822  0.0321 -0.0247
  322POPC   NC3 3853  10.830  32.324  15.420  0.1243  0.3057 -0.1688
  322POPC   PO4 3854  10.965  32.539  15.122  0.0841 -0.0714 -0.1568
  322POPC   GL1 3855  10.860  32.750  15.510 -0.1802 -0.2717 -0.3248
  322POPC   GL2 3856  10.823  33.067  15.431  0.3091  0.1374  0.0786
  322POPC   C1A 3857  11.106  32.906  15.891  0.2902 -0.0231  0.1283
  322POPC   D2A 3858  11.154  32.767  16.294  0.2423 -0.1854 -0.1833
  322POPC   C3A 3859  11.053  33.049  16.649 -0.3270 -0.2978 -0.3645
  322POPC   C4A 3860  11.255  33.469  16.811 -0.2704  0.0343  0.0205
  322POPC   C1B 3861  10.852  33.365  15.801 -0.0135  0.1807 -0.1361
  322POPC   C2B 3862  10.575  33.674  15.968 -0.1287 -0.1556 -0.0123
  322POPC   C3B 3863  10.368  34.008  16.234 -0.1030  0.1628 -0.0235
  322POPC   C4B 3864  10.163  34.358  16.447  0.0291 -0.1163  0.1605
  323POPC   NC3 3865  11.820  15.585   8.863 -0.1926 -0.1071  0.0844
  323POPC   PO4 3866  12.231  15.533   8.722  0.0290 -0.6164  0.0152
  323POPC   GL1 3867  12.077  15.646   8.255 -0.3109 -0.0665 -0.1894
  323POPC   GL2 3868  11.935  15.776   8.369  0.1411  0.2180 -0.1738
  323POPC   C1A 3869  12.087  15.883   7.809 -0.0027  0.3700 -0.1793
  323POPC   D2A 3870  12.385  16.220   7.749  0.1807  0.1130  0.1300
  323POPC   C3A 3871  12.265  16.441   7.336 -0.2488  0.0317  0.0708
  323POPC   C4A 3872  12.071  16.861   7.229  0.1030  0.0242 -0.2514
  323POPC   C1B 3873  11.578  16.017   8.189 -0.0230  0.0722 -0.2379
  323POPC   C2B 3874  11.268  16.087   7.862 -0.0893 -0.1329  0.0444
  323POPC   C3B 3875  10.936  16.212   7.570 -0.3644  0.4577 -0.0055
  323POPC   C4B 3876  10.750  16.272   7.202 -0.1280  0.0024  0.2029
  324POPC   NC3 3877   5.170   5.703  12.753  0.0375  0.0352  0.1407
  324POPC   PO4 3878   5.322   5.608  12.404  0.1520  0.3218  0.1408
  324POPC   GL1 3879   5.635   5.844  12.273 -0.2415  0.1744  0.2778
  324POPC   GL2 3880   5.702   5.954  12.499 -0.0869 -0.1174 -0.1431
  324POPC   C1A 3881   6.029   5.662  12.121 -0.1204 -0.0592 -0.2850
  324POPC   D2A 3882   6.492   5.647  12.004  0.2985 -0.1692 -0.2232
  324POPC   C3A 3883   6.693   5.952  12.264 -0.0193 -0.0869 -0.0069
  324POPC   C4A 3884   7.115   6.209  12.248  0.3988  0.0776  0.2603
  324POPC   C1B 3885   6.054   5.660  12.620 -0.2616  0.3824  0.0696
  324POPC   C2B 3886   6.480   5.697  12.700  0.0856 -0.1913 -0.2503
  324POPC   C3B 3887   6.898   5.850  12.955 -0.3505  0.1261 -0.0270
  324POPC   C4B 3888   7.229   5.889  13.344  0.0941  0.1427  0.2730
  325POPC   NC3 3889   2.571  13.971   8.315  0.0284 -0.0590 -0.2577
  325POPC   PO4 3890   2.382  13.643   8.153 -0.3195  0.1576 -0.2067
  325POPC   GL1 3891   2.384  13.594   7.781  0.1520 -0.2279  0.3976
  325POPC   GL2 3892   2.638  13.739   7.702 -0.0073  0.1079 -0.0839
  325POPC   C1A 3893   2.191  13.980   7.478  0.1980 -0.4963  0.0959
  325POPC   D2A 3894   2.258  14.134   7.030  0.3019  0.2403  0.1815
  325POPC   C3A 3895   2.665  14.212   6.915  0.1253  0.3792 -0.0610
  325POPC   C4A 3896   3.026  14.231   6.631  0.0847  0.1050 -0.0480
  325POPC   C1B 3897   2.645  13.382   7.444  0.2384  0.3850 -0.0250
  325POPC   C2B 3898   2.715  13.273   6.984  0.0982 -0.3375  0.0667
  325POPC   C3B 3899   2.581  13.210   6.539  0.0602 -0.0053  0.1389
  325POPC   C4B 3900   2.561  13.018   6.117 -0.2158 -0.0689 -0.0997
  326POPC   NC3 3901   2.932   3.802   8.825  0.1771 -0.2335 -0.0279
  326POPC   PO4 3902   3.073   3.860   9.154  0.0940  0.1221  0.2638
  326POPC   GL1 3903   3.368   4.004   8.974 -0.3310  0.3312  0.0093
  326POPC   GL2 3904   3.360   4.284   9.051  0.2838  0.1069 -0.2256
  326POPC   C1A 3905   3.378   4.127   8.536 -0.3092  0.3543  0.1857
  326POPC   D2A 3906   3.304   4.017   8.118  0.0765 -0.0052 -0.1580
  326POPC   C3A 3907   3.328   4.316   7.864 -0.0676 -0.0570 -0.1752
  326POPC   C4A 3908   3.201   4.760   7.881 -0.0656  0.2963 -0.2371
  326POPC   C1B 3909   3.795   4.297   8.785 -0.0371  0.2142 -0.1688
  326POPC   C2B 3910   4.157   4.422   8.479 -0.0246  0.2441 -0.0503
  326POPC   C3B 3911   4.143   4.577   8.080  0.3291  0.0017  0.1785
  326POPC   C4B 3912   4.101   4.682   7.635  0.0830 -0.1266 -0.0759
  327POPC   NC3 3913  14.834   3.994  15.151 -0.0072  0.0084  0.1458
  327POPC   PO4 3914  14.790   3.658  14.930  0.2340 -0.1884 -0.0444
  327POPC   GL1 3915  14.554   3.581  15.275  0.0850 -0.4980  0.1097
  327POPC   GL2 3916  14.293   3.693  15.177 -0.0633  0.1254  0.1793
  327POPC   C1A 3917  14.382   3.850  15.653 -0.2049 -0.2585  0.0929
  327POPC   D2A 3918  14.221   3.681  16.025 -0.3878  0.2836  0.0343
  327POPC   C3A 3919  13.937   3.400  16.314  0.0872 -0.1995 -0.2287
  327POPC   C4A 3920  13.593   3.300  16.578 -0.0235 -0.3600 -0.1197
  327POPC   C1B 3921  13.872   3.645  15.121 -0.1862 -0.3835  0.0698
  327POPC   C2B 3922  13.485   3.642  15.380 -0.2024  0.1934  0.0044
  327POPC   C3B 3923  13.291   3.829  15.784 -0.1757 -0.1568  0.2596
  327POPC   C4B 3924  13.117   3.991  16.213  0.0175 -0.1989  0.2334
  328POPC   NC3 3925   9.190  15.322   9.138 -0.1051  0.0782 -0.1699
  328POPC   PO4 3926   9.501  15.594   9.157 -0.0147  0.0836  0.5208
  328POPC   GL1 3927   9.528  15.652   8.784  0.2498  0.1288  0.1635
  328POPC   GL2 3928   9.307  15.514   8.658 -0.1879  0.0946  0.0535
  328POPC   C1A 3929   9.653  15.861   8.388 -0.0397 -0.3785  0.2359
  328POPC   D2A 3930   9.553  16.024   7.991 -0.0905 -0.1883 -0.1363
  328POPC   C3A 3931   9.603  16.213   7.582 -0.0352  0.0708 -0.4390
  328POPC   C4A 3932   9.700  16.540   7.300 -0.2225  0.0795  0.1045
  328POPC   C1B 3933   9.195  15.764   8.276 -0.1621  0.3734  0.3010
  328POPC   C2B 3934   9.160  15.777   7.803  0.0497 -0.2940 -0.1048
  328POPC   C3B 3935   9.008  15.782   7.375  0.0534 -0.0206  0.1761
  328POPC   C4B 3936   8.785  15.507   7.086  0.3561  0.0094 -0.0860
  329POPC   NC3 3937  11.281  15.247  15.907 -0.0885 -0.0184 -0.2140
  329POPC   PO4 3938  10.907  15.277  15.829  0.2856  0.0550 -0.1138
  329POPC   GL1 3939  10.894  15.296  16.225  0.1187  0.0125  0.0290
  329POPC   GL2 3940  10.948  15.600  16.324  0.3714  0.2416 -0.3096
  329POPC   C1A 3941  10.524  15.420  16.478  0.2142 -0.1048  0.2708
  329POPC   D2A 3942  10.530  15.694  16.838  0.0511 -0.1441 -0.0463
  329POPC   C3A 3943  10.957  15.873  16.821  0.2065 -0.1150  0.3085
  329POPC   C4A 3944  11.234  16.001  16.474 -0.3344 -0.1389  0.1393
  329POPC   C1B 3945  11.027  15.353  16.702 -0.1613 -0.1200  0.0033
  329POPC   C2B 3946  11.063  15.458  17.115  0.2604 -0.3040 -0.0358
  329POPC   C3B 3947  10.941  15.815  17.356  0.1955 -0.3092  0.3674
  329POPC   C4B 3948  10.765  16.266  17.296 -0.1546 -0.1014 -0.0431
  330POPC   NC3 3949  13.301   8.827  11.217  0.0370  0.1977 -0.0262
  330POPC   PO4 3950  13.045   9.164  11.285  0.0240 -0.1078  0.0596
  330POPC   GL1 3951  13.126   9.132  10.879  0.2653 -0.2478  0.1500
  330POPC   GL2 3952  12.829   9.026  10.849  0.2418  0.0866  0.0289
  330POPC   C1A 3953  12.987   9.275  10.479  0.0108  0.3235 -0.0873
  330POPC   D2A 3954  12.577   9.294  10.338 -0.2961  0.1093 -0.1823
  330POPC   C3A 3955  12.465   9.160   9.957  0.0935 -0.1876  0.0226
  330POPC   C4A 3956  12.248   8.759   9.822 -0.1758  0.1401 -0.1161
  330POPC   C1B 3957  12.719   8.572  10.714 -0.2641 -0.0422  0.1429
  330POPC   C2B 3958  12.429   8.303  10.469 -0.2279 -0.1878  0.4328
  330POPC   C3B 3959  12.110   8.429  10.148  0.2073 -0.1426 -0.2090
  330POPC   C4B 3960  11.886   8.358   9.762 -0.0847  0.3290  0.0423
  331POPC   NC3 3961  11.457  13.357   8.782  0.1599  0.1209  0.2076
  331POPC   PO4 3962  11.304  13.125   9.059 -0.0364 -0.1840 -0.1332
  331POPC   GL1 3963  11.366  12.908   8.798  0.2417  0.0875  0.3398
  331POPC   GL2 3964  11.296  12.655   8.758 -0.0184  0.0203 -0.1255
  331POPC   C1A 3965  11.134  12.923   8.369  0.0642 -0.0720 -0.1654
  331POPC   D2A 3966  10.765  13.043   8.101 -0.0223  0.3608  0.2640
  331POPC   C3A 3967  10.641  12.694   7.933 -0.0626  0.3087  0.3974
  331POPC   C4A 3968  10.500  12.466   7.505  0.0073 -0.2952 -0.0748
  331POPC   C1B 3969  11.552  12.678   8.376 -0.2590 -0.0758  0.1642
  331POPC   C2B 3970  11.631  12.356   8.055 -0.3528  0.4157  0.0754
  331POPC   C3B 3971  11.804  12.217   7.620  0.3149  0.0401 -0.1797
  331POPC   C4B 3972  12.023  12.346   7.268 -0.0721  0.1151  0.1858
  332POPC   NC3 3973   5.224   3.017   9.626  0.1058 -0.0816  0.3315
  332POPC   PO4 3974   4.899   2.908   9.621  0.0361 -0.3440  0.2672
  332POPC   GL1 3975   4.869   3.023   9.199  0.1743 -0.2674  0.1581
  332POPC   GL2 3976   5.095   3.258   9.190 -0.0171  0.1991  0.2557
  332POPC   C1A 3977   5.086   2.791   8.842  0.0594 -0.0383  0.2411
  332POPC   D2A 3978   5.149   2.794   8.364 -0.4194 -0.0224  0.2410
  332POPC   C3A 3979   4.997   3.185   8.214 -0.2109 -0.0974 -0.2044
  332POPC   C4A 3980   5.211   3.536   8.176  0.1427  0.3720  0.0416
  332POPC   C1B 3981   4.926   3.321   8.768  0.2614 -0.1244 -0.1737
  332POPC   C2B 3982   4.627   3.450   8.466  0.5448 -0.1264  0.0365
  332POPC   C3B 3983   4.722   3.672   8.054 -0.5557 -0.3105 -0.2558
  332POPC   C4B 3984   5.107   3.814   7.755  0.2024 -0.0557  0.2662
  333POPC   NC3 3985   3.915  14.035   8.103 -0.2373  0.2777 -0.0703
  333POPC   PO4 3986   4.271  13.977   8.132 -0.1535 -0.0663  0.1707
  333POPC   GL1 3987   4.262  14.028   7.782 -0.3564 -0.2069  0.1116
  333POPC   GL2 3988   4.050  14.140   7.656 -0.2621 -0.1326 -0.2901
  333POPC   C1A 3989   4.605  14.229   7.437  0.0513  0.1209 -0.1494
  333POPC   D2A 3990   4.666  14.180   6.991 -0.0618  0.2400 -0.1977
  333POPC   C3A 3991   4.347  14.230   6.643  0.0783  0.1502  0.1726
  333POPC   C4A 3992   4.495  14.189   6.195  0.2507 -0.2179 -0.1127
  333POPC   C1B 3993   4.243  13.896   7.372 -0.0550  0.0066  0.1774
  333POPC   C2B 3994   4.128  13.863   6.931  0.2035  0.2068  0.2899
  333POPC   C3B 3995   3.833  13.652   6.659  0.0679  0.0406  0.1123
  333POPC   C4B 3996   3.464  13.439   6.516  0.2823 -0.1635 -0.3244
  334POPC   NC3 3997  14.966   1.964   8.819 -0.0695 -0.2304 -0.1655
  334POPC   PO4 3998  15.312   1.831   8.913 -0.2502  0.0240 -0.1786
  334POPC   GL1 3999  15.420   1.843   8.533  0.2802  0.1836 -0.3045
  334POPC   GL2 4000  15.272   2.103   8.429  0.1054  0.4029 -0.0543
  334POPC   C1A 4001  15.572   1.909   8.101 -0.0431  0.0131  0.1849
  334POPC   D2A 4002  15.610   1.973   7.636 -0.1378  0.2799 -0.0733
  334POPC   C3A 4003  15.508   2.356   7.510 -0.0725  0.1143  0.1297
  334POPC   C4A 4004  15.419   2.665   7.133 -0.2688 -0.0476  0.0258
  334POPC   C1B 4005  15.329   2.386   8.054 -0.0152  0.0081 -0.2252
  334POPC   C2B 4006  14.999   2.558   7.744 -0.0908 -0.2377 -0.3863
  334POPC   C3B 4007  14.561   2.751   7.558  0.4030 -0.0426  0.2226
  334POPC   C4B 4008  14.186   2.915   7.744 -0.2642  0.1242 -0.3439
  335POPC   NC3 4009   6.326   0.263  10.125  0.0123  0.1068 -0.0335
  335POPC   PO4 4010   6.434   0.189   9.780  0.2696 -0.1367  0.2217
  335POPC   GL1 4011   6.659   0.238   9.371  0.0387 -0.5232 -0.1837
  335POPC   GL2 4012   6.506   0.468   9.162  0.0927  0.1249  0.3097
  335POPC   C1A 4013   6.944   0.206   9.013 -0.0777  0.1767 -0.0764
  335POPC   D2A 4014   7.209   0.401   8.641  0.0066  0.0140  0.0879
  335POPC   C3A 4015   7.030   0.368   8.241 -0.0440  0.3311 -0.1498
  335POPC   C4A 4016   7.137   0.566   7.821 -0.3764 -0.0235  0.0851
  335POPC   C1B 4017   6.607   0.847   8.869 -0.2246  0.1701 -0.2399
  335POPC   C2B 4018   6.729   1.216   8.630  0.2874 -0.2439 -0.2109
  335POPC   C3B 4019   7.004   1.557   8.460  0.2210  0.0047  0.1391
  335POPC   C4B 4020   7.380   1.703   8.246 -0.0790 -0.3695 -0.0130
  336POPC   NC3 4021   0.421  12.296   8.309 -0.1043  0.0468  0.3062
  336POPC   PO4 4022   0.101  12.190   8.387  0.0146  0.0912  0.0586
  336POPC   GL1 4023   0.048  12.096   7.976  0.0414 -0.0045  0.0597
  336POPC   GL2 4024   0.240  11.892   7.966 -0.6207 -0.1480 -0.1655
  336POPC   C1A 4025  -0.260  12.002   7.619  0.5932  0.3892  0.0319
  336POPC   D2A 4026  -0.274  11.838   7.173 -0.0827  0.1036 -0.1527
  336POPC   C3A 4027  -0.318  11.711   6.741 -0.0784 -0.1499 -0.1091
  336POPC   C4A 4028  -0.524  11.603   6.371 -0.2389 -0.1027 -0.1960
  336POPC   C1B 4029   0.189  11.843   7.510  0.0431  0.0967 -0.2419
  336POPC   C2B 4030   0.203  11.742   7.039  0.2192  0.0637 -0.0439
  336POPC   C3B 4031   0.245  11.466   6.672  0.0317  0.0471 -0.1421
  336POPC   C4B 4032   0.150  11.173   6.271  0.0325  0.0778 -0.0001
  337POPC   NC3 4033   5.369   4.550  11.410  0.3595  0.0261  0.5885
  337POPC   PO4 4034   5.308   4.458  11.804  0.1246 -0.3264 -0.2582
  337POPC   GL1 4035   5.693   4.674  11.761  0.0475  0.0478  0.5173
  337POPC   GL2 4036   5.641   4.767  12.079  0.2480 -0.4322 -0.1654
  337POPC   C1A 4037   5.969   5.047  11.718  0.0112 -0.3451 -0.0332
  337POPC   D2A 4038   6.346   5.306  11.684  0.0422 -0.0822 -0.3306
  337POPC   C3A 4039   6.688   5.169  11.983  0.3047 -0.2525  0.3318
  337POPC   C4A 4040   6.919   4.931  12.310  0.0008  0.2660 -0.2584
  337POPC   C1B 4041   6.144   4.690  12.036 -0.0606 -0.0144  0.0180
  337POPC   C2B 4042   6.459   4.805  11.765 -0.0625 -0.0387 -0.0720
  337POPC   C3B 4043   6.960   4.808  11.728 -0.1592 -0.1976 -0.1703
  337POPC   C4B 4044   7.377   4.872  11.665 -0.0459 -0.3844  0.0005
  338POPC   NC3 4045  14.862   4.921  14.136  0.0439 -0.0564  0.0482
  338POPC   PO4 4046  14.539   4.815  14.208 -0.0981 -0.1531 -0.0051
  338POPC   GL1 4047  14.119   4.750  14.309 -0.1853 -0.1801  0.3859
  338POPC   GL2 4048  13.996   4.702  14.022  0.1622  0.2441 -0.0737
  338POPC   C1A 4049  13.739   4.888  14.493 -0.1925  0.0440 -0.1398
  338POPC   D2A 4050  13.365   4.806  14.778 -0.3080 -0.1873  0.2926
  338POPC   C3A 4051  12.925   4.660  14.771 -0.0818  0.2052  0.0933
  338POPC   C4A 4052  12.651   4.402  14.996 -0.3162  0.1765 -0.1107
  338POPC   C1B 4053  13.557   4.583  14.120 -0.2168  0.2207  0.1128
  338POPC   C2B 4054  13.168   4.461  14.353  0.3263  0.0494  0.2033
  338POPC   C3B 4055  12.719   4.333  14.485 -0.0050  0.1189  0.1679
  338POPC   C4B 4056  12.272   4.379  14.658  0.0352  0.0433  0.0482
  339POPC   NC3 4057   8.529   1.342  11.555  0.1145 -0.0511 -0.1974
  339POPC   PO4 4058   8.375   1.105  11.260  0.2527  0.2928 -0.2859
  339POPC   GL1 4059   8.620   1.381  11.071  0.1278 -0.5814 -0.2855
  339POPC   GL2 4060   8.886   1.347  11.165 -0.2945  0.0552 -0.1379
  339POPC   C1A 4061   8.743   1.878  11.161 -0.3709 -0.0101 -0.2790
  339POPC   D2A 4062   8.973   2.228  11.427 -0.2668 -0.0137 -0.0310
  339POPC   C3A 4063   8.971   2.687  11.440  0.2666  0.0582 -0.2263
  339POPC   C4A 4064   9.127   3.055  11.247 -0.0123 -0.3870 -0.0411
  339POPC   C1B 4065   8.887   1.565  10.748  0.2749 -0.1011  0.1289
  339POPC   C2B 4066   8.741   1.797  10.358 -0.1116 -0.0937 -0.0802
  339POPC   C3B 4067   8.667   2.045   9.963  0.1345  0.3533 -0.0161
  339POPC   C4B 4068   8.369   2.463   9.858  0.2649 -0.0051 -0.1690
  340POPC   NC3 4069   1.719   8.992   9.029 -0.0739 -0.0170  0.0848
  340POPC   PO4 4070   1.867   9.296   8.840  0.1019  0.0108 -0.2203
  340POPC   GL1 4071   1.935   9.208   8.493 -0.1158  0.0732  0.0785
  340POPC   GL2 4072   1.698   9.135   8.430  0.0844  0.0110 -0.3041
  340POPC   C1A 4073   2.255   8.990   8.295  0.1417 -0.0098 -0.2504
  340POPC   D2A 4074   2.359   8.794   7.907 -0.0591  0.1431  0.0066
  340POPC   C3A 4075   2.635   8.593   7.623 -0.1389  0.2031  0.4166
  340POPC   C4A 4076   2.892   8.203   7.650  0.1758 -0.1844 -0.0558
  340POPC   C1B 4077   1.761   8.894   8.052  0.0334  0.2188 -0.0168
  340POPC   C2B 4078   1.824   8.950   7.616  0.1630 -0.0544  0.0143
  340POPC   C3B 4079   2.126   8.853   7.255  0.1106  0.3303  0.0663
  340POPC   C4B 4080   2.488   8.615   7.150  0.0227  0.0494  0.3041
  341POPC   NC3 4081  31.787   0.711   8.466  0.0653 -0.0831  0.0558
  341POPC   PO4 4082  31.700   1.026   8.687 -0.2076 -0.0420  0.2288
  341POPC   GL1 4083  31.682   1.329   8.380 -0.3897 -0.0688 -0.2276
  341POPC   GL2 4084  31.840   1.519   8.372  0.1123 -0.0811  0.0496
  341POPC   C1A 4085  31.865   1.125   8.028 -0.1650  0.1474  0.0658
  341POPC   D2A 4086  32.161   1.080   7.771  0.0570 -0.1088  0.0027
  341POPC   C3A 4087  32.459   0.885   7.465  0.2940  0.2585 -0.1345
  341POPC   C4A 4088  32.767   0.914   7.133  0.2106 -0.0645 -0.1917
  341POPC   C1B 4089  31.726   1.597   7.917  0.0535 -0.0951 -0.2189
  341POPC   C2B 4090  31.759   1.711   7.490 -0.2200 -0.1004  0.1307
  341POPC   C3B 4091  31.687   1.715   7.005  0.2781 -0.2267 -0.2207
  341POPC   C4B 4092  31.406   1.920   6.563 -0.2237  0.0193  0.0203
  342POPC   NC3 4093   1.064   1.703   8.708 -0.2778  0.1222  0.3231
  342POPC   PO4 4094   0.725   1.892   8.794  0.0896  0.1331  0.0377
  342POPC   GL1 4095   0.850   2.013   8.412 -0.2719  0.3641 -0.0890
  342POPC   GL2 4096   0.911   2.248   8.471 -0.4431  0.0394  0.2507
  342POPC   C1A 4097   0.548   2.262   8.104 -0.1059  0.1834  0.0012
  342POPC   D2A 4098   0.301   2.265   7.695 -0.5554 -0.0999 -0.1513
  342POPC   C3A 4099   0.381   1.874   7.523 -0.0219 -0.1620  0.0068
  342POPC   C4A 4100   0.613   1.642   7.203 -0.0154 -0.1888  0.3790
  342POPC   C1B 4101   1.061   2.409   8.068  0.0083 -0.2410  0.0111
  342POPC   C2B 4102   0.966   2.561   7.640 -0.2014  0.4696 -0.2024
  342POPC   C3B 4103   0.756   2.648   7.237 -0.3552  0.0247  0.0047
  342POPC   C4B 4104   0.828   2.529   6.818 -0.0816  0.0886 -0.2387
  343POPC   NC3 4105   7.249  15.061   8.768  0.0535 -0.1994 -0.1342
  343POPC   PO4 4106   7.589  15.239   8.870 -0.2520  0.2107  0.1830
  343POPC   GL1 4107   7.843  15.322   8.505  0.1804 -0.3838  0.1717
  343POPC   GL2 4108   7.845  15.566   8.595  0.1987  0.0464  0.0299
  343POPC   C1A 4109   7.888  15.414   8.050 -0.2572 -0.0978  0.0847
  343POPC   D2A 4110   7.683  15.490   7.685  0.0446 -0.2341 -0.0524
  343POPC   C3A 4111   7.559  15.198   7.388 -0.2942 -0.1516  0.0947
  343POPC   C4A 4112   7.328  14.823   7.194  0.1299 -0.1449  0.3288
  343POPC   C1B 4113   7.658  15.887   8.283 -0.1209  0.2081  0.2083
  343POPC   C2B 4114   7.593  16.231   7.999 -0.4688  0.0429  0.1602
  343POPC   C3B 4115   7.411  16.067   7.612 -0.1551 -0.1117  0.2454
  343POPC   C4B 4116   7.441  15.696   7.279 -0.0758 -0.2023  0.1383
  344POPC   NC3 4117   5.283  15.317   8.649  0.0774  0.0687 -0.2753
  344POPC   PO4 4118   5.299  14.923   8.525  0.2170 -0.1871 -0.3033
  344POPC   GL1 4119   5.173  15.221   8.193  0.2017 -0.2853 -0.0437
  344POPC   GL2 4120   5.061  15.009   8.056 -0.0747 -0.2847  0.1635
  344POPC   C1A 4121   5.222  15.703   8.072  0.2939 -0.1482 -0.1541
  344POPC   D2A 4122   5.086  16.141   7.952 -0.0430 -0.3355  0.2018
  344POPC   C3A 4123   5.309  16.073   7.517 -0.2059 -0.0031 -0.0680
  344POPC   C4A 4124   5.547  16.111   7.111 -0.1178 -0.2563 -0.1127
  344POPC   C1B 4125   5.297  15.280   7.748  0.0107 -0.1296 -0.0612
  344POPC   C2B 4126   5.116  15.297   7.296  0.1207 -0.0688 -0.1463
  344POPC   C3B 4127   5.137  15.093   6.913 -0.3498 -0.1549  0.0414
  344POPC   C4B 4128   5.327  14.847   6.624 -0.0808  0.3432  0.1327
  345POPC   NC3 4129  11.190  32.412   9.070  0.0496 -0.1220  0.1151
  345POPC   PO4 4130  10.900  32.548   9.323  0.0355 -0.1576  0.1837
  345POPC   GL1 4131  10.940  32.837   9.103 -0.3197  0.0381  0.1623
  345POPC   GL2 4132  10.790  32.677   8.812 -0.1241 -0.0577 -0.1013
  345POPC   C1A 4133  11.025  33.265   9.095  0.1924  0.1449 -0.1206
  345POPC   D2A 4134  11.012  33.614   8.732 -0.2158 -0.1449 -0.1297
  345POPC   C3A 4135  10.934  33.758   8.283  0.1260  0.1398 -0.0350
  345POPC   C4A 4136  10.691  33.631   7.877  0.0509  0.0612  0.0238
  345POPC   C1B 4137  10.613  32.829   8.442  0.3342 -0.0258 -0.2013
  345POPC   C2B 4138  10.310  32.752   8.113  0.1641 -0.2176  0.0249
  345POPC   C3B 4139  10.065  32.934   7.710 -0.3264 -0.1904  0.2818
  345POPC   C4B 4140   9.919  33.089   7.313  0.1948  0.3565 -0.2068
  346POPC   NC3 4141  15.706   1.558   8.672 -0.0192 -0.1155  0.1870
  346POPC   PO4 4142  15.456   1.261   8.778  0.1798  0.0550  0.0826
  346POPC   GL1 4143  15.070   1.167   8.529  0.0183  0.1954 -0.3304
  346POPC   GL2 4144  15.247   1.261   8.345 -0.1342  0.0332  0.0457
  346POPC   C1A 4145  14.843   1.101   8.097  0.0886 -0.0224 -0.0680
  346POPC   D2A 4146  14.957   1.122   7.627  0.0949  0.0885  0.0456
  346POPC   C3A 4147  14.795   0.951   7.182  0.0620 -0.1246  0.1548
  346POPC   C4A 4148  14.535   0.664   6.928 -0.0075 -0.2768  0.1383
  346POPC   C1B 4149  15.154   1.636   8.048  0.0618  0.1205  0.2650
  346POPC   C2B 4150  15.137   2.043   7.779  0.0623 -0.3313  0.0840
  346POPC   C3B 4151  15.124   2.153   7.339  0.3187 -0.3278  0.1183
  346POPC   C4B 4152  14.763   2.159   7.071  0.1305  0.3468 -0.0823
  347POPC   NC3 4153  11.187   1.109  13.910 -0.1581  0.0826  0.0160
  347POPC   PO4 4154  10.800   0.978  13.947  0.2313  0.3970 -0.1143
  347POPC   GL1 4155  10.822   1.303  14.122  0.2280  0.0060 -0.0874
  347POPC   GL2 4156  10.918   1.196  14.398 -0.3047 -0.1477  0.1323
  347POPC   C1A 4157  10.514   1.526  14.425  0.0132  0.1167 -0.1624
  347POPC   D2A 4158  10.215   1.750  14.709  0.0504 -0.3281 -0.0458
  347POPC   C3A 4159   9.859   1.935  14.565 -0.3183  0.2879 -0.1456
  347POPC   C4A 4160   9.688   1.772  14.131 -0.2164  0.0075 -0.0132
  347POPC   C1B 4161  11.135   1.618  14.270 -0.3910 -0.2393  0.2266
  347POPC   C2B 4162  10.979   2.025  14.100  0.2395  0.1852 -0.2271
  347POPC   C3B 4163  10.842   2.451  14.307  0.0331 -0.1313  0.1613
  347POPC   C4B 4164  11.004   2.883  14.163  0.0787  0.3475 -0.2790
  348POPC   NC3 4165   0.964   0.785   8.276 -0.0030 -0.4511  0.1572
  348POPC   PO4 4166   0.775   0.443   8.183  0.2677  0.0123  0.0607
  348POPC   GL1 4167   0.788   0.539   7.816 -0.2658  0.1141 -0.2851
  348POPC   GL2 4168   1.084   0.553   7.719 -0.1141  0.0120  0.2454
  348POPC   C1A 4169   0.741   0.283   7.378 -0.1936 -0.0014  0.1021
  348POPC   D2A 4170   0.737   0.363   6.907 -0.4360  0.0725  0.1808
  348POPC   C3A 4171   0.810   0.226   6.466 -0.3969  0.1187 -0.2039
  348POPC   C4A 4172   1.150  -0.014   6.186  0.1968  0.2474  0.0275
  348POPC   C1B 4173   0.872   0.754   7.399 -0.2175 -0.1770  0.4458
  348POPC   C2B 4174   0.835   0.926   6.992  0.1446  0.0830 -0.1161
  348POPC   C3B 4175   0.857   1.136   6.603  0.2200 -0.0925  0.3539
  348POPC   C4B 4176   1.050   1.316   6.200 -0.0547  0.1152  0.2040
  349POPC   NC3 4177   8.655  15.172   9.735  0.0983 -0.3836  0.1504
  349POPC   PO4 4178   8.690  15.234   9.297 -0.2184  0.0866  0.1383
  349POPC   GL1 4179   8.747  15.331   8.990  0.0745  0.0638  0.1257
  349POPC   GL2 4180   8.795  15.625   9.008 -0.3117 -0.2183 -0.0896
  349POPC   C1A 4181   8.871  15.276   8.528  0.0189 -0.0228  0.1132
  349POPC   D2A 4182   9.084  15.299   8.137  0.0490  0.0827  0.0045
  349POPC   C3A 4183   9.476  15.409   7.950 -0.0973 -0.1300  0.0332
  349POPC   C4A 4184   9.688  15.631   7.568 -0.1076  0.2126  0.0403
  349POPC   C1B 4185   8.717  15.747   8.555 -0.2137  0.0680 -0.3338
  349POPC   C2B 4186   8.743  15.853   8.050 -0.0691 -0.1472 -0.1145
  349POPC   C3B 4187   8.553  15.897   7.654  0.0669  0.0225 -0.3935
  349POPC   C4B 4188   8.357  15.850   7.246 -0.0320 -0.1657 -0.0366
  350POPC   NC3 4189  17.123   2.027   8.879  0.0228  0.1432  0.1819
  350POPC   PO4 4190  16.823   2.270   8.734  0.0156 -0.1157  0.0299
  350POPC   GL1 4191  16.868   2.539   8.497 -0.1452 -0.3506  0.0847
  350POPC   GL2 4192  16.893   2.780   8.624  0.0731  0.0354  0.0389
  350POPC   C1A 4193  16.942   2.410   8.017 -0.2388  0.1090 -0.0682
  350POPC   D2A 4194  16.661   2.457   7.541 -0.1817 -0.2539  0.0369
  350POPC   C3A 4195  16.507   2.822   7.329  0.2837 -0.0708 -0.0721
  350POPC   C4A 4196  16.393   3.026   6.884 -0.0941  0.1514 -0.2196
  350POPC   C1B 4197  16.886   2.995   8.170 -0.0238 -0.2807  0.2837
  350POPC   C2B 4198  16.796   3.055   7.744  0.1373 -0.0910 -0.1423
  350POPC   C3B 4199  16.724   3.244   7.364 -0.0905 -0.0836  0.0113
  350POPC   C4B 4200  16.570   3.667   7.321 -0.3705 -0.1019 -0.1953
  351POPC   NC3 4201   9.131  14.406   8.947 -0.0317 -0.1282  0.2139
  351POPC   PO4 4202   9.368  14.254   9.243 -0.1815 -0.2072 -0.2316
  351POPC   GL1 4203   9.493  14.119   8.858 -0.0936  0.1548  0.2907
  351POPC   GL2 4204   9.269  14.052   8.570 -0.1400  0.2268 -0.1685
  351POPC   C1A 4205   9.796  14.146   8.465 -0.2613 -0.1096 -0.0434
  351POPC   D2A 4206   9.887  14.111   8.001  0.1720  0.1824 -0.1915
  351POPC   C3A 4207   9.969  13.954   7.542 -0.1167 -0.0954  0.2407
  351POPC   C4A 4208  10.177  13.737   7.167  0.0098 -0.2176 -0.1658
  351POPC   C1B 4209   9.329  14.024   8.127  0.1946  0.2806  0.0338
  351POPC   C2B 4210   9.608  13.738   7.882 -0.3962  0.0044 -0.3412
  351POPC   C3B 4211   9.814  13.425   7.593 -0.1139 -0.0892  0.5707
  351POPC   C4B 4212   9.701  13.037   7.479  0.2865  0.0841  0.0389
  352POPC   NC3 4213   0.251  14.126   8.151  0.2266 -0.1605  0.0096
  352POPC   PO4 4214  -0.037  13.879   8.267 -0.0355 -0.1164  0.0569
  352POPC   GL1 4215   0.034  13.677   7.903  0.0036  0.0556  0.2594
  352POPC   GL2 4216   0.119  13.852   7.735 -0.1759 -0.0284 -0.0740
  352POPC   C1A 4217  -0.178  13.432   7.573 -0.1323 -0.0794  0.1374
  352POPC   D2A 4218  -0.109  13.250   7.123 -0.3954  0.0527  0.1802
  352POPC   C3A 4219  -0.400  13.136   6.846  0.0571  0.0752  0.1886
  352POPC   C4A 4220  -0.733  13.055   6.629 -0.4765  0.0516  0.0840
  352POPC   C1B 4221   0.283  13.700   7.355 -0.0979  0.2342 -0.1814
  352POPC   C2B 4222   0.260  13.527   6.979  0.1300  0.0395  0.0686
  352POPC   C3B 4223  -0.131  13.510   6.709  0.0391 -0.0099 -0.0879
  352POPC   C4B 4224  -0.558  13.615   6.666 -0.0534  0.2220 -0.1473
  353POPC   NC3 4225  15.602  16.975   8.368  0.4296 -0.1619  0.2175
  353POPC   PO4 4226  15.490  16.618   8.338  0.4078 -0.1683  0.1640
  353POPC   GL1 4227  15.254  16.501   7.977 -0.0120 -0.1262  0.1794
  353POPC   GL2 4228  14.917  16.480   7.935 -0.0905 -0.0869  0.1013
  353POPC   C1A 4229  15.212  16.464   7.482 -0.2322  0.1364 -0.0681
  353POPC   D2A 4230  15.375  16.187   7.184  0.3890 -0.0173  0.3317
  353POPC   C3A 4231  15.396  16.397   6.694 -0.0532  0.2503  0.0479
  353POPC   C4A 4232  15.495  16.146   6.316  0.3514  0.0255 -0.0171
  353POPC   C1B 4233  14.686  16.407   7.501  0.4433 -0.0438  0.2946
  353POPC   C2B 4234  14.824  16.320   7.093 -0.2851  0.2571  0.2768
  353POPC   C3B 4235  14.861  16.516   6.648  0.0189 -0.0307 -0.0518
  353POPC   C4B 4236  15.092  16.631   6.277 -0.0950  0.2140 -0.1287
  354POPC   NC3 4237  10.216  14.426   9.039 -0.2016  0.0657 -0.0684
  354POPC   PO4 4238   9.914  14.613   9.214 -0.0780  0.0606  0.2504
  354POPC   GL1 4239   9.894  14.788   8.814  0.0845 -0.0597 -0.1765
  354POPC   GL2 4240   9.613  14.611   8.814 -0.1845 -0.2758 -0.2080
  354POPC   C1A 4241   9.639  14.953   8.451 -0.3406  0.3606  0.0426
  354POPC   D2A 4242   9.547  14.957   8.058  0.2315  0.0401  0.1084
  354POPC   C3A 4243   9.804  15.021   7.636 -0.1972 -0.0899  0.0038
  354POPC   C4A 4244   9.799  15.106   7.194  0.0712  0.0003 -0.0156
  354POPC   C1B 4245   9.446  14.513   8.386 -0.0067 -0.0985 -0.1662
  354POPC   C2B 4246   9.349  14.493   7.917 -0.1383  0.2550 -0.3475
  354POPC   C3B 4247   9.490  14.177   7.646  0.1069 -0.1713  0.3331
  354POPC   C4B 4248   9.520  13.779   7.374 -0.0161  0.0601  0.0558
  355POPC   NC3 4249   6.442   2.231  10.243  0.1631  0.0709  0.0909
  355POPC   PO4 4250   6.130   2.016  10.097 -0.1840  0.0996  0.2891
  355POPC   GL1 4251   6.275   2.286   9.794 -0.2531 -0.2521 -0.2153
  355POPC   GL2 4252   6.127   2.233   9.531 -0.0985  0.2093  0.0437
  355POPC   C1A 4253   6.554   2.693   9.786  0.1060 -0.2154  0.0469
  355POPC   D2A 4254   6.729   3.088   9.693 -0.0581 -0.0357 -0.1093
  355POPC   C3A 4255   6.865   2.989   9.237  0.1998  0.1177 -0.1031
  355POPC   C4A 4256   7.288   2.749   9.078 -0.1140 -0.1957  0.4358
  355POPC   C1B 4257   6.501   2.415   9.297 -0.1486  0.0552 -0.1533
  355POPC   C2B 4258   6.765   2.535   8.922  0.0703  0.0694 -0.1297
  355POPC   C3B 4259   6.904   2.950   8.745  0.3755 -0.3236 -0.0030
  355POPC   C4B 4260   7.086   3.297   8.947  0.1473 -0.1039 -0.0849
  356POPC   NC3 4261   3.821   6.132  10.112  0.0197 -0.0249  0.1614
  356POPC   PO4 4262   3.908   6.425   9.851  0.0535  0.2261  0.0655
  356POPC   GL1 4263   4.058   6.510   9.595 -0.0041  0.2197  0.0485
  356POPC   GL2 4264   4.349   6.475   9.569 -0.3937  0.3300 -0.2626
  356POPC   C1A 4265   4.155   6.672   9.147  0.2661 -0.0149  0.1536
  356POPC   D2A 4266   4.298   6.916   8.769  0.1999 -0.2366  0.0547
  356POPC   C3A 4267   4.682   6.857   8.557  0.1255  0.2217 -0.3770
  356POPC   C4A 4268   5.093   6.754   8.671  0.1732  0.0237  0.2108
  356POPC   C1B 4269   4.612   6.367   9.185 -0.0069  0.1511 -0.0359
  356POPC   C2B 4270   4.767   6.357   8.763 -0.2250 -0.0402 -0.3393
  356POPC   C3B 4271   4.994   6.380   8.398 -0.0910 -0.1128 -0.1712
  356POPC   C4B 4272   5.340   6.246   8.161  0.0503  0.2517  0.0378
  357POPC   NC3 4273   3.634  15.161   8.530  0.4298  0.0350 -0.1337
  357POPC   PO4 4274   3.487  14.929   8.257  0.0349  0.0628 -0.2406
  357POPC   GL1 4275   3.606  14.927   7.836  0.2196  0.0391  0.1079
  357POPC   GL2 4276   3.334  14.861   7.711  0.2634  0.1514 -0.0995
  357POPC   C1A 4277   3.911  15.121   7.539 -0.2345 -0.1581 -0.0794
  357POPC   D2A 4278   4.302  15.169   7.309 -0.1862 -0.1515 -0.3854
  357POPC   C3A 4279   4.366  15.165   6.867 -0.0273  0.1997 -0.1414
  357POPC   C4A 4280   4.468  14.880   6.536 -0.1102  0.0868 -0.1635
  357POPC   C1B 4281   3.321  14.979   7.278 -0.2197  0.0777  0.0895
  357POPC   C2B 4282   3.232  15.061   6.806  0.1429 -0.2955 -0.0427
  357POPC   C3B 4283   3.286  15.221   6.313 -0.1020 -0.0207  0.1122
  357POPC   C4B 4284   3.473  15.507   5.978  0.0514  0.1903  0.1528
  358POPC   NC3 4285  32.216  12.977   8.802 -0.0991 -0.0118  0.0612
  358POPC   PO4 4286  32.357  12.654   8.680 -0.3517 -0.0085  0.1770
  358POPC   GL1 4287  32.481  12.364   8.440  0.2034 -0.1936  0.2340
  358POPC   GL2 4288  32.530  12.547   8.190  0.0542 -0.2154  0.0169
  358POPC   C1A 4289  32.089  12.360   8.198 -0.0278 -0.2129  0.2575
  358POPC   D2A 4290  31.756  12.035   8.174  0.1164  0.3828  0.1639
  358POPC   C3A 4291  31.570  12.001   7.757 -0.1824  0.1464 -0.1319
  358POPC   C4A 4292  31.438  11.991   7.316  0.1740 -0.0284 -0.1385
  358POPC   C1B 4293  32.342  12.420   7.803 -0.2427 -0.2093  0.3325
  358POPC   C2B 4294  32.381  12.376   7.314  0.0411  0.1457 -0.3374
  358POPC   C3B 4295  32.210  12.203   6.932 -0.0538  0.1110  0.0283
  358POPC   C4B 4296  32.002  12.044   6.621  0.1155 -0.1744 -0.1565
  359POPC   NC3 4297   5.055   0.184   9.319 -0.0003  0.0674 -0.1973
  359POPC   PO4 4298   4.927   0.235   8.939 -0.3886 -0.1118 -0.0161
  359POPC   GL1 4299   5.031  -0.041   8.691 -0.0371 -0.0624  0.1956
  359POPC   GL2 4300   4.813  -0.173   8.528 -0.0770 -0.1219  0.0968
  359POPC   C1A 4301   5.306  -0.035   8.330  0.0711 -0.2478  0.2355
  359POPC   D2A 4302   5.537  -0.310   8.068 -0.4477  0.2369 -0.3027
  359POPC   C3A 4303   5.744  -0.135   7.694  0.0232  0.0134  0.0503
  359POPC   C4A 4304   5.715  -0.064   7.231 -0.1030 -0.1398 -0.0951
  359POPC   C1B 4305   4.888   0.067   8.172 -0.0070  0.4015  0.0223
  359POPC   C2B 4306   4.769   0.123   7.720 -0.1588 -0.0678  0.0811
  359POPC   C3B 4307   4.843   0.501   7.471  0.3934 -0.0100 -0.3651
  359POPC   C4B 4308   4.829   0.766   7.117  0.1496 -0.2391 -0.0600
  360POPC   NC3 4309   5.984   3.107  11.260 -0.3390  0.0946  0.1788
  360POPC   PO4 4310   5.878   3.373  10.963 -0.0469 -0.2706  0.0950
  360POPC   GL1 4311   6.135   3.626  11.067 -0.4875  0.0757  0.2943
  360POPC   GL2 4312   5.970   3.845  11.125  0.0232  0.1155 -0.0698
  360POPC   C1A 4313   6.505   3.873  10.846 -0.3587 -0.2486  0.2534
  360POPC   D2A 4314   6.862   3.711  10.636 -0.0054  0.0873 -0.1163
  360POPC   C3A 4315   7.203   3.570  10.412  0.1555  0.1637 -0.3764
  360POPC   C4A 4316   7.623   3.416  10.422  0.0694  0.0060 -0.1608
  360POPC   C1B 4317   6.200   4.160  10.976  0.0166  0.2405 -0.2239
  360POPC   C2B 4318   6.647   4.397  10.965 -0.1357  0.0800  0.3536
  360POPC   C3B 4319   6.934   4.711  10.823 -0.0939 -0.0249 -0.0688
  360POPC   C4B 4320   7.194   5.062  10.612  0.1886  0.1913 -0.1270
  361POPC   NC3 4321  15.351  11.159   9.106  0.0744 -0.1148 -0.0597
  361POPC   PO4 4322  15.714  11.216   9.198  0.1014  0.0697  0.0173
  361POPC   GL1 4323  15.821  11.044   8.846 -0.1125  0.0824 -0.3322
  361POPC   GL2 4324  15.597  11.047   8.690 -0.0918 -0.0259 -0.2364
  361POPC   C1A 4325  16.150  10.908   8.579 -0.1512 -0.1359 -0.1176
  361POPC   D2A 4326  16.306  10.547   8.387  0.0734 -0.2897 -0.1856
  361POPC   C3A 4327  16.563  10.566   8.056 -0.1146  0.0354  0.1771
  361POPC   C4A 4328  16.531  10.481   7.587 -0.0806  0.1290  0.2516
  361POPC   C1B 4329  15.174  10.803   8.611  0.2932 -0.3104  0.0752
  361POPC   C2B 4330  14.927  10.395   8.575 -0.0005 -0.1323  0.2119
  361POPC   C3B 4331  14.857   9.983   8.391 -0.0813 -0.3576 -0.0598
  361POPC   C4B 4332  14.999   9.571   8.453  0.0825  0.1594  0.1088
  362POPC   NC3 4333   6.247  11.081   9.899  0.1127  0.0068  0.1575
  362POPC   PO4 4334   6.501  11.109  10.202 -0.2421 -0.0662  0.0918
  362POPC   GL1 4335   6.709  10.954   9.914 -0.2202 -0.2858  0.2555
  362POPC   GL2 4336   6.681  10.684   9.890  0.0747  0.0157 -0.0004
  362POPC   C1A 4337   6.741  10.994   9.476  0.0677  0.1442  0.0474
  362POPC   D2A 4338   6.467  11.022   9.069 -0.0587  0.1931  0.0255
  362POPC   C3A 4339   6.872  10.886   8.894  0.1276  0.1860  0.2682
  362POPC   C4A 4340   6.988  10.631   8.490 -0.0363 -0.1278  0.1008
  362POPC   C1B 4341   6.959  10.334   9.754  0.0904 -0.1379  0.0308
  362POPC   C2B 4342   7.281  10.052   9.702 -0.3471  0.0328 -0.2324
  362POPC   C3B 4343   7.712   9.987   9.873 -0.1709 -0.4459  0.0221
  362POPC   C4B 4344   8.025   9.726  10.063 -0.1956 -0.0723 -0.1061
  363POPC   NC3 4345  16.368   8.300   9.910  0.4043  0.0273  0.1779
  363POPC   PO4 4346  16.130   8.170   9.653  0.4247  0.3095  0.0780
  363POPC   GL1 4347  15.980   7.994   9.337 -0.0140 -0.1100 -0.0529
  363POPC   GL2 4348  15.901   8.122   9.169  0.2287  0.0078 -0.0437
  363POPC   C1A 4349  15.817   7.661   9.021  0.1079  0.1911 -0.1687
  363POPC   D2A 4350  15.489   7.514   8.743  0.0626 -0.0470  0.1329
  363POPC   C3A 4351  15.260   7.437   8.377 -0.2529  0.3286 -0.1565
  363POPC   C4A 4352  14.825   7.451   8.201  0.1632 -0.1388 -0.2464
  363POPC   C1B 4353  15.458   8.041   8.926  0.0002 -0.3033 -0.3648
  363POPC   C2B 4354  15.288   7.919   8.548 -0.4145 -0.0831 -0.1169
  363POPC   C3B 4355  15.052   7.893   8.156 -0.2346 -0.0834  0.0397
  363POPC   C4B 4356  14.806   8.253   7.852 -0.2461 -0.3058 -0.0015
  364POPC   NC3 4357  13.557   1.783  12.085  0.0669 -0.3754 -0.1736
  364POPC   PO4 4358  13.290   1.918  12.319  0.3534  0.0490 -0.2679
  364POPC   GL1 4359  12.923   1.742  12.569 -0.0111  0.1622 -0.1434
  364POPC   GL2 4360  12.673   1.800  12.359  0.0568  0.2338  0.1942
  364POPC   C1A 4361  12.697   2.085  12.775 -0.0748 -0.2481  0.1560
  364POPC   D2A 4362  12.472   2.521  12.674  0.1489  0.2401  0.3511
  364POPC   C3A 4363  12.710   2.916  12.718 -0.1855  0.2644  0.0708
  364POPC   C4A 4364  13.061   3.249  12.750 -0.1121  0.4337  0.3298
  364POPC   C1B 4365  12.568   2.221  12.329 -0.0982  0.0969 -0.3306
  364POPC   C2B 4366  12.214   2.401  12.087  0.3847  0.1985  0.1052
  364POPC   C3B 4367  11.765   2.332  12.036  0.0979 -0.0237  0.0919
  364POPC   C4B 4368  11.487   2.666  11.863  0.0418 -0.0678 -0.2840
  365POPC   NC3 4369  31.944   4.690   9.686  0.2675 -0.0203 -0.1560
  365POPC   PO4 4370  32.340   4.850   9.657 -0.0364  0.0777  0.0266
  365POPC   GL1 4371  32.240   4.813   9.314 -0.0214 -0.2222 -0.1377
  365POPC   GL2 4372  32.210   4.451   9.287  0.1729 -0.1567 -0.3085
  365POPC   C1A 4373  32.239   4.992   8.904 -0.1452  0.3062  0.0348
  365POPC   D2A 4374  32.103   4.988   8.468 -0.2354 -0.0977  0.1048
  365POPC   C3A 4375  32.240   4.955   8.057 -0.3943  0.0338  0.1277
  365POPC   C4A 4376  32.129   4.722   7.687 -0.3186 -0.2653  0.2864
  365POPC   C1B 4377  31.925   4.639   8.926  0.2067  0.3296  0.1696
  365POPC   C2B 4378  31.694   4.732   8.571  0.0365 -0.1802  0.0477
  365POPC   C3B 4379  31.291   4.803   8.301 -0.1883 -0.3477 -0.1324
  365POPC   C4B 4380  30.854   4.653   8.233  0.4093 -0.2342  0.2393
  366POPC   NC3 4381   6.171  13.372   9.173  0.0060 -0.2360  0.1235
  366POPC   PO4 4382   6.025  13.014   9.035 -0.0193 -0.3361 -0.1463
  366POPC   GL1 4383   5.911  13.020   8.660  0.3317  0.1885 -0.0328
  366POPC   GL2 4384   5.901  13.252   8.422  0.1632  0.0080 -0.0437
  366POPC   C1A 4385   5.998  12.778   8.237  0.0799 -0.0079  0.1419
  366POPC   D2A 4386   5.971  12.716   7.764  0.2283  0.3762  0.2473
  366POPC   C3A 4387   6.151  12.799   7.365 -0.0414  0.0737 -0.2679
  366POPC   C4A 4388   6.281  12.654   6.978  0.0589 -0.0333 -0.2931
  366POPC   C1B 4389   6.029  13.280   8.045 -0.0570  0.0691 -0.2935
  366POPC   C2B 4390   5.952  13.247   7.599 -0.3109 -0.2730 -0.2996
  366POPC   C3B 4391   6.006  13.499   7.239  0.1665  0.0584 -0.0681
  366POPC   C4B 4392   5.851  13.947   7.088 -0.1579 -0.0045  0.1476
  367POPC   NC3 4393  32.494  13.425   8.077  0.4408  0.0190 -0.2014
  367POPC   PO4 4394  32.409  13.254   8.431  0.0190 -0.3640 -0.1343
  367POPC   GL1 4395  32.303  12.953   8.166 -0.1907  0.2622 -0.0613
  367POPC   GL2 4396  32.010  12.917   8.331  0.0117 -0.2395 -0.1365
  367POPC   C1A 4397  32.333  13.056   7.710  0.0150  0.2875 -0.0353
  367POPC   D2A 4398  32.251  12.990   7.252 -0.2159 -0.2963 -0.1525
  367POPC   C3A 4399  32.109  12.675   6.983  0.1663  0.1947  0.1230
  367POPC   C4A 4400  32.198  12.532   6.545  0.3945  0.5115  0.0162
  367POPC   C1B 4401  31.937  12.755   7.884  0.0276  0.3774  0.0152
  367POPC   C2B 4402  31.924  12.411   7.515 -0.0787 -0.0276 -0.0363
  367POPC   C3B 4403  31.689  12.423   7.111 -0.3605  0.2085 -0.0696
  367POPC   C4B 4404  31.305  12.299   6.867  0.0972  0.0335  0.1947
  368POPC   NC3 4405  16.968  12.458   8.507  0.1916  0.2166  0.1498
  368POPC   PO4 4406  16.691  12.429   8.198 -0.2699  0.2004  0.1481
  368POPC   GL1 4407  16.503  12.651   7.856 -0.2083  0.3324  0.1647
  368POPC   GL2 4408  16.243  12.404   7.762 -0.0321 -0.1545  0.2137
  368POPC   C1A 4409  16.495  12.726   7.422  0.0642  0.2881 -0.2178
  368POPC   D2A 4410  16.590  12.568   6.979 -0.0808 -0.1083 -0.1126
  368POPC   C3A 4411  16.996  12.791   6.744 -0.0846 -0.2824 -0.4375
  368POPC   C4A 4412  17.191  13.219   6.630  0.0101  0.2326  0.2276
  368POPC   C1B 4413  16.201  12.356   7.287  0.2227 -0.1347 -0.0898
  368POPC   C2B 4414  16.115  12.244   6.828  0.0467  0.2006 -0.0699
  368POPC   C3B 4415  16.128  11.785   6.727  0.1245  0.1479  0.2479
  368POPC   C4B 4416  15.919  11.450   6.510 -0.2828  0.0590 -0.0591
  369POPC   NC3 4417  13.969   8.187  12.074  0.1108 -0.0198  0.3497
  369POPC   PO4 4418  14.156   8.284  11.736  0.0635  0.0429 -0.0946
  369POPC   GL1 4419  13.929   8.109  11.493  0.4505  0.1775 -0.0290
  369POPC   GL2 4420  13.897   7.807  11.680  0.3918 -0.1110 -0.6040
  369POPC   C1A 4421  13.520   7.914  11.394  0.2180  0.0121  0.1196
  369POPC   D2A 4422  13.136   7.999  11.473  0.0804  0.1754  0.1162
  369POPC   C3A 4423  12.848   7.639  11.500 -0.1285 -0.3414  0.0326
  369POPC   C4A 4424  12.545   7.399  11.382  0.0145 -0.1789 -0.1129
  369POPC   C1B 4425  13.503   7.910  11.868 -0.1623  0.0385  0.1909
  369POPC   C2B 4426  13.079   7.935  11.997  0.0548 -0.1198 -0.1288
  369POPC   C3B 4427  12.623   7.902  11.888  0.0247  0.1277 -0.0522
  369POPC   C4B 4428  12.445   8.014  11.440  0.1263 -0.1191 -0.2705
  370POPC   NC3 4429   1.812   5.972   9.318 -0.1208  0.0556 -0.2284
  370POPC   PO4 4430   2.108   5.723   9.429 -0.2374  0.0971  0.0252
  370POPC   GL1 4431   2.107   5.689   9.010  0.5273 -0.2293 -0.1275
  370POPC   GL2 4432   2.308   5.898   8.930  0.1768 -0.0670 -0.0158
  370POPC   C1A 4433   1.946   5.713   8.569  0.1864  0.0972  0.1397
  370POPC   D2A 4434   1.996   5.740   8.099 -0.0323  0.0614 -0.0617
  370POPC   C3A 4435   2.351   5.791   7.816  0.1349 -0.0692  0.0014
  370POPC   C4A 4436   2.498   6.035   7.414 -0.0467 -0.2502  0.0043
  370POPC   C1B 4437   2.176   6.113   8.495  0.1016  0.0290  0.1273
  370POPC   C2B 4438   2.045   6.273   8.077 -0.1833 -0.1315 -0.2715
  370POPC   C3B 4439   2.212   6.318   7.650 -0.2561 -0.0491 -0.2253
  370POPC   C4B 4440   2.181   6.598   7.308 -0.0827 -0.2036  0.2384
  371POPC   NC3 4441   6.009   2.138  13.542  0.1961 -0.0220  0.0511
  371POPC   PO4 4442   5.743   1.904  13.691 -0.3767 -0.0943  0.3133
  371POPC   GL1 4443   5.824   2.005  14.022  0.2393 -0.2746  0.1472
  371POPC   GL2 4444   6.095   1.878  14.121 -0.0289 -0.1063  0.2732
  371POPC   C1A 4445   6.159   2.335  14.061 -0.1762 -0.1395  0.2999
  371POPC   D2A 4446   6.159   2.652  14.418  0.0353 -0.2241 -0.0713
  371POPC   C3A 4447   6.436   3.004  14.407  0.0189  0.2180  0.0940
  371POPC   C4A 4448   6.663   3.341  14.543 -0.1437  0.0984 -0.6048
  371POPC   C1B 4449   6.152   2.084  14.455  0.0535 -0.0466 -0.2493
  371POPC   C2B 4450   6.462   2.366  14.651  0.1528  0.1308  0.0575
  371POPC   C3B 4451   6.620   2.775  14.847 -0.0082 -0.2768 -0.0502
  371POPC   C4B 4452   6.499   3.142  15.052 -0.1385 -0.0474  0.0779
  372POPC   NC3 4453   0.531   8.969   9.071 -0.0929 -0.3081 -0.2365
  372POPC   PO4 4454   0.477   8.622   9.244  0.2472 -0.1278  0.2145
  372POPC   GL1 4455   0.200   8.370   9.109 -0.0033 -0.1274 -0.2714
  372POPC   GL2 4456   0.273   8.100   9.208 -0.3002  0.0009  0.0654
  372POPC   C1A 4457   0.013   8.382   8.669  0.0574  0.3660  0.0465
  372POPC   D2A 4458   0.049   8.355   8.205 -0.2134  0.0651  0.1017
  372POPC   C3A 4459  -0.311   8.249   7.894 -0.0976 -0.0537  0.0269
  372POPC   C4A 4460  -0.718   8.172   7.836 -0.0933 -0.3555  0.2099
  372POPC   C1B 4461   0.444   8.100   8.810  0.1103 -0.3268  0.3181
  372POPC   C2B 4462   0.589   8.028   8.362 -0.0967  0.1679  0.2251
  372POPC   C3B 4463   0.635   7.801   7.984  0.3825 -0.0739 -0.0276
  372POPC   C4B 4464   0.681   7.673   7.610  0.1591 -0.1668  0.1499
  373POPC   NC3 4465   2.491  14.814   8.166 -0.3326  0.2156 -0.0161
  373POPC   PO4 4466   2.761  14.501   8.212  0.0950 -0.0200 -0.0644
  373POPC   GL1 4467   2.764  14.448   7.759 -0.2044  0.4893 -0.0788
  373POPC   GL2 4468   2.739  14.680   7.742 -0.2848  0.2112 -0.0666
  373POPC   C1A 4469   2.686  14.121   7.399 -0.2019 -0.0721  0.0385
  373POPC   D2A 4470   2.701  13.754   7.096 -0.1606 -0.0061 -0.0779
  373POPC   C3A 4471   2.869  13.602   6.641  0.0487  0.0828  0.3519
  373POPC   C4A 4472   2.945  13.331   6.182  0.1376  0.0447 -0.0694
  373POPC   C1B 4473   2.880  15.073   7.479  0.0895  0.1859 -0.0649
  373POPC   C2B 4474   2.697  15.105   7.064  0.1636 -0.4273 -0.0423
  373POPC   C3B 4475   2.647  15.172   6.650 -0.4395 -0.0460  0.1415
  373POPC   C4B 4476   2.797  15.444   6.282 -0.1147 -0.0555 -0.1280
  374POPC   NC3 4477  14.468   8.125  10.823 -0.1202  0.1500 -0.1682
  374POPC   PO4 4478  14.319   8.503  10.886  0.0834  0.1300  0.0727
  374POPC   GL1 4479  14.147   8.510  10.595  0.1863  0.2502  0.1842
  374POPC   GL2 4480  14.287   8.785  10.445 -0.3847  0.2581 -0.1260
  374POPC   C1A 4481  13.833   8.128  10.560 -0.3186 -0.0440  0.0319
  374POPC   D2A 4482  13.469   7.955  10.405  0.4115 -0.2908  0.1432
  374POPC   C3A 4483  13.324   7.829  10.031 -0.0232  0.1687 -0.1530
  374POPC   C4A 4484  12.980   7.795   9.753  0.1033 -0.0467 -0.0341
  374POPC   C1B 4485  13.956   8.490  10.221  0.2294  0.2536 -0.0464
  374POPC   C2B 4486  13.708   8.196   9.975  0.3077  0.1306 -0.1842
  374POPC   C3B 4487  13.611   8.220   9.575  0.0816  0.2382 -0.1666
  374POPC   C4B 4488  13.289   8.049   9.350 -0.5087 -0.3071 -0.0048
  375POPC   NC3 4489   3.003  12.448   8.283 -0.0486  0.2619 -0.1497
  375POPC   PO4 4490   2.785  12.239   8.037  0.1132  0.4476 -0.1755
  375POPC   GL1 4491   2.799  12.163   7.652  0.5360 -0.0937 -0.0933
  375POPC   GL2 4492   2.990  11.924   7.598  0.0386 -0.4429  0.0625
  375POPC   C1A 4493   2.465  12.246   7.379 -0.0709  0.0414 -0.0354
  375POPC   D2A 4494   2.424  12.299   6.916 -0.0539 -0.1727 -0.0426
  375POPC   C3A 4495   2.836  12.208   6.723 -0.0701 -0.0519  0.0862
  375POPC   C4A 4496   3.218  12.013   6.802 -0.2045  0.3818  0.2938
  375POPC   C1B 4497   2.896  11.943   7.212  0.0778 -0.2114  0.0793
  375POPC   C2B 4498   2.825  11.644   6.824 -0.0913 -0.1003 -0.0397
  375POPC   C3B 4499   3.059  11.581   6.431  0.1642 -0.0153  0.0616
  375POPC   C4B 4500   3.242  11.216   6.193  0.0621  0.0007 -0.0897
  376POPC   NC3 4501  16.548  14.013   8.300 -0.0252  0.1492 -0.0769
  376POPC   PO4 4502  16.204  14.193   8.348  0.1163 -0.1342  0.0202
  376POPC   GL1 4503  16.016  14.105   7.994 -0.0060  0.0793 -0.0907
  376POPC   GL2 4504  16.284  13.962   7.883  0.0048  0.1503  0.2856
  376POPC   C1A 4505  15.943  14.033   7.550 -0.2437  0.2007 -0.0857
  376POPC   D2A 4506  16.088  13.929   7.196 -0.1423  0.0645  0.0459
  376POPC   C3A 4507  16.485  13.658   7.120 -0.1112 -0.0938  0.0703
  376POPC   C4A 4508  16.749  13.375   6.794 -0.1087  0.2381 -0.3173
  376POPC   C1B 4509  16.566  13.617   7.815  0.0781 -0.1395 -0.0537
  376POPC   C2B 4510  16.494  13.308   7.485  0.2734 -0.1795 -0.0297
  376POPC   C3B 4511  16.473  13.105   7.094  0.0375 -0.2121 -0.1970
  376POPC   C4B 4512  16.373  12.891   6.676 -0.1004  0.0686 -0.0614
  377POPC   NC3 4513  16.303   7.077   9.379  0.0592  0.1463  0.0514
  377POPC   PO4 4514  16.528   6.783   9.360  0.0154 -0.0946 -0.2072
  377POPC   GL1 4515  16.316   6.612   9.064  0.2850 -0.2470 -0.0252
  377POPC   GL2 4516  16.388   6.298   9.118 -0.4899 -0.0664  0.0609
  377POPC   C1A 4517  16.194   6.835   8.625 -0.0050  0.2808 -0.1067
  377POPC   D2A 4518  15.905   6.619   8.358  0.2359 -0.0497 -0.0171
  377POPC   C3A 4519  15.838   6.298   8.025  0.1574  0.3728 -0.1327
  377POPC   C4A 4520  15.746   5.947   7.760 -0.1238  0.0459 -0.2227
  377POPC   C1B 4521  16.079   6.279   8.794  0.1200 -0.0331  0.2824
  377POPC   C2B 4522  15.743   6.121   8.503  0.0708  0.0544 -0.1560
  377POPC   C3B 4523  15.472   5.839   8.209  0.1114 -0.2363 -0.0464
  377POPC   C4B 4524  15.147   5.688   7.894 -0.2760  0.1826  0.0509
  378POPC   NC3 4525  14.045   4.853  11.270  0.0606  0.1709  0.2833
  378POPC   PO4 4526  14.130   4.548  11.547  0.0218  0.1200 -0.3485
  378POPC   GL1 4527  13.714   4.574  11.541  0.1162 -0.0695  0.0525
  378POPC   GL2 4528  13.665   4.284  11.631  0.2002 -0.1180 -0.0660
  378POPC   C1A 4529  13.454   4.940  11.422 -0.0125 -0.0729  0.0923
  378POPC   D2A 4530  13.222   5.248  11.242 -0.1761 -0.0928 -0.1835
  378POPC   C3A 4531  13.217   5.249  10.809 -0.0923  0.2157  0.0500
  378POPC   C4A 4532  12.994   4.989  10.466  0.3516 -0.2404 -0.2208
  378POPC   C1B 4533  13.244   4.451  11.536  0.3183  0.0297 -0.1581
  378POPC   C2B 4534  12.778   4.537  11.581  0.0494 -0.0726 -0.1649
  378POPC   C3B 4535  12.333   4.580  11.601 -0.2300  0.0830  0.0607
  378POPC   C4B 4536  12.102   4.945  11.687  0.0244 -0.3579  0.2628
  379POPC   NC3 4537  13.983   2.481  14.331 -0.3269 -0.2562  0.0260
  379POPC   PO4 4538  14.032   2.112  14.470  0.0828  0.3316 -0.3078
  379POPC   GL1 4539  13.726   2.038  14.768 -0.1078 -0.0778  0.0281
  379POPC   GL2 4540  13.447   1.975  14.763 -0.0601  0.1195  0.2466
  379POPC   C1A 4541  13.575   2.149  15.177 -0.1135 -0.0445  0.2386
  379POPC   D2A 4542  13.188   2.170  15.398  0.2357  0.4452  0.1754
  379POPC   C3A 4543  12.786   2.234  15.682 -0.2574  0.2386  0.0719
  379POPC   C4A 4544  12.508   2.283  15.976  0.1035  0.0090 -0.1276
  379POPC   C1B 4545  13.062   2.240  14.872  0.0581  0.1205 -0.1232
  379POPC   C2B 4546  12.806   2.558  15.094 -0.2395 -0.2973 -0.2222
  379POPC   C3B 4547  12.456   2.553  15.389 -0.1647 -0.0179  0.0350
  379POPC   C4B 4548  12.098   2.392  15.664  0.0768  0.2380 -0.1059
  380POPC   NC3 4549   3.838   9.623   9.242 -0.0634 -0.0624  0.0508
  380POPC   PO4 4550   3.763   9.223   9.173  0.1261  0.1688  0.1187
  380POPC   GL1 4551   3.825   9.041   8.688 -0.0311  0.2378  0.0868
  380POPC   GL2 4552   3.563   9.215   8.661 -0.3014  0.2091  0.2061
  380POPC   C1A 4553   4.137   8.886   8.325 -0.0400 -0.0052 -0.1051
  380POPC   D2A 4554   4.404   8.634   8.053  0.2053  0.0657  0.1532
  380POPC   C3A 4555   4.429   8.561   7.609  0.2092 -0.0753  0.0378
  380POPC   C4A 4556   4.257   8.274   7.257  0.0318  0.1377  0.0027
  380POPC   C1B 4557   3.643   8.915   8.290  0.0435  0.0056 -0.0201
  380POPC   C2B 4558   3.863   8.687   7.917  0.0283  0.2111  0.4218
  380POPC   C3B 4559   3.855   8.417   7.499  0.2750  0.1093  0.0648
  380POPC   C4B 4560   3.530   8.163   7.263 -0.0861 -0.0704 -0.1340
  381POPC   NC3 4561  16.956  10.183   9.214  0.0991 -0.1823 -0.1098
  381POPC   PO4 4562  16.849  10.354   8.917  0.3042  0.0741  0.2754
  381POPC   GL1 4563  17.046  10.290   8.606  0.2155  0.0870 -0.0798
  381POPC   GL2 4564  17.031   9.973   8.602  0.1365 -0.3018  0.2689
  381POPC   C1A 4565  17.012  10.412   8.127  0.1881  0.0413 -0.2023
  381POPC   D2A 4566  17.001  10.388   7.706 -0.2212  0.0628  0.0424
  381POPC   C3A 4567  16.662   9.998   7.675  0.0405 -0.0255  0.1619
  381POPC   C4A 4568  16.424   9.679   7.977  0.2320 -0.1107  0.1747
  381POPC   C1B 4569  16.973   9.944   8.125 -0.1436 -0.0667 -0.0616
  381POPC   C2B 4570  17.003   9.611   7.830 -0.1460 -0.3156  0.1337
  381POPC   C3B 4571  16.994   9.484   7.366  0.0324 -0.0484 -0.0035
  381POPC   C4B 4572  16.865   9.741   6.934  0.2783  0.1100  0.0999
  382POPC   NC3 4573  16.115  10.892   9.308 -0.1191 -0.0937  0.3358
  382POPC   PO4 4574  15.945  10.569   9.206  0.0352  0.0362 -0.0112
  382POPC   GL1 4575  15.706  10.601   8.837  0.4743 -0.0960  0.2652
  382POPC   GL2 4576  15.441  10.554   8.981 -0.3967  0.0636  0.0055
  382POPC   C1A 4577  15.792  10.637   8.361  0.0427 -0.2681 -0.0551
  382POPC   D2A 4578  15.988  10.612   7.946 -0.1034 -0.1316  0.0942
  382POPC   C3A 4579  16.032  10.457   7.546 -0.2013 -0.1008 -0.0619
  382POPC   C4A 4580  16.030  10.185   7.190  0.2465  0.1500  0.2024
  382POPC   C1B 4581  15.410  10.355   8.541 -0.4815 -0.4829 -0.1780
  382POPC   C2B 4582  15.156  10.270   8.121 -0.2332 -0.0852 -0.0248
  382POPC   C3B 4583  15.144  10.485   7.767 -0.0715 -0.4238 -0.2274
  382POPC   C4B 4584  14.896  10.685   7.429 -0.0947 -0.4300  0.0258
  383POPC   NC3 4585  10.972   1.014  12.750  0.3062  0.2349  0.0317
  383POPC   PO4 4586  11.132   1.020  13.088 -0.1486 -0.1715 -0.2273
  383POPC   GL1 4587  11.059   1.409  13.051  0.0416 -0.2590 -0.1383
  383POPC   GL2 4588  11.014   1.507  13.286 -0.1052  0.0779 -0.2322
  383POPC   C1A 4589  11.354   1.766  12.974  0.2165  0.1670  0.1579
  383POPC   D2A 4590  11.552   2.169  12.906  0.4033  0.1959 -0.0325
  383POPC   C3A 4591  11.467   2.654  12.836  0.1141  0.1108 -0.0100
  383POPC   C4A 4592  11.596   3.097  12.835  0.2038  0.0994  0.0469
  383POPC   C1B 4593  10.969   1.906  13.450  0.0772 -0.1457 -0.1371
  383POPC   C2B 4594  11.016   2.316  13.568 -0.3093 -0.1270 -0.0682
  383POPC   C3B 4595  10.822   2.689  13.704  0.3752  0.2329  0.0686
  383POPC   C4B 4596  10.517   2.974  13.949 -0.1427  0.5361 -0.3707
  384POPC   NC3 4597  13.070  16.391   9.103  0.2585  0.0879 -0.2279
  384POPC   PO4 4598  12.740  16.415   8.907  0.2795 -0.1723 -0.1519
  384POPC   GL1 4599  12.709  16.604   8.544 -0.1038 -0.3160 -0.2175
  384POPC   GL2 4600  12.774  16.380   8.423 -0.2977 -0.1359 -0.0480
  384POPC   C1A 4601  12.346  16.805   8.228 -0.1577 -0.1791 -0.1149
  384POPC   D2A 4602  12.328  16.795   7.777 -0.1264  0.1482  0.1517
  384POPC   C3A 4603  12.629  16.991   7.570  0.0568  0.0331  0.2351
  384POPC   C4A 4604  12.602  17.036   7.159  0.0733  0.2487  0.1863
  384POPC   C1B 4605  12.713  16.513   7.998 -0.0170 -0.2549 -0.1199
  384POPC   C2B 4606  12.959  16.537   7.635  0.1119 -0.0049 -0.2524
  384POPC   C3B 4607  13.100  16.599   7.234  0.1953  0.2621 -0.1703
  384POPC   C4B 4608  13.333  16.801   6.838  0.0041 -0.2790 -0.2338
  385POPC   NC3 4609   1.543   7.922   9.492  0.0742 -0.3208 -0.0137
  385POPC   PO4 4610   1.864   8.103   9.419 -0.0975  0.0174 -0.0989
  385POPC   GL1 4611   1.977   8.053   9.039  0.0627 -0.0541  0.2050
  385POPC   GL2 4612   1.744   8.136   8.908 -0.0482  0.0981  0.1529
  385POPC   C1A 4613   2.276   8.284   8.803 -0.0023 -0.3244  0.1058
  385POPC   D2A 4614   2.616   8.256   8.497 -0.1772 -0.0138  0.1067
  385POPC   C3A 4615   2.493   8.258   8.047 -0.0268  0.0276 -0.1682
  385POPC   C4A 4616   2.423   8.086   7.645 -0.2486  0.3157 -0.1367
  385POPC   C1B 4617   1.897   8.074   8.500 -0.0508  0.1220  0.2715
  385POPC   C2B 4618   2.041   7.935   8.080 -0.1553 -0.2502 -0.0679
  385POPC   C3B 4619   2.217   7.588   7.821 -0.0216 -0.1027 -0.1027
  385POPC   C4B 4620   2.259   7.219   7.539 -0.1793 -0.3461  0.1258
  386POPC   NC3 4621  13.744   2.157  10.306  0.3459  0.2710  0.1374
  386POPC   PO4 4622  13.878   2.315   9.965  0.2114  0.0009  0.0889
  386POPC   GL1 4623  13.575   2.520  10.112  0.2494 -0.1982  0.2818
  386POPC   GL2 4624  13.432   2.436   9.822 -0.2175 -0.0229 -0.1775
  386POPC   C1A 4625  13.355   2.899   9.983 -0.2627  0.1673 -0.4958
  386POPC   D2A 4626  12.914   3.060   9.997  0.0613  0.0972 -0.2674
  386POPC   C3A 4627  12.735   3.149   9.582 -0.0229  0.2070  0.2021
  386POPC   C4A 4628  12.428   3.474   9.433 -0.1112  0.1620 -0.4075
  386POPC   C1B 4629  13.191   2.312   9.430  0.0090 -0.0356 -0.4960
  386POPC   C2B 4630  12.998   2.285   9.013  0.1547  0.0853 -0.2413
  386POPC   C3B 4631  12.659   2.325   8.682 -0.4608 -0.0490  0.0665
  386POPC   C4B 4632  12.395   2.471   8.345 -0.3012  0.1692 -0.0348
  387POPC   NC3 4633   1.526   6.846   9.508 -0.0417  0.0094  0.1389
  387POPC   PO4 4634   1.691   6.494   9.382 -0.3065 -0.0048 -0.2110
  387POPC   GL1 4635   1.632   6.568   8.941  0.2993 -0.0942  0.0651
  387POPC   GL2 4636   1.411   6.793   8.965  0.2306 -0.3390 -0.0640
  387POPC   C1A 4637   1.741   6.578   8.505  0.0994 -0.1101  0.0913
  387POPC   D2A 4638   1.675   6.598   8.040  0.1668 -0.1444  0.0142
  387POPC   C3A 4639   1.381   6.783   7.708 -0.6452 -0.1119 -0.1362
  387POPC   C4A 4640   1.032   6.848   7.414  0.0958  0.1494 -0.5832
  387POPC   C1B 4641   1.287   6.740   8.564 -0.1715 -0.2012 -0.0779
  387POPC   C2B 4642   1.223   6.915   8.157  0.2212  0.1455 -0.2527
  387POPC   C3B 4643   1.023   7.219   7.808  0.3387 -0.0800  0.1976
  387POPC   C4B 4644   1.037   7.405   7.357  0.3148  0.0036  0.2882
  388POPC   NC3 4645  15.032  10.585   9.524  0.0727  0.1152 -0.0187
  388POPC   PO4 4646  14.751  10.613   9.806 -0.1202  0.1454  0.1517
  388POPC   GL1 4647  14.552  10.664   9.438  0.1965  0.1518 -0.0649
  388POPC   GL2 4648  14.641  10.423   9.269 -0.0437  0.1619 -0.1586
  388POPC   C1A 4649  14.456  10.807   9.008 -0.1572  0.1555 -0.0329
  388POPC   D2A 4650  14.604  10.920   8.565 -0.0259  0.0338  0.0537
  388POPC   C3A 4651  14.886  10.846   8.212  0.3370 -0.1130 -0.1060
  388POPC   C4A 4652  15.347  10.753   8.129  0.0198  0.0604 -0.2142
  388POPC   C1B 4653  14.477  10.330   8.794  0.2594  0.1995 -0.0291
  388POPC   C2B 4654  14.335  10.122   8.449  0.0557  0.0905 -0.0612
  388POPC   C3B 4655  14.205  10.118   7.990 -0.1438 -0.0838 -0.0706
  388POPC   C4B 4656  13.957  10.060   7.601 -0.1592  0.0627 -0.0947
  389POPC   NC3 4657   6.730   0.752  14.565 -0.0439 -0.3041 -0.2394
  389POPC   PO4 4658   6.737   0.668  14.184 -0.1116 -0.4437  0.1723
  389POPC   GL1 4659   7.007   1.026  14.312 -0.0246  0.2826 -0.1879
  389POPC   GL2 4660   6.903   1.277  14.530  0.3929  0.1547  0.2237
  389POPC   C1A 4661   7.404   1.189  14.223  0.1658  0.1798  0.0497
  389POPC   D2A 4662   7.823   1.313  14.364  0.3093  0.0479  0.0913
  389POPC   C3A 4663   8.050   1.665  14.488  0.1552  0.0416 -0.2451
  389POPC   C4A 4664   8.339   1.903  14.836 -0.2714  0.2168 -0.1538
  389POPC   C1B 4665   7.061   1.540  14.845  0.1567 -0.0815  0.1259
  389POPC   C2B 4666   7.385   1.619  15.199  0.0780  0.3000 -0.1297
  389POPC   C3B 4667   7.685   1.533  15.533  0.3172 -0.0979  0.1039
  389POPC   C4B 4668   8.138   1.589  15.665  0.1585 -0.0840 -0.2728
  390POPC   NC3 4669  13.122  15.192   8.732 -0.1907  0.1564  0.0946
  390POPC   PO4 4670  13.517  15.187   8.798  0.0238  0.0146 -0.1302
  390POPC   GL1 4671  13.555  15.478   8.575 -0.0810  0.5104  0.2193
  390POPC   GL2 4672  13.287  15.636   8.494 -0.0655 -0.2393 -0.0015
  390POPC   C1A 4673  13.425  15.323   8.170 -0.0410 -0.0171  0.0452
  390POPC   D2A 4674  13.183  15.002   7.921 -0.0905  0.2343  0.0286
  390POPC   C3A 4675  12.875  14.920   7.560 -0.1227 -0.2849 -0.3041
  390POPC   C4A 4676  12.545  14.834   7.289  0.0280  0.0040  0.0944
  390POPC   C1B 4677  13.120  15.926   8.182 -0.0521 -0.0364  0.0343
  390POPC   C2B 4678  12.831  16.061   7.803 -0.0456 -0.0561 -0.2336
  390POPC   C3B 4679  12.742  16.156   7.396  0.2459 -0.0745 -0.4240
  390POPC   C4B 4680  12.743  16.407   6.982 -0.0643 -0.0118  0.2156
  391POPC   NC3 4681   2.624  16.299   8.374  0.0151  0.2386 -0.1932
  391POPC   PO4 4682   2.912  16.057   8.399  0.1255 -0.1583  0.2092
  391POPC   GL1 4683   2.894  16.075   8.046 -0.1023 -0.1362 -0.1024
  391POPC   GL2 4684   2.978  15.859   7.959 -0.2391  0.3567 -0.0360
  391POPC   C1A 4685   3.131  16.202   7.671 -0.2525 -0.0114 -0.1266
  391POPC   D2A 4686   3.132  16.484   7.334 -0.2995  0.2451 -0.1012
  391POPC   C3A 4687   3.471  16.458   7.016  0.1125  0.0189  0.0920
  391POPC   C4A 4688   3.892  16.508   6.778  0.1899 -0.0056 -0.0380
  391POPC   C1B 4689   3.047  15.530   7.663 -0.0486 -0.1506  0.0978
  391POPC   C2B 4690   3.046  15.484   7.190  0.2724  0.1864 -0.1765
  391POPC   C3B 4691   3.008  15.563   6.746  0.1910 -0.0937  0.1207
  391POPC   C4B 4692   3.325  15.700   6.431 -0.0395 -0.0041  0.1106
  392POPC   NC3 4693  15.523   4.150   9.838  0.0314 -0.0511 -0.2015
  392POPC   PO4 4694  15.189   4.044   9.923  0.2235 -0.1655  0.1282
  392POPC   GL1 4695  14.864   4.023   9.716 -0.1272  0.1677  0.0443
  392POPC   GL2 4696  14.951   3.875   9.493 -0.1786 -0.1209  0.0582
  392POPC   C1A 4697  14.660   4.317   9.422 -0.1042  0.0685  0.2749
  392POPC   D2A 4698  14.632   4.257   8.977 -0.0709  0.1681 -0.0928
  392POPC   C3A 4699  14.350   4.489   8.673  0.1690  0.2088 -0.0429
  392POPC   C4A 4700  14.039   4.639   8.409 -0.0900  0.0861 -0.1288
  392POPC   C1B 4701  14.803   3.780   9.110  0.0695  0.3171  0.2895
  392POPC   C2B 4702  14.891   3.869   8.620 -0.0406  0.0259 -0.1850
  392POPC   C3B 4703  14.674   4.119   8.310 -0.2495 -0.0805 -0.2204
  392POPC   C4B 4704  14.385   4.426   8.193 -0.0437  0.1218 -0.1836
  393POPC   NC3 4705   2.974   3.075   9.375 -0.1986  0.1831  0.2314
  393POPC   PO4 4706   2.909   3.375   9.114  0.0135 -0.2000  0.0878
  393POPC   GL1 4707   3.028   3.366   8.745 -0.2922  0.5327  0.0579
  393POPC   GL2 4708   3.324   3.468   8.824 -0.1756  0.0214  0.1624
  393POPC   C1A 4709   2.873   3.554   8.373  0.0919  0.1622 -0.0228
  393POPC   D2A 4710   2.860   3.994   8.272  0.0266  0.1485 -0.3058
  393POPC   C3A 4711   2.855   3.804   7.858 -0.2689 -0.0937 -0.4108
  393POPC   C4A 4712   2.886   4.018   7.480 -0.0228 -0.2758  0.2059
  393POPC   C1B 4713   3.525   3.505   8.393 -0.1138  0.0981  0.3323
  393POPC   C2B 4714   3.327   3.459   7.933 -0.1622  0.0390  0.2611
  393POPC   C3B 4715   3.517   3.299   7.601  0.0900  0.2349 -0.0874
  393POPC   C4B 4716   3.562   3.026   7.205  0.1700 -0.0357  0.1941
  394POPC   NC3 4717  15.383  16.072   7.869  0.0336  0.1661 -0.0301
  394POPC   PO4 4718  15.735  16.260   8.020  0.5518  0.2970 -0.1637
  394POPC   GL1 4719  15.832  16.322   7.711 -0.2110 -0.2969  0.1343
  394POPC   GL2 4720  15.730  16.198   7.488  0.2888 -0.0738  0.1605
  394POPC   C1A 4721  16.019  16.625   7.407  0.2002  0.1071  0.0697
  394POPC   D2A 4722  15.874  16.951   7.145  0.2915 -0.1257 -0.0553
  394POPC   C3A 4723  15.783  16.787   6.698  0.1664  0.3377 -0.0214
  394POPC   C4A 4724  16.115  16.777   6.346  0.1748 -0.1285  0.1652
  394POPC   C1B 4725  15.884  16.212   7.080 -0.1502  0.0327  0.0183
  394POPC   C2B 4726  15.708  15.931   6.773 -0.4652 -0.0055  0.0340
  394POPC   C3B 4727  15.468  15.626   6.512 -0.0898 -0.0935 -0.1654
  394POPC   C4B 4728  15.209  15.311   6.238 -0.0062 -0.1049 -0.1833
  395POPC   NC3 4729  14.241  32.564  16.051  0.4789  0.0070 -0.1672
  395POPC   PO4 4730  14.472  32.902  15.970 -0.1018 -0.0770 -0.0487
  395POPC   GL1 4731  14.509  32.808  16.392  0.4364  0.0615  0.0800
  395POPC   GL2 4732  14.413  32.558  16.515 -0.3901  0.1275  0.0635
  395POPC   C1A 4733  14.657  32.940  16.767 -0.3259 -0.0575  0.2910
  395POPC   D2A 4734  14.409  33.171  17.089  0.0417 -0.0057  0.0109
  395POPC   C3A 4735  14.496  33.193  17.556  0.0571 -0.2629 -0.2029
  395POPC   C4A 4736  14.200  33.381  17.730  0.1613 -0.2222  0.0061
  395POPC   C1B 4737  14.249  32.553  16.977 -0.2199 -0.1967  0.0965
  395POPC   C2B 4738  14.275  32.747  17.365  0.0967  0.1999 -0.2223
  395POPC   C3B 4739  14.378  32.749  17.805  0.0922  0.0521 -0.3233
  395POPC   C4B 4740  14.188  32.997  18.257  0.2129  0.0168 -0.0622
  396POPC   NC3 4741   7.059  12.698   9.151  0.0300  0.0494  0.0835
  396POPC   PO4 4742   7.221  12.402   9.334 -0.1374  0.2957 -0.0294
  396POPC   GL1 4743   7.407  12.344   8.955  0.3731 -0.1593 -0.3222
  396POPC   GL2 4744   7.649  12.302   8.743  0.2502  0.1665  0.2071
  396POPC   C1A 4745   7.156  12.271   8.593 -0.1040 -0.0504 -0.2141
  396POPC   D2A 4746   7.116  12.022   8.177  0.1890 -0.2307  0.0323
  396POPC   C3A 4747   7.211  11.817   7.786 -0.0152  0.0742  0.2065
  396POPC   C4A 4748   7.477  11.632   7.505  0.3704 -0.1654 -0.0386
  396POPC   C1B 4749   8.009  12.022   8.526 -0.3339 -0.0883  0.2051
  396POPC   C2B 4750   8.076  11.756   8.186 -0.2329  0.1033  0.1244
  396POPC   C3B 4751   7.881  11.551   7.820 -0.0014 -0.0897  0.2437
  396POPC   C4B 4752   7.793  11.112   7.785  0.2000  0.0571 -0.0575
  397POPC   NC3 4753   5.932  12.274   9.032  0.0685  0.1354 -0.0565
  397POPC   PO4 4754   5.672  11.993   9.106 -0.0575  0.2670  0.1194
  397POPC   GL1 4755   5.819  11.965   8.682  0.0160 -0.2663  0.0947
  397POPC   GL2 4756   5.799  12.296   8.556  0.1099  0.1855 -0.2258
  397POPC   C1A 4757   6.072  12.016   8.239  0.0831  0.2287 -0.1693
  397POPC   D2A 4758   6.262  11.883   7.821  0.2006  0.3524 -0.2448
  397POPC   C3A 4759   6.709  11.941   7.734  0.2001 -0.0690  0.1591
  397POPC   C4A 4760   6.989  12.207   7.441 -0.1374 -0.1339  0.1036
  397POPC   C1B 4761   5.749  12.372   8.136  0.1583  0.2530  0.0414
  397POPC   C2B 4762   5.881  12.220   7.673 -0.1977  0.3409 -0.0875
  397POPC   C3B 4763   5.900  12.377   7.251  0.2176 -0.3007  0.1143
  397POPC   C4B 4764   5.814  12.614   6.851  0.1459 -0.2477  0.0729
  398POPC   NC3 4765   7.945   2.059  10.630  0.0438  0.0876  0.0027
  398POPC   PO4 4766   7.856   1.735  10.882  0.0270 -0.2284 -0.1863
  398POPC   GL1 4767   8.249   1.949  10.918  0.1881 -0.4699 -0.1360
  398POPC   GL2 4768   8.453   1.878  10.745 -0.0179 -0.2470 -0.0510
  398POPC   C1A 4769   8.342   2.377  10.738  0.1783  0.1441 -0.1107
  398POPC   D2A 4770   8.406   2.831  10.623  0.3232 -0.0372 -0.1017
  398POPC   C3A 4771   8.669   3.130  10.302 -0.1006  0.1727 -0.1099
  398POPC   C4A 4772   8.994   3.296  10.007 -0.1329 -0.0679 -0.2164
  398POPC   C1B 4773   8.798   2.152  10.748 -0.1634 -0.0880  0.0934
  398POPC   C2B 4774   9.056   2.524  10.588  0.3316 -0.0559  0.1376
  398POPC   C3B 4775   9.407   2.820  10.721  0.1389 -0.0085  0.0265
  398POPC   C4B 4776   9.854   2.980  10.551  0.2183  0.0537  0.1960
  399POPC   NC3 4777   4.542   4.716  13.932  0.0595 -0.0051  0.1968
  399POPC   PO4 4778   4.625   4.971  13.643 -0.0406  0.1984  0.0278
  399POPC   GL1 4779   4.890   4.973  14.016  0.0919 -0.0640  0.4151
  399POPC   GL2 4780   4.741   5.156  14.176 -0.1935 -0.2606 -0.1333
  399POPC   C1A 4781   4.999   4.499  14.162  0.0944 -0.1062  0.0512
  399POPC   D2A 4782   5.461   4.326  14.260  0.0093  0.1120  0.2838
  399POPC   C3A 4783   5.676   4.258  14.658  0.1914  0.2570  0.0042
  399POPC   C4A 4784   5.955   4.507  14.934 -0.0852  0.0864 -0.0934
  399POPC   C1B 4785   5.026   5.321  14.443 -0.3724  0.1396 -0.1483
  399POPC   C2B 4786   5.409   5.202  14.683  0.0422 -0.0662  0.2213
  399POPC   C3B 4787   5.582   4.877  14.937  0.5868  0.2524 -0.1990
  399POPC   C4B 4788   5.901   4.957  15.263 -0.2128 -0.0463  0.4360
  400POPC   NC3 4789  10.950  15.508   9.034  0.1243 -0.1324 -0.3374
  400POPC   PO4 4790  11.304  15.540   8.892 -0.0279  0.1015  0.2590
  400POPC   GL1 4791  11.183  15.647   8.486 -0.3366 -0.2458  0.2426
  400POPC   GL2 4792  10.919  15.607   8.396  0.1733 -0.0433 -0.0673
  400POPC   C1A 4793  11.257  15.642   8.047  0.1611  0.1063 -0.0734
  400POPC   D2A 4794  11.635  15.718   7.772  0.0101  0.0847  0.0278
  400POPC   C3A 4795  11.829  16.017   7.445  0.1536  0.1246  0.1357
  400POPC   C4A 4796  11.866  16.214   7.046 -0.1527  0.0002  0.0817
  400POPC   C1B 4797  10.808  15.824   7.978 -0.2546 -0.1546 -0.0668
  400POPC   C2B 4798  10.735  15.788   7.546 -0.0092  0.0408 -0.2976
  400POPC   C3B 4799  11.018  15.824   7.174  0.0481  0.0545  0.2826
  400POPC   C4B 4800  11.440  15.869   7.053  0.0239  0.3297  0.0535
  401POPC   NC3 4801   3.529   3.975   9.419 -0.0416  0.0066 -0.0677
  401POPC   PO4 4802   3.607   4.283   9.575  0.1296  0.0791  0.1398
  401POPC   GL1 4803   3.869   4.278   9.251 -0.0329  0.1449 -0.1465
  401POPC   GL2 4804   3.983   4.055   9.255 -0.2463  0.1432  0.1362
  401POPC   C1A 4805   4.095   4.606   9.006  0.0653 -0.2307 -0.3791
  401POPC   D2A 4806   4.429   4.779   8.791  0.0129 -0.3179  0.1420
  401POPC   C3A 4807   4.346   5.001   8.348 -0.3134 -0.4270  0.1904
  401POPC   C4A 4808   4.499   4.937   7.891  0.0795  0.1309  0.0905
  401POPC   C1B 4809   4.310   4.067   8.938  0.3348  0.1106 -0.0621
  401POPC   C2B 4810   4.505   3.987   8.509  0.3374 -0.2349 -0.0836
  401POPC   C3B 4811   4.430   4.114   8.061  0.0319  0.1431 -0.1862
  401POPC   C4B 4812   4.286   4.153   7.621 -0.0114 -0.0572  0.0674
  402POPC   NC3 4813   0.395   1.810   8.324 -0.0660 -0.0700 -0.3464
  402POPC   PO4 4814   0.279   1.720   8.670 -0.3922  0.2353  0.2557
  402POPC   GL1 4815  -0.044   1.726   8.364  0.3803  0.2969 -0.2611
  402POPC   GL2 4816   0.007   1.494   8.240  0.2784  0.1832 -0.0815
  402POPC   C1A 4817   0.034   1.812   7.891 -0.0356 -0.2665  0.3668
  402POPC   D2A 4818  -0.106   2.000   7.508 -0.0346  0.0778 -0.1562
  402POPC   C3A 4819  -0.081   2.194   7.034 -0.4411  0.0647  0.1985
  402POPC   C4A 4820  -0.081   2.198   6.499 -0.0209  0.3463 -0.1415
  402POPC   C1B 4821   0.312   1.375   8.034 -0.0428  0.3558  0.0600
  402POPC   C2B 4822   0.604   1.410   7.693  0.1628 -0.0657  0.0706
  402POPC   C3B 4823   0.941   1.320   7.419 -0.3922  0.0528  0.2697
  402POPC   C4B 4824   1.167   1.341   7.029 -0.0614  0.1923  0.2062
  403POPC   NC3 4825   8.041   1.597  12.364  0.0763 -0.2498  0.2080
  403POPC   PO4 4826   7.658   1.738  12.463  0.1614  0.0997 -0.2767
  403POPC   GL1 4827   7.867   1.983  12.666 -0.0436 -0.5265 -0.1398
  403POPC   GL2 4828   7.858   2.169  12.407 -0.1458  0.0650  0.0136
  403POPC   C1A 4829   7.888   2.412  12.901 -0.0849  0.0502  0.1713
  403POPC   D2A 4830   7.712   2.818  12.791  0.1621 -0.1341  0.0118
  403POPC   C3A 4831   7.948   3.128  12.627 -0.1096 -0.5275 -0.3226
  403POPC   C4A 4832   8.351   3.366  12.757  0.0678 -0.0348 -0.1467
  403POPC   C1B 4833   8.004   2.595  12.390 -0.1119  0.0800 -0.0877
  403POPC   C2B 4834   8.308   2.835  12.479  0.2196  0.0453  0.0234
  403POPC   C3B 4835   8.598   2.914  12.147 -0.1524  0.0223 -0.2332
  403POPC   C4B 4836   8.907   3.005  11.855  0.0605 -0.0085 -0.0779
  404POPC   NC3 4837  13.366   1.857  10.564 -0.2205  0.1307  0.0369
  404POPC   PO4 4838  13.235   1.978  10.911 -0.0508 -0.1421  0.1509
  404POPC   GL1 4839  13.022   2.151  10.722  0.1380  0.0929  0.0141
  404POPC   GL2 4840  12.901   1.952  10.551 -0.3088 -0.0009  0.0331
  404POPC   C1A 4841  12.864   2.576  10.859 -0.1485  0.0341  0.3879
  404POPC   D2A 4842  12.549   2.896  10.999 -0.1892  0.3680 -0.0872
  404POPC   C3A 4843  12.219   2.889  11.308 -0.1705  0.0621  0.1709
  404POPC   C4A 4844  11.742   2.936  11.342  0.2885  0.1036 -0.0472
  404POPC   C1B 4845  12.533   2.150  10.586 -0.0121 -0.0310  0.0529
  404POPC   C2B 4846  12.195   2.417  10.455 -0.1062  0.0122  0.2308
  404POPC   C3B 4847  11.994   2.672  10.137  0.0508  0.3437 -0.1957
  404POPC   C4B 4848  11.879   3.093  10.013 -0.0526  0.0718  0.0371
  405POPC   NC3 4849  14.419   4.996  10.327 -0.0930  0.2432 -0.1734
  405POPC   PO4 4850  14.344   5.094  10.724  0.1494  0.2191  0.3120
  405POPC   GL1 4851  14.058   4.826  10.561  0.0651 -0.0849 -0.1434
  405POPC   GL2 4852  13.832   4.907  10.835  0.0076 -0.2882  0.0183
  405POPC   C1A 4853  13.854   4.404  10.560 -0.0563 -0.0620 -0.2126
  405POPC   D2A 4854  13.398   4.356  10.316 -0.4733 -0.0079 -0.0832
  405POPC   C3A 4855  13.252   4.755  10.064 -0.2058  0.0000 -0.0191
  405POPC   C4A 4856  13.509   5.032   9.857 -0.0832 -0.1711  0.2365
  405POPC   C1B 4857  13.707   5.257  10.577  0.0837 -0.3850 -0.2548
  405POPC   C2B 4858  13.388   5.358  10.318  0.0427 -0.0702 -0.1304
  405POPC   C3B 4859  13.102   5.298   9.927 -0.1022 -0.4274  0.0752
  405POPC   C4B 4860  12.943   5.245   9.474 -0.1643  0.0607 -0.2051
  406POPC   NC3 4861  14.199   6.030  13.680  0.4350  0.0076  0.3235
  406POPC   PO4 4862  13.946   5.829  13.429  0.1674  0.2108  0.0516
  406POPC   GL1 4863  13.635   5.644  13.362  0.2420  0.2429  0.1256
  406POPC   GL2 4864  13.649   5.396  13.454  0.0582  0.2107 -0.0496
  406POPC   C1A 4865  13.168   5.686  13.411 -0.2965  0.1710  0.0325
  406POPC   D2A 4866  12.773   5.870  13.251  0.0135 -0.0833  0.3641
  406POPC   C3A 4867  12.403   6.130  13.201 -0.2048  0.0622  0.0475
  406POPC   C4A 4868  11.973   6.282  13.041 -0.3007 -0.0707  0.1085
  406POPC   C1B 4869  13.366   5.208  13.135  0.1272 -0.0983  0.2239
  406POPC   C2B 4870  13.163   5.133  12.699  0.1835  0.1123  0.0255
  406POPC   C3B 4871  12.833   5.361  12.491 -0.0208 -0.1471  0.0879
  406POPC   C4B 4872  12.423   5.559  12.459 -0.2086  0.0506 -0.1207
  407POPC   NC3 4873  11.589  13.904   9.131 -0.0589 -0.1232 -0.4171
  407POPC   PO4 4874  11.769  13.789   8.828 -0.3868 -0.4365 -0.1373
  407POPC   GL1 4875  12.016  13.850   8.463 -0.2624 -0.0915 -0.0035
  407POPC   GL2 4876  12.286  13.768   8.415 -0.0145  0.3613 -0.1157
  407POPC   C1A 4877  11.772  13.937   7.986  0.3235  0.0885 -0.3108
  407POPC   D2A 4878  11.727  13.963   7.486  0.0720 -0.0201 -0.1515
  407POPC   C3A 4879  11.538  13.530   7.341 -0.1549 -0.1516 -0.2451
  407POPC   C4A 4880  11.393  13.090   7.439  0.0737 -0.0896  0.1488
  407POPC   C1B 4881  12.165  13.577   8.099 -0.1704 -0.3553 -0.2513
  407POPC   C2B 4882  12.086  13.561   7.611 -0.0073  0.1027 -0.0418
  407POPC   C3B 4883  12.095  13.709   7.186 -0.0662  0.2183 -0.1840
  407POPC   C4B 4884  11.819  14.045   6.970 -0.0588 -0.1132 -0.1791
  408POPC   NC3 4885   5.480   9.412   9.807 -0.1028  0.0920 -0.2524
  408POPC   PO4 4886   5.410   9.817   9.822 -0.1857  0.0189  0.1813
  408POPC   GL1 4887   5.565   9.975   9.488  0.0684  0.1257 -0.4725
  408POPC   GL2 4888   5.772   9.760   9.452 -0.1382 -0.2883 -0.3479
  408POPC   C1A 4889   5.536   9.748   9.067 -0.1912  0.1899  0.1101
  408POPC   D2A 4890   5.514   9.408   8.722  0.0366  0.0551  0.0977
  408POPC   C3A 4891   5.802   9.443   8.375  0.2148  0.1007 -0.1103
  408POPC   C4A 4892   6.082   9.578   8.012 -0.1623  0.3472 -0.1186
  408POPC   C1B 4893   5.962   9.362   9.541  0.0665 -0.0560 -0.2938
  408POPC   C2B 4894   6.231   9.123   9.281 -0.2264 -0.2549 -0.1770
  408POPC   C3B 4895   6.630   8.992   9.113 -0.0160  0.1254 -0.1270
  408POPC   C4B 4896   7.028   9.060   8.899 -0.1646  0.0635 -0.3086
  409POPC   NC3 4897   7.742   1.741  11.365 -0.2872 -0.2794  0.2730
  409POPC   PO4 4898   7.412   1.780  11.121 -0.0300  0.1174  0.2271
  409POPC   GL1 4899   7.479   2.134  10.879  0.1223  0.6118 -0.2569
  409POPC   GL2 4900   7.457   1.931  10.594 -0.0258 -0.0223  0.1207
  409POPC   C1A 4901   7.722   2.489  10.656 -0.3538 -0.0961  0.0706
  409POPC   D2A 4902   8.042   2.587  10.297 -0.0519 -0.2305 -0.0464
  409POPC   C3A 4903   8.210   2.989  10.100 -0.1492 -0.1099 -0.1020
  409POPC   C4A 4904   8.357   3.366   9.886  0.0210  0.1561  0.1256
  409POPC   C1B 4905   7.685   2.056  10.182  0.0028  0.1203  0.2794
  409POPC   C2B 4906   7.799   2.039   9.741  0.0500 -0.0568  0.0367
  409POPC   C3B 4907   8.025   2.301   9.402 -0.0175 -0.0950 -0.0074
  409POPC   C4B 4908   8.160   2.519   9.012  0.0058  0.3251  0.1582
  410POPC   NC3 4909   7.772   0.452  13.986  0.1485 -0.0555  0.0900
  410POPC   PO4 4910   8.106   0.714  14.010 -0.0232 -0.0199 -0.1271
  410POPC   GL1 4911   8.140   1.111  14.108 -0.0465  0.1708  0.4152
  410POPC   GL2 4912   8.088   1.406  13.987 -0.0790 -0.0392  0.3408
  410POPC   C1A 4913   8.290   1.129  14.499  0.2692  0.3373 -0.1737
  410POPC   D2A 4914   8.153   1.328  14.931  0.2855  0.0431 -0.0353
  410POPC   C3A 4915   7.971   1.660  15.175 -0.1895 -0.2802  0.2540
  410POPC   C4A 4916   7.760   1.985  15.360 -0.3116  0.0120  0.3971
  410POPC   C1B 4917   7.950   1.790  14.042  0.2336 -0.0686 -0.1156
  410POPC   C2B 4918   7.777   2.091  14.325  0.0150  0.3033 -0.1081
  410POPC   C3B 4919   7.736   2.459  14.636  0.1007  0.2013  0.1697
  410POPC   C4B 4920   7.664   2.662  15.079  0.2600  0.1191  0.0055
  411POPC   NC3 4921  15.259   2.202   9.486 -0.3744  0.0662 -0.1695
  411POPC   PO4 4922  14.985   2.283   9.214  0.3087  0.1191  0.2974
  411POPC   GL1 4923  14.910   2.496   8.781 -0.2751 -0.1984 -0.4351
  411POPC   GL2 4924  14.693   2.330   8.621 -0.2146  0.0412  0.0053
  411POPC   C1A 4925  14.649   2.837   8.600 -0.1783  0.0513 -0.2130
  411POPC   D2A 4926  14.313   3.151   8.685  0.2391  0.0704 -0.2669
  411POPC   C3A 4927  13.867   3.259   8.510 -0.1035  0.1271  0.1402
  411POPC   C4A 4928  13.686   3.486   8.209  0.2373 -0.0845  0.0783
  411POPC   C1B 4929  14.780   2.191   8.176  0.1035  0.2118 -0.0209
  411POPC   C2B 4930  14.606   2.246   7.758  0.0044  0.2662  0.2992
  411POPC   C3B 4931  14.233   2.343   7.487  0.0290  0.0348  0.1002
  411POPC   C4B 4932  14.206   2.062   7.096  0.0160  0.0097 -0.1055
  412POPC   NC3 4933   4.118  11.999   8.390 -0.0871 -0.0631  0.1265
  412POPC   PO4 4934   4.239  12.374   8.506  0.0891  0.0865 -0.1416
  412POPC   GL1 4935   4.259  12.345   8.112  0.2931 -0.3095 -0.3133
  412POPC   GL2 4936   4.203  12.094   7.857 -0.0411  0.1757  0.1608
  412POPC   C1A 4937   4.172  12.623   7.742  0.1385 -0.0750  0.0485
  412POPC   D2A 4938   4.070  12.984   7.507  0.1534 -0.0948 -0.1316
  412POPC   C3A 4939   4.344  13.390   7.364 -0.2081  0.1848 -0.0643
  412POPC   C4A 4940   4.606  13.705   7.062 -0.2587  0.1050 -0.4012
  412POPC   C1B 4941   4.281  11.895   7.452  0.2766 -0.1200  0.2362
  412POPC   C2B 4942   4.563  12.054   7.045  0.1678  0.0071 -0.0898
  412POPC   C3B 4943   4.477  12.391   6.754 -0.0730 -0.0336 -0.2055
  412POPC   C4B 4944   4.711  12.782   6.666  0.0855 -0.2479 -0.1274
  413POPC   NC3 4945   7.882  13.299   9.556  0.0342  0.0027  0.5438
  413POPC   PO4 4946   7.837  13.085   9.244  0.1525  0.2229  0.2039
  413POPC   GL1 4947   8.021  13.033   8.901  0.4746  0.3740 -0.0419
  413POPC   GL2 4948   7.841  13.177   8.739 -0.0287 -0.0002  0.1645
  413POPC   C1A 4949   8.308  12.869   8.536  0.1952 -0.0584 -0.0728
  413POPC   D2A 4950   8.249  12.793   8.094 -0.2121 -0.1789  0.4351
  413POPC   C3A 4951   8.240  12.393   7.986 -0.2099 -0.1894  0.1025
  413POPC   C4A 4952   8.403  11.944   7.877  0.1162  0.1003 -0.2725
  413POPC   C1B 4953   7.829  13.122   8.252 -0.0632 -0.1164 -0.0625
  413POPC   C2B 4954   7.697  13.067   7.790  0.0143 -0.1111 -0.0873
  413POPC   C3B 4955   7.632  12.839   7.412  0.0588 -0.1336  0.0090
  413POPC   C4B 4956   7.743  12.589   7.037  0.0508 -0.0029  0.2065
  414POPC   NC3 4957  14.379  15.104   8.488  0.1197 -0.0567  0.0487
  414POPC   PO4 4958  14.217  14.788   8.611  0.2275  0.0898 -0.0253
  414POPC   GL1 4959  14.232  14.725   8.239  0.1095 -0.1553 -0.2288
  414POPC   GL2 4960  13.960  14.814   8.152 -0.2074 -0.3040 -0.0109
  414POPC   C1A 4961  14.325  15.101   7.952 -0.2709  0.0749 -0.1926
  414POPC   D2A 4962  14.230  15.209   7.532 -0.0039  0.2688 -0.0241
  414POPC   C3A 4963  13.812  15.485   7.454 -0.3298 -0.1301  0.0067
  414POPC   C4A 4964  13.578  15.520   7.089  0.0550  0.1135 -0.1757
  414POPC   C1B 4965  13.751  15.080   7.882  0.2040  0.0223 -0.1797
  414POPC   C2B 4966  13.423  15.210   7.584 -0.1255  0.2707 -0.0925
  414POPC   C3B 4967  13.215  15.250   7.188  0.1643 -0.5925 -0.0169
  414POPC   C4B 4968  13.241  15.312   6.764 -0.1013  0.2461 -0.2845
  415POPC   NC3 4969  11.131  14.823   8.597  0.1367  0.2437  0.3032
  415POPC   PO4 4970  11.033  15.199   8.621 -0.3155  0.0462 -0.5310
  415POPC   GL1 4971  11.195  15.252   8.298 -0.5928  0.2058  0.4053
  415POPC   GL2 4972  11.017  15.147   8.150  0.3753  0.0180 -0.1227
  415POPC   C1A 4973  11.452  15.183   7.878  0.2644 -0.2242 -0.1241
  415POPC   D2A 4974  11.556  15.165   7.417  0.2625 -0.0974  0.0605
  415POPC   C3A 4975  11.576  15.018   6.978 -0.3452  0.2503  0.1009
  415POPC   C4A 4976  11.358  14.829   6.646 -0.1631  0.2103 -0.0620
  415POPC   C1B 4977  10.880  15.266   7.754  0.2652  0.2449 -0.1774
  415POPC   C2B 4978  11.103  15.398   7.402  0.0848 -0.0193 -0.0388
  415POPC   C3B 4979  11.115  15.236   7.005  0.0158 -0.0962  0.0036
  415POPC   C4B 4980  11.269  15.353   6.586 -0.3488 -0.1215  0.3063
  416POPC   NC3 4981   5.628  15.202   8.282 -0.0629  0.1225 -0.2343
  416POPC   PO4 4982   6.006  15.104   8.264  0.0131 -0.2906  0.1101
  416POPC   GL1 4983   5.862  15.121   7.881 -0.1813 -0.1225 -0.0268
  416POPC   GL2 4984   6.080  15.198   7.772  0.0625  0.3051 -0.0295
  416POPC   C1A 4985   5.617  14.957   7.577  0.1351  0.2421 -0.1789
  416POPC   D2A 4986   5.526  14.828   7.145 -0.0094 -0.1547 -0.2528
  416POPC   C3A 4987   5.779  15.107   6.920 -0.1555  0.0735 -0.0051
  416POPC   C4A 4988   6.103  15.446   6.766 -0.1507  0.0405 -0.0927
  416POPC   C1B 4989   6.108  15.112   7.305 -0.0624 -0.1497  0.0805
  416POPC   C2B 4990   6.509  15.079   7.063 -0.0737  0.0762 -0.0813
  416POPC   C3B 4991   6.884  14.829   7.065  0.1670 -0.2330  0.0299
  416POPC   C4B 4992   7.033  14.364   7.210  0.0361  0.0103  0.4144
  417POPC   NC3 4993   3.717   4.325  14.718  0.3350  0.0854  0.2919
  417POPC   PO4 4994   3.634   3.946  14.616  0.1349 -0.2898  0.1951
  417POPC   GL1 4995   3.890   3.850  14.848  0.1702  0.2551 -0.1634
  417POPC   GL2 4996   4.070   4.045  14.940  0.1305  0.0559  0.1086
  417POPC   C1A 4997   3.971   3.762  15.289 -0.1710  0.2018 -0.3350
  417POPC   D2A 4998   3.947   3.817  15.690 -0.1281  0.3759  0.0096
  417POPC   C3A 4999   4.250   3.633  15.920  0.1957 -0.0951 -0.3693
  417POPC   C4A 5000   4.539   3.964  16.078 -0.4551 -0.0800 -0.0249
  417POPC   C1B 5001   4.394   4.128  15.264 -0.2777  0.3800 -0.0438
  417POPC   C2B 5002   4.752   4.060  15.452  0.5657 -0.1921 -0.0051
  417POPC   C3B 5003   5.020   4.165  15.860  0.0988  0.2358  0.1358
  417POPC   C4B 5004   5.053   4.215  16.315  0.0338 -0.0955 -0.1573
  418POPC   NC3 5005  11.555  12.663   9.171  0.2932 -0.2039  0.2279
  418POPC   PO4 5006  11.894  12.534   9.253  0.0202 -0.2580 -0.0858
  418POPC   GL1 5007  11.953  12.469   8.811 -0.0734  0.1344  0.1334
  418POPC   GL2 5008  11.822  12.223   8.845 -0.1500  0.1086 -0.0569
  418POPC   C1A 5009  11.959  12.241   8.387 -0.0855  0.3120 -0.0380
  418POPC   D2A 5010  12.143  12.052   7.997  0.0712  0.2732  0.2725
  418POPC   C3A 5011  12.155  11.620   8.137  0.3195 -0.0960 -0.0177
  418POPC   C4A 5012  12.122  11.242   7.923 -0.1234  0.0711 -0.0698
  418POPC   C1B 5013  11.462  12.184   8.583 -0.2816 -0.0061  0.0810
  418POPC   C2B 5014  11.245  12.018   8.196  0.1669 -0.1462  0.4901
  418POPC   C3B 5015  10.877  11.827   8.007 -0.0036  0.3728  0.5121
  418POPC   C4B 5016  10.713  11.416   7.922 -0.3123 -0.2783 -0.0446
  419POPC   NC3 5017   5.809   3.039  13.090  0.1696  0.2255  0.1855
  419POPC   PO4 5018   5.866   2.726  13.309  0.0671  0.1371  0.0651
  419POPC   GL1 5019   6.173   2.939  13.394  0.1137 -0.3808  0.3342
  419POPC   GL2 5020   6.331   3.070  13.138  0.1386  0.0026 -0.3419
  419POPC   C1A 5021   6.418   3.271  13.594  0.5123  0.0917 -0.1304
  419POPC   D2A 5022   6.649   3.627  13.698  0.0182  0.0589 -0.1047
  419POPC   C3A 5023   6.828   4.033  13.998  0.1328  0.2444  0.0005
  419POPC   C4A 5024   6.905   4.511  14.132  0.0046  0.1513  0.1413
  419POPC   C1B 5025   6.720   3.300  13.157  0.2056 -0.3347  0.0028
  419POPC   C2B 5026   7.099   3.589  13.283 -0.3254  0.1387 -0.1655
  419POPC   C3B 5027   7.576   3.713  13.105  0.3460 -0.1797  0.0426
  419POPC   C4B 5028   7.793   4.138  13.103 -0.1256  0.2735  0.0639
  420POPC   NC3 5029   3.909   3.933   9.870 -0.1681 -0.1360  0.3478
  420POPC   PO4 5030   4.165   4.198   9.715 -0.4420  0.1043  0.1162
  420POPC   GL1 5031   4.343   4.356   9.438 -0.1769  0.0338 -0.3162
  420POPC   GL2 5032   4.576   4.251   9.296  0.1079 -0.0263  0.2213
  420POPC   C1A 5033   4.607   4.762   9.391  0.1054  0.2055 -0.0721
  420POPC   D2A 5034   4.866   5.004   9.099  0.1708  0.1180  0.1112
  420POPC   C3A 5035   5.198   4.755   8.927  0.2413 -0.1312  0.0180
  420POPC   C4A 5036   5.270   4.401   8.670  0.1069 -0.0659  0.0543
  420POPC   C1B 5037   4.695   4.291   8.849  0.2919 -0.1273  0.0170
  420POPC   C2B 5038   4.637   4.444   8.396  0.0558 -0.1726  0.2842
  420POPC   C3B 5039   4.785   4.513   7.958 -0.0995  0.0160 -0.1108
  420POPC   C4B 5040   4.756   4.365   7.582  0.3873 -0.1132  0.3068
  421POPC   NC3 5041  15.988   9.296   8.809  0.0471  0.0228  0.2081
  421POPC   PO4 5042  16.293   9.067   8.762  0.2059  0.2913  0.1151
  421POPC   GL1 5043  16.005   8.932   8.492  0.0563 -0.3734 -0.3630
  421POPC   GL2 5044  16.146   8.705   8.474  0.1418 -0.4685 -0.3458
  421POPC   C1A 5045  15.570   8.828   8.475 -0.1459  0.0766  0.2036
  421POPC   D2A 5046  15.252   8.493   8.588 -0.0148 -0.0856 -0.5964
  421POPC   C3A 5047  15.116   8.597   8.079 -0.0847 -0.1584 -0.2041
  421POPC   C4A 5048  15.225   8.650   7.640  0.0419 -0.2356 -0.0754
  421POPC   C1B 5049  15.859   8.570   8.114 -0.0808 -0.0345 -0.0039
  421POPC   C2B 5050  15.704   8.556   7.648 -0.1032  0.0737 -0.1165
  421POPC   C3B 5051  15.959   8.450   7.244  0.3397  0.3037  0.0137
  421POPC   C4B 5052  16.038   8.159   6.850 -0.0172  0.5685 -0.1307
  422POPC   NC3 5053   5.954  13.752   8.477  0.0732  0.1495  0.0397
  422POPC   PO4 5054   5.563  13.641   8.415  0.0093  0.0116  0.0644
  422POPC   GL1 5055   5.580  13.734   8.034 -0.3273 -0.4833 -0.0302
  422POPC   GL2 5056   5.831  13.907   8.011 -0.2577 -0.0164 -0.0845
  422POPC   C1A 5057   5.519  13.485   7.644  0.0150  0.0511  0.0234
  422POPC   D2A 5058   5.352  13.318   7.234  0.2157 -0.2633  0.1460
  422POPC   C3A 5059   5.063  13.463   6.913 -0.0665  0.1050 -0.1117
  422POPC   C4A 5060   4.724  13.468   6.614  0.4840 -0.0276  0.1839
  422POPC   C1B 5061   5.747  13.965   7.598 -0.0817  0.0867  0.1042
  422POPC   C2B 5062   5.421  13.810   7.248 -0.2863 -0.3585 -0.3872
  422POPC   C3B 5063   5.491  13.789   6.812 -0.0694  0.1862  0.0711
  422POPC   C4B 5064   5.680  13.776   6.391 -0.0896 -0.0547 -0.0472
  423POPC   NC3 5065  14.037   8.565  11.346 -0.1722 -0.3550 -0.2799
  423POPC   PO4 5066  13.776   8.826  11.368 -0.0702  0.0637  0.0496
  423POPC   GL1 5067  13.661   8.696  10.967 -0.1745  0.2111  0.0810
  423POPC   GL2 5068  13.790   8.465  10.927 -0.1311 -0.1187  0.2716
  423POPC   C1A 5069  13.246   8.570  10.743 -0.0462 -0.1112  0.2795
  423POPC   D2A 5070  13.052   8.264  10.433  0.1907  0.0705 -0.0158
  423POPC   C3A 5071  12.733   8.171  10.123 -0.0192 -0.0246  0.1510
  423POPC   C4A 5072  12.452   8.281   9.751  0.0262  0.1822 -0.1046
  423POPC   C1B 5073  13.400   8.218  11.022  0.2456  0.1851 -0.1363
  423POPC   C2B 5074  13.141   7.872  10.875  0.3096  0.2817  0.1868
  423POPC   C3B 5075  12.940   7.719  10.547 -0.0210 -0.2508  0.2027
  423POPC   C4B 5076  12.669   7.633  10.173 -0.0372  0.2949 -0.0334
  424POPC   NC3 5077  12.048   1.273  13.098  0.1470  0.1042 -0.0471
  424POPC   PO4 5078  11.835   1.258  13.432  0.0929  0.0023  0.1220
  424POPC   GL1 5079  11.473   1.509  13.613 -0.0052  0.0819  0.2239
  424POPC   GL2 5080  11.531   1.705  13.388 -0.0720  0.0415 -0.1062
  424POPC   C1A 5081  11.033   1.547  13.787  0.2637  0.0545 -0.0847
  424POPC   D2A 5082  10.632   1.697  13.949 -0.0952  0.0699  0.0311
  424POPC   C3A 5083  10.474   1.893  13.568 -0.1783 -0.1557  0.0513
  424POPC   C4A 5084  10.524   1.685  13.153  0.0587  0.1895 -0.2000
  424POPC   C1B 5085  11.426   1.940  13.790  0.1955  0.2238  0.0232
  424POPC   C2B 5086  11.427   2.398  13.900  0.6007 -0.0203  0.1588
  424POPC   C3B 5087  11.339   2.722  13.543  0.1807  0.0298 -0.2701
  424POPC   C4B 5088  11.335   3.052  13.217 -0.1944 -0.5749  0.2466
  425POPC   NC3 5089   4.717   9.719   9.510 -0.0503 -0.0700  0.1297
  425POPC   PO4 5090   4.978   9.986   9.590  0.1969  0.3034  0.1870
  425POPC   GL1 5091   5.153   9.810   9.273  0.0478 -0.5068 -0.0637
  425POPC   GL2 5092   5.210   9.454   9.322 -0.3913  0.4116 -0.2163
  425POPC   C1A 5093   4.969   9.605   8.917 -0.2727 -0.0634 -0.0386
  425POPC   D2A 5094   5.121   9.158   8.923  0.1110 -0.0540 -0.1045
  425POPC   C3A 5095   5.419   8.904   8.828 -0.2946 -0.1910  0.1451
  425POPC   C4A 5096   5.587   8.592   8.560  0.0404  0.3737 -0.0266
  425POPC   C1B 5097   5.556   9.227   9.147  0.0083 -0.1749 -0.0995
  425POPC   C2B 5098   5.943   9.348   8.947 -0.1908 -0.1679  0.1142
  425POPC   C3B 5099   6.403   9.274   8.810 -0.0145  0.1559  0.2127
  425POPC   C4B 5100   6.780   9.306   8.562  0.1698 -0.2594  0.0919
  426POPC   NC3 5101   7.448   2.032  12.091  0.0146 -0.1974 -0.2284
  426POPC   PO4 5102   7.767   1.912  11.896  0.1686 -0.4121 -0.1602
  426POPC   GL1 5103   7.894   2.140  11.663  0.0461  0.1196 -0.1289
  426POPC   GL2 5104   7.610   2.199  11.517  0.2130 -0.2669  0.0025
  426POPC   C1A 5105   7.968   2.513  11.444 -0.2334 -0.0445 -0.1412
  426POPC   D2A 5106   8.231   2.670  11.106  0.1758  0.4571  0.0757
  426POPC   C3A 5107   8.432   3.080  11.138  0.1101 -0.0521  0.3021
  426POPC   C4A 5108   8.475   3.572  11.035 -0.0154  0.1171 -0.0239
  426POPC   C1B 5109   7.512   2.502  11.098 -0.1961 -0.1408  0.4905
  426POPC   C2B 5110   7.702   2.893  11.013  0.0910 -0.3191 -0.2173
  426POPC   C3B 5111   7.923   3.265  10.935 -0.0307  0.1714  0.1455
  426POPC   C4B 5112   7.892   3.724  10.814 -0.0939  0.2584  0.0321
  427POPC   NC3 5113   4.985   8.497  13.221  0.2709  0.1189 -0.1998
  427POPC   PO4 5114   5.330   8.694  13.274 -0.0428  0.1594  0.0986
  427POPC   GL1 5115   5.563   8.412  13.396 -0.3005  0.1001  0.0366
  427POPC   GL2 5116   5.774   8.450  13.074 -0.1858 -0.1599 -0.1185
  427POPC   C1A 5117   5.924   8.096  13.518  0.2338  0.2169 -0.1531
  427POPC   D2A 5118   6.314   8.095  13.685 -0.2052 -0.0987 -0.0349
  427POPC   C3A 5119   6.714   7.974  13.863 -0.0049  0.3487 -0.0251
  427POPC   C4A 5120   7.088   7.826  13.644  0.0775 -0.2035 -0.1664
  427POPC   C1B 5121   6.185   8.217  13.101 -0.0341 -0.0954  0.0254
  427POPC   C2B 5122   6.621   8.117  13.143  0.0739 -0.1296 -0.0677
  427POPC   C3B 5123   7.015   7.903  13.157  0.0115 -0.0766  0.2332
  427POPC   C4B 5124   7.411   7.979  13.280  0.0170  0.2724 -0.1036
  428POPC   NC3 5125  14.171  15.547   9.055  0.1055 -0.1775  0.0489
  428POPC   PO4 5126  14.288  15.576   8.681  0.0265 -0.2952  0.0082
  428POPC   GL1 5127  14.088  15.706   8.377  0.0899 -0.1331 -0.1107
  428POPC   GL2 5128  14.261  15.930   8.301  0.0448 -0.0537 -0.0722
  428POPC   C1A 5129  13.649  15.851   8.257 -0.0437  0.0597  0.0218
  428POPC   D2A 5130  13.471  15.691   7.847 -0.2245  0.3371 -0.0074
  428POPC   C3A 5131  13.382  16.065   7.566  0.1893  0.2886 -0.0189
  428POPC   C4A 5132  13.196  16.124   7.110  0.0283  0.2225 -0.0652
  428POPC   C1B 5133  13.968  16.298   8.172 -0.1123  0.2170  0.1284
  428POPC   C2B 5134  13.925  16.575   7.781 -0.2773 -0.0759 -0.1418
  428POPC   C3B 5135  13.882  16.649   7.398  0.2295  0.0743 -0.2351
  428POPC   C4B 5136  13.636  16.430   7.025  0.0662 -0.0113  0.2162
  429POPC   NC3 5137  14.430  10.242   9.731 -0.5036 -0.1256  0.1779
  429POPC   PO4 5138  14.394   9.925   9.978 -0.0355 -0.1510  0.2879
  429POPC   GL1 5139  14.020   9.896   9.709 -0.0298  0.0269 -0.0069
  429POPC   GL2 5140  13.842  10.025   9.521 -0.1147 -0.1767 -0.1122
  429POPC   C1A 5141  13.573   9.748   9.809 -0.0859  0.2764 -0.1936
  429POPC   D2A 5142  13.171   9.837   9.921 -0.2541  0.2490 -0.0819
  429POPC   C3A 5143  12.830   9.740   9.585  0.2420 -0.0137  0.1963
  429POPC   C4A 5144  12.535   9.403   9.489 -0.1889 -0.0368 -0.2800
  429POPC   C1B 5145  13.589  10.080   9.111  0.2004  0.0129  0.1383
  429POPC   C2B 5146  13.476  10.075   8.649 -0.0218  0.0607 -0.0351
  429POPC   C3B 5147  13.188  10.029   8.336 -0.0239  0.0056  0.0172
  429POPC   C4B 5148  13.196   9.765   8.021  0.0181  0.1623  0.0451
  430POPC   NC3 5149  15.829  13.459   8.537 -0.1266  0.0416  0.2924
  430POPC   PO4 5150  16.110  13.232   8.394  0.0012 -0.3858 -0.0855
  430POPC   GL1 5151  16.238  13.233   8.017 -0.2472 -0.3523 -0.2149
  430POPC   GL2 5152  16.184  12.963   7.930 -0.1359  0.0507  0.0109
  430POPC   C1A 5153  16.108  13.559   7.671  0.1873  0.0354  0.1554
  430POPC   D2A 5154  16.081  13.428   7.219  0.2498  0.2164  0.0549
  430POPC   C3A 5155  16.058  13.442   6.802  0.1580 -0.0193  0.0051
  430POPC   C4A 5156  15.648  13.291   6.591  0.2130 -0.0661  0.0713
  430POPC   C1B 5157  16.049  12.799   7.518  0.2076 -0.4720 -0.1100
  430POPC   C2B 5158  16.064  12.749   7.036 -0.2327  0.0338 -0.4037
  430POPC   C3B 5159  15.892  12.658   6.564 -0.0224  0.1681 -0.2523
  430POPC   C4B 5160  15.929  12.399   6.201  0.1289 -0.0232  0.1653
  431POPC   NC3 5161  13.521   2.001  11.288 -0.1169  0.1923 -0.0683
  431POPC   PO4 5162  13.365   1.881  11.626  0.0597 -0.0718 -0.2710
  431POPC   GL1 5163  13.042   1.821  11.740  0.0265  0.1780 -0.2494
  431POPC   GL2 5164  12.909   1.958  11.955 -0.3115 -0.1930  0.3153
  431POPC   C1A 5165  12.614   1.917  11.556  0.1467  0.5154  0.1494
  431POPC   D2A 5166  12.230   2.038  11.782 -0.0491 -0.1564  0.0908
  431POPC   C3A 5167  12.235   1.837  12.191  0.1653  0.1691  0.0859
  431POPC   C4A 5168  11.793   1.942  12.358 -0.3332  0.3751  0.0756
  431POPC   C1B 5169  12.717   2.358  11.760  0.1961  0.0715  0.1019
  431POPC   C2B 5170  12.412   2.692  11.720 -0.2932  0.0757 -0.1400
  431POPC   C3B 5171  11.969   2.786  11.820  0.3056  0.1741  0.2670
  431POPC   C4B 5172  11.654   3.154  11.800 -0.1747 -0.1707  0.0404
  432POPC   NC3 5173   9.684  16.163   9.377 -0.0056  0.3217  0.0115
  432POPC   PO4 5174  10.093  16.177   9.450  0.2068 -0.0141 -0.0390
  432POPC   GL1 5175  10.039  16.543   9.245 -0.1091 -0.2215 -0.1626
  432POPC   GL2 5176   9.805  16.581   9.096  0.1413 -0.2687 -0.1176
  432POPC   C1A 5177  10.260  16.733   8.942 -0.3176  0.1080 -0.0576
  432POPC   D2A 5178  10.268  17.063   8.591  0.0620  0.0315 -0.0919
  432POPC   C3A 5179   9.941  17.082   8.276 -0.1194  0.0619  0.1587
  432POPC   C4A 5180   9.766  17.285   7.925 -0.1135 -0.0324  0.2567
  432POPC   C1B 5181   9.750  16.888   8.803  0.0640 -0.2623 -0.0151
  432POPC   C2B 5182   9.561  17.331   8.618  0.2610  0.1031 -0.2468
  432POPC   C3B 5183   9.547  17.627   8.258 -0.1456 -0.0794 -0.1277
  432POPC   C4B 5184   9.475  17.705   7.827 -0.3465  0.1300 -0.3525
  433POPC   NC3 5185   1.548   1.080   8.768  0.3816 -0.4878  0.3745
  433POPC   PO4 5186   1.857   1.328   8.757 -0.1078  0.2905 -0.0942
  433POPC   GL1 5187   1.610   1.687   8.568  0.2804 -0.1702 -0.1690
  433POPC   GL2 5188   1.451   1.478   8.346  0.1321  0.1916 -0.0400
  433POPC   C1A 5189   1.350   1.943   8.315  0.0552 -0.0242 -0.2413
  433POPC   D2A 5190   1.654   2.206   8.059 -0.0577 -0.1005 -0.1194
  433POPC   C3A 5191   1.412   2.205   7.640 -0.2488 -0.2213  0.1372
  433POPC   C4A 5192   1.333   2.393   7.221 -0.1021 -0.1387  0.3030
  433POPC   C1B 5193   1.624   1.722   7.982 -0.0351 -0.1803 -0.1431
  433POPC   C2B 5194   1.788   1.879   7.588 -0.2046  0.0429  0.0469
  433POPC   C3B 5195   2.122   1.672   7.299  0.1415 -0.0352 -0.0955
  433POPC   C4B 5196   2.338   1.864   6.975 -0.0100 -0.0768  0.2060
  434POPC   NC3 5197   4.948   4.704  11.132  0.0877  0.2626  0.1504
  434POPC   PO4 5198   5.063   4.990  10.876 -0.0787  0.3358  0.0300
  434POPC   GL1 5199   5.298   4.860  10.521  0.3986  0.1703 -0.0524
  434POPC   GL2 5200   5.368   5.131  10.492  0.3295  0.0107 -0.2624
  434POPC   C1A 5201   5.746   4.709  10.528  0.0664  0.0834 -0.1217
  434POPC   D2A 5202   6.173   4.712  10.375 -0.1359 -0.0134  0.3346
  434POPC   C3A 5203   6.216   5.094  10.141 -0.0513 -0.0501 -0.0592
  434POPC   C4A 5204   6.086   5.254   9.679  0.1917  0.0875  0.2871
  434POPC   C1B 5205   5.661   5.430  10.242  0.0051 -0.2031  0.0850
  434POPC   C2B 5206   6.091   5.574  10.067 -0.1038  0.0686 -0.0804
  434POPC   C3B 5207   6.382   5.941   9.961 -0.1910 -0.0664 -0.0238
  434POPC   C4B 5208   6.798   6.097   9.868 -0.0980 -0.1927  0.3455
  435POPC   NC3 5209   8.336  15.469   8.963  0.0081 -0.0460  0.3344
  435POPC   PO4 5210   8.099  15.179   9.024 -0.0957  0.0013  0.0416
  435POPC   GL1 5211   8.356  15.111   8.650  0.3386  0.1941 -0.0821
  435POPC   GL2 5212   8.156  15.008   8.528 -0.0420 -0.1154 -0.2268
  435POPC   C1A 5213   8.326  15.439   8.334  0.0358 -0.2285  0.3680
  435POPC   D2A 5214   8.331  15.511   7.890 -0.0858 -0.1070 -0.1466
  435POPC   C3A 5215   8.463  15.298   7.486 -0.0790 -0.0061 -0.1526
  435POPC   C4A 5216   8.371  15.196   7.047 -0.3767 -0.0653 -0.1976
  435POPC   C1B 5217   8.103  14.869   8.085 -0.1256  0.0855  0.0807
  435POPC   C2B 5218   8.036  15.115   7.714  0.1522 -0.1473 -0.2423
  435POPC   C3B 5219   8.024  15.396   7.333 -0.2134 -0.0382  0.0372
  435POPC   C4B 5220   8.133  15.579   6.904 -0.0172 -0.1493  0.2188
  436POPC   NC3 5221  16.598  11.542   9.209 -0.0686 -0.1872  0.2622
  436POPC   PO4 5222  16.427  11.757   8.874  0.1893  0.1216  0.1942
  436POPC   GL1 5223  16.232  11.703   8.502 -0.0800 -0.0038 -0.2294
  436POPC   GL2 5224  16.279  11.475   8.376 -0.0358  0.1389  0.1068
  436POPC   C1A 5225  16.121  11.969   8.120 -0.1705  0.0385 -0.1319
  436POPC   D2A 5226  15.783  12.003   7.797  0.1535 -0.0141  0.0012
  436POPC   C3A 5227  15.827  11.572   7.570  0.0471 -0.2106 -0.2610
  436POPC   C4A 5228  15.846  11.492   7.106 -0.0044  0.2622 -0.0489
  436POPC   C1B 5229  16.241  11.441   7.884 -0.0874  0.0950 -0.1111
  436POPC   C2B 5230  16.213  11.325   7.382 -0.0624  0.0611 -0.0110
  436POPC   C3B 5231  16.144  11.139   6.968 -0.1300 -0.2653 -0.0632
  436POPC   C4B 5232  16.028  10.968   6.621 -0.0206  0.0874  0.2039
  437POPC   NC3 5233  14.516   4.055  14.091 -0.2786  0.1070  0.1884
  437POPC   PO4 5234  14.463   4.317  14.353 -0.2712  0.0950  0.3061
  437POPC   GL1 5235  14.270   4.315  14.686  0.0237  0.1750  0.1924
  437POPC   GL2 5236  14.358   4.169  14.928  0.3475  0.2937  0.1953
  437POPC   C1A 5237  14.041   4.666  14.886  0.0010  0.1937  0.5472
  437POPC   D2A 5238  13.721   4.580  15.238 -0.1594  0.3362  0.0192
  437POPC   C3A 5239  13.476   4.167  15.412 -0.4321 -0.4232  0.0222
  437POPC   C4A 5240  13.023   4.049  15.444  0.1581  0.0885  0.0766
  437POPC   C1B 5241  13.905   4.140  15.048 -0.0146  0.1299  0.0858
  437POPC   C2B 5242  13.453   3.909  14.954  0.0500  0.2966  0.1698
  437POPC   C3B 5243  13.106   3.555  15.032  0.1406  0.0659 -0.0531
  437POPC   C4B 5244  12.627   3.412  14.984 -0.4311 -0.3952  0.0360
  438POPC   NC3 5245   9.178  13.036   9.696 -0.1635 -0.0131  0.0499
  438POPC   PO4 5246   8.981  13.328   9.506  0.0264 -0.0416  0.0153
  438POPC   GL1 5247   8.771  13.064   9.307  0.0597 -0.4091 -0.1868
  438POPC   GL2 5248   8.964  12.805   9.327  0.0376  0.3071 -0.4086
  438POPC   C1A 5249   8.474  12.787   9.040 -0.0232 -0.2698 -0.2254
  438POPC   D2A 5250   8.224  12.489   8.810 -0.3460 -0.5091 -0.2645
  438POPC   C3A 5251   8.386  12.342   8.427 -0.0444 -0.2596 -0.1291
  438POPC   C4A 5252   8.723  12.229   8.144 -0.0258  0.2556  0.0091
  438POPC   C1B 5253   8.949  12.606   8.931  0.2154 -0.2064  0.0074
  438POPC   C2B 5254   8.859  12.618   8.487 -0.2854 -0.0773 -0.0664
  438POPC   C3B 5255   8.705  12.787   8.067  0.0011  0.4932  0.2580
  438POPC   C4B 5256   8.547  12.713   7.683  0.0332 -0.1620  0.1923
  439POPC   NC3 5257   2.373   7.905   9.276 -0.2568 -0.2346 -0.0629
  439POPC   PO4 5258   2.661   7.862   9.533  0.1471 -0.0634  0.0589
  439POPC   GL1 5259   2.880   7.814   9.116  0.2366  0.0760 -0.0422
  439POPC   GL2 5260   3.004   7.527   9.242  0.0622 -0.0222 -0.0018
  439POPC   C1A 5261   2.976   7.871   8.669  0.0532 -0.2144 -0.2468
  439POPC   D2A 5262   3.129   7.618   8.332  0.0559 -0.0748  0.1239
  439POPC   C3A 5263   3.480   7.542   8.050 -0.1027 -0.1355 -0.1580
  439POPC   C4A 5264   3.690   7.416   7.633  0.1106  0.4141 -0.2254
  439POPC   C1B 5265   3.224   7.420   8.844  0.1109  0.0417 -0.1052
  439POPC   C2B 5266   3.470   7.270   8.474 -0.0341  0.1828  0.0367
  439POPC   C3B 5267   3.747   7.071   8.157  0.0977 -0.0107 -0.1504
  439POPC   C4B 5268   3.697   6.931   7.681  0.3543  0.0962  0.1964
  440POPC   NC3 5269   1.124   5.606   9.560  0.2485 -0.2419 -0.3588
  440POPC   PO4 5270   1.227   5.470   9.205 -0.1227  0.1215  0.0953
  440POPC   GL1 5271   1.416   5.288   8.831 -0.4221  0.3526  0.0536
  440POPC   GL2 5272   1.611   5.094   8.665 -0.1804 -0.2701 -0.1498
  440POPC   C1A 5273   1.420   5.476   8.356 -0.0158 -0.3587 -0.0802
  440POPC   D2A 5274   1.362   5.452   7.923  0.5055  0.3826  0.2219
  440POPC   C3A 5275   1.049   5.459   7.571  0.1980  0.2226 -0.0618
  440POPC   C4A 5276   0.657   5.265   7.390  0.1581 -0.0343 -0.0247
  440POPC   C1B 5277   1.301   4.996   8.301  0.0273  0.2859  0.0221
  440POPC   C2B 5278   1.057   5.078   7.889  0.0014 -0.0615  0.3097
  440POPC   C3B 5279   0.568   5.028   7.823  0.3883  0.1641 -0.0842
  440POPC   C4B 5280   0.210   5.295   7.848 -0.0372 -0.0777 -0.1376
  441POPC   NC3 5281  18.231  12.974   8.040  0.3898 -0.0204 -0.1477
  441POPC   PO4 5282  18.113  12.615   8.046  0.3799 -0.0633 -0.2128
  441POPC   GL1 5283  18.221  12.671   7.637 -0.0571 -0.0222  0.1300
  441POPC   GL2 5284  18.144  12.954   7.529  0.0682  0.0110  0.1015
  441POPC   C1A 5285  18.240  12.313   7.327 -0.1900 -0.0123 -0.1953
  441POPC   D2A 5286  18.193  12.038   6.993  0.0770 -0.1804 -0.1577
  441POPC   C3A 5287  18.486  12.282   6.704  0.0714  0.0554 -0.1029
  441POPC   C4A 5288  18.848  12.468   6.488 -0.0307  0.0941 -0.0093
  441POPC   C1B 5289  18.104  12.785   7.105 -0.0588  0.0862  0.0081
  441POPC   C2B 5290  18.062  12.569   6.741 -0.2109 -0.1664 -0.0315
  441POPC   C3B 5291  18.080  12.341   6.320  0.5147  0.1977 -0.2846
  441POPC   C4B 5292  18.375  12.001   6.196  0.2557 -0.1213 -0.1486
  442POPC   NC3 5293  14.920   1.448   8.862 -0.3381 -0.2384 -0.0981
  442POPC   PO4 5294  14.628   1.322   9.116 -0.0980 -0.0029  0.2062
  442POPC   GL1 5295  14.534   1.611   8.844 -0.0649 -0.3613  0.1541
  442POPC   GL2 5296  14.343   1.520   8.588 -0.2545 -0.1072 -0.1058
  442POPC   C1A 5297  14.795   1.651   8.425  0.0669 -0.1742  0.1147
  442POPC   D2A 5298  14.618   1.603   7.978  0.0254  0.2123  0.1240
  442POPC   C3A 5299  14.815   1.544   7.552 -0.2272 -0.0007  0.1745
  442POPC   C4A 5300  14.851   1.699   7.122  0.0607  0.0115  0.3016
  442POPC   C1B 5301  13.963   1.716   8.625  0.1284 -0.0911  0.1243
  442POPC   C2B 5302  13.718   1.931   8.254 -0.1869 -0.2752  0.2761
  442POPC   C3B 5303  13.433   2.149   7.985 -0.1893  0.0699  0.0714
  442POPC   C4B 5304  13.286   2.518   7.681 -0.0886  0.1683 -0.3219
  443POPC   NC3 5305   5.120   7.170  10.840  0.0646  0.0230 -0.0227
  443POPC   PO4 5306   5.435   7.121  11.073  0.0926 -0.3672 -0.2931
  443POPC   GL1 5307   5.791   6.959  11.103 -0.0535 -0.1798  0.1899
  443POPC   GL2 5308   5.830   6.798  11.323 -0.0469 -0.1846 -0.2547
  443POPC   C1A 5309   6.218   7.201  11.063 -0.1312 -0.2115 -0.2747
  443POPC   D2A 5310   6.263   7.644  11.031  0.2170 -0.2454 -0.1164
  443POPC   C3A 5311   6.558   7.756  10.672 -0.0961  0.1944  0.0510
  443POPC   C4A 5312   6.827   7.789  10.283 -0.2084 -0.1472  0.1521
  443POPC   C1B 5313   6.275   6.913  11.439  0.1510 -0.3843 -0.0907
  443POPC   C2B 5314   6.663   6.723  11.613  0.2323  0.0276  0.0362
  443POPC   C3B 5315   7.062   6.496  11.809  0.4596  0.1256  0.0070
  443POPC   C4B 5316   7.462   6.482  12.035 -0.0403  0.1110  0.0507
  444POPC   NC3 5317  14.824   7.475  10.137  0.0268  0.3889  0.1260
  444POPC   PO4 5318  14.902   7.836  10.189  0.1864 -0.1011  0.3555
  444POPC   GL1 5319  14.791   7.998   9.798  0.1807  0.0315 -0.1604
  444POPC   GL2 5320  14.556   7.809   9.809 -0.2261 -0.0354 -0.0567
  444POPC   C1A 5321  14.577   8.002   9.334  0.2346 -0.0404 -0.0501
  444POPC   D2A 5322  14.224   8.028   8.975  0.0485 -0.0464 -0.0858
  444POPC   C3A 5323  13.920   7.702   8.824 -0.3437 -0.0849 -0.0557
  444POPC   C4A 5324  13.562   7.502   8.966 -0.1493  0.0535 -0.1391
  444POPC   C1B 5325  14.284   7.589   9.525  0.2068 -0.1949 -0.0727
  444POPC   C2B 5326  13.868   7.426   9.388 -0.0811 -0.2372  0.4000
  444POPC   C3B 5327  13.642   7.046   9.263 -0.1253 -0.2229 -0.1699
  444POPC   C4B 5328  13.441   6.915   8.853 -0.0594  0.1432 -0.1241
  445POPC   NC3 5329  32.533  15.891   7.784 -0.4477 -0.0779 -0.2383
  445POPC   PO4 5330  32.460  16.164   8.023  0.1505 -0.1522  0.2412
  445POPC   GL1 5331  32.179  16.359   7.745 -0.2845 -0.2317 -0.3460
  445POPC   GL2 5332  32.169  16.578   7.660 -0.1855 -0.0781 -0.1039
  445POPC   C1A 5333  31.857  16.138   7.498 -0.0282 -0.3895  0.0227
  445POPC   D2A 5334  32.010  15.867   7.165  0.0522 -0.0754 -0.1405
  445POPC   C3A 5335  31.865  15.801   6.738  0.1939  0.1328  0.1792
  445POPC   C4A 5336  31.851  15.634   6.306 -0.5538  0.1662 -0.1491
  445POPC   C1B 5337  32.237  16.420   7.249  0.1143  0.0568 -0.1662
  445POPC   C2B 5338  32.230  16.203   6.816 -0.1810 -0.2222 -0.1567
  445POPC   C3B 5339  32.315  15.907   6.501 -0.0122 -0.1235 -0.2740
  445POPC   C4B 5340  32.764  15.718   6.441 -0.0592  0.2196 -0.2049
  446POPC   NC3 5341   6.237   2.095  12.487 -0.0561  0.0746 -0.0734
  446POPC   PO4 5342   6.431   2.430  12.516  0.0594  0.0087  0.2263
  446POPC   GL1 5343   6.655   2.673  12.637  0.3592 -0.5097 -0.1742
  446POPC   GL2 5344   6.623   2.685  12.949 -0.1010  0.1635  0.1927
  446POPC   C1A 5345   6.699   3.106  12.505 -0.1989 -0.1307 -0.2605
  446POPC   D2A 5346   7.097   3.232  12.291 -0.0984  0.0851 -0.0637
  446POPC   C3A 5347   7.207   3.662  12.505 -0.5068  0.1075 -0.1092
  446POPC   C4A 5348   7.416   4.001  12.705  0.1697 -0.1814  0.0193
  446POPC   C1B 5349   6.987   2.897  13.071 -0.1744  0.0731 -0.1647
  446POPC   C2B 5350   7.249   2.776  13.448 -0.1228  0.0110  0.3578
  446POPC   C3B 5351   7.312   2.403  13.679  0.2380  0.1307  0.0085
  446POPC   C4B 5352   7.548   2.042  13.843 -0.1637 -0.1510 -0.1920
  447POPC   NC3 5353   1.836   4.174   9.570 -0.0062  0.1650 -0.0431
  447POPC   PO4 5354   1.905   4.304   9.205 -0.0267 -0.1524  0.0110
  447POPC   GL1 5355   1.942   4.455   8.766 -0.0834  0.1733 -0.2427
  447POPC   GL2 5356   1.613   4.270   8.625 -0.0566 -0.1349 -0.1346
  447POPC   C1A 5357   2.010   4.255   8.344 -0.0606  0.0610  0.1346
  447POPC   D2A 5358   1.959   3.950   7.958  0.0524 -0.0926 -0.3222
  447POPC   C3A 5359   1.936   3.980   7.467 -0.0837  0.1707 -0.1079
  447POPC   C4A 5360   2.031   4.226   7.001  0.0042  0.1488 -0.1645
  447POPC   C1B 5361   1.701   4.665   8.332  0.3403  0.0032 -0.2289
  447POPC   C2B 5362   1.655   4.847   7.917 -0.0367  0.1831  0.0668
  447POPC   C3B 5363   1.515   5.079   7.542  0.1263 -0.0543  0.0659
  447POPC   C4B 5364   1.615   5.486   7.297 -0.2087 -0.0676  0.1548
  448POPC   NC3 5365   6.029   1.065  14.155  0.2211 -0.2256  0.1265
  448POPC   PO4 5366   6.019   1.212  14.498  0.0222 -0.3080 -0.1562
  448POPC   GL1 5367   6.045   1.579  14.487  0.3263 -0.2150  0.0886
  448POPC   GL2 5368   6.134   1.626  14.756 -0.3321 -0.1424  0.0925
  448POPC   C1A 5369   6.506   1.730  14.442  0.1826 -0.4608 -0.0001
  448POPC   D2A 5370   6.940   1.842  14.472  0.0952 -0.0959 -0.1302
  448POPC   C3A 5371   6.960   2.278  14.564 -0.0309 -0.0885  0.0101
  448POPC   C4A 5372   7.279   2.528  14.777  0.0710  0.2749  0.0375
  448POPC   C1B 5373   6.325   2.005  14.928 -0.1766  0.0749  0.1844
  448POPC   C2B 5374   6.152   2.251  15.325 -0.1047 -0.1544 -0.2409
  448POPC   C3B 5375   6.107   2.122  15.770  0.0104 -0.0128 -0.1220
  448POPC   C4B 5376   6.367   2.331  16.115  0.2210 -0.0562 -0.2515
  449POPC   NC3 5377   8.480   6.448   9.832 -0.0137 -0.0042  0.1731
  449POPC   PO4 5378   8.608   6.212   9.512  0.0319  0.0275 -0.1209
  449POPC   GL1 5379   8.254   6.158   9.539 -0.2315  0.4120  0.1385
  449POPC   GL2 5380   8.049   6.252   9.312 -0.2179 -0.2196 -0.1653
  449POPC   C1A 5381   7.877   6.390   9.799 -0.0570  0.1483 -0.3383
  449POPC   D2A 5382   7.540   6.627   9.624  0.4986  0.0483  0.1268
  449POPC   C3A 5383   7.065   6.547   9.577  0.1405  0.0660 -0.4884
  449POPC   C4A 5384   6.626   6.505   9.430 -0.1230 -0.0029  0.1914
  449POPC   C1B 5385   7.568   6.271   9.296  0.3122 -0.3232 -0.0616
  449POPC   C2B 5386   7.356   6.671   9.132 -0.0982 -0.0850 -0.1264
  449POPC   C3B 5387   6.917   6.788   9.060  0.4881  0.1100 -0.0530
  449POPC   C4B 5388   6.519   7.053   9.054  0.2348  0.1869  0.2457
  450POPC   NC3 5389   7.013  12.427   4.965 -0.0365  0.2174 -0.0189
  450POPC   PO4 5390   6.907  12.110   4.778  0.1116 -0.2160  0.0499
  450POPC   GL1 5391   6.835  11.994   5.140 -0.0583 -0.2029 -0.0072
  450POPC   GL2 5392   6.597  12.104   5.343 -0.1273  0.1354 -0.0166
  450POPC   C1A 5393   6.975  11.854   5.578 -0.0037 -0.0626  0.2031
  450POPC   D2A 5394   7.001  11.535   5.880 -0.1209 -0.0519 -0.2876
  450POPC   C3A 5395   6.621  11.625   6.223 -0.1551 -0.0352 -0.0341
  450POPC   C4A 5396   6.245  11.732   6.353 -0.0462  0.0356  0.2034
  450POPC   C1B 5397   6.463  12.468   5.597 -0.1639 -0.3977  0.1396
  450POPC   C2B 5398   6.146  12.525   5.969  0.0227 -0.1508  0.2037
  450POPC   C3B 5399   5.764  12.654   6.146 -0.0534  0.0072 -0.1148
  450POPC   C4B 5400   5.490  12.781   6.542 -0.0666  0.1893  0.1638
  451POPC   NC3 5401  15.044  10.132   4.826 -0.1284 -0.0592  0.0049
  451POPC   PO4 5402  14.793  10.427   4.720  0.1511 -0.0600 -0.0352
  451POPC   GL1 5403  14.919  10.538   5.042 -0.1383  0.2140  0.2275
  451POPC   GL2 5404  15.195  10.559   5.003  0.0045 -0.1315 -0.2870
  451POPC   C1A 5405  14.892  10.903   5.293  0.2628 -0.0432  0.0413
  451POPC   D2A 5406  15.162  11.152   5.506  0.2503  0.3400 -0.0286
  451POPC   C3A 5407  15.288  10.920   5.972  0.0467 -0.0373  0.2119
  451POPC   C4A 5408  15.589  10.872   6.292  0.0718  0.2894  0.1439
  451POPC   C1B 5409  15.433  10.745   5.367 -0.0196  0.1225 -0.1021
  451POPC   C2B 5410  15.664  10.569   5.767  0.1018 -0.0771 -0.2342
  451POPC   C3B 5411  15.852  10.275   6.107 -0.2661  0.0095  0.1303
  451POPC   C4B 5412  15.931  10.468   6.565 -0.2381 -0.0230  0.2943
  452POPC   NC3 5413  31.529   0.657   4.016  0.3069 -0.1672  0.0487
  452POPC   PO4 5414  31.833   0.862   4.236 -0.0998  0.3649  0.1333
  452POPC   GL1 5415  31.626   0.586   4.442  0.3245 -0.2026  0.3656
  452POPC   GL2 5416  31.753   0.391   4.450 -0.3190 -0.2714 -0.2941
  452POPC   C1A 5417  31.527   0.484   4.921 -0.0436 -0.1846  0.0078
  452POPC   D2A 5418  31.483   0.216   5.327 -0.3578 -0.1968 -0.2932
  452POPC   C3A 5419  31.436   0.187   5.772 -0.0979  0.0065  0.0591
  452POPC   C4A 5420  31.638  -0.171   6.019  0.1160 -0.0927 -0.0070
  452POPC   C1B 5421  32.013   0.303   4.886  0.2792 -0.1709 -0.2776
  452POPC   C2B 5422  32.288   0.499   5.226  0.1785  0.1834  0.1160
  452POPC   C3B 5423  32.272   0.643   5.644  0.1350 -0.2261 -0.1131
  452POPC   C4B 5424  32.378   0.744   6.089  0.0107 -0.1694  0.0522
  453POPC   NC3 5425   4.069   6.291   5.119  0.0366 -0.0130  0.1390
  453POPC   PO4 5426   3.792   6.154   5.372  0.1787  0.0232  0.1191
  453POPC   GL1 5427   3.785   6.234   5.724 -0.2319  0.2190  0.2510
  453POPC   GL2 5428   4.061   6.375   5.804 -0.0283 -0.0226  0.1151
  453POPC   C1A 5429   3.701   6.406   6.111  0.2414 -0.3576 -0.1550
  453POPC   D2A 5430   3.739   6.528   6.557  0.0121 -0.3348  0.0476
  453POPC   C3A 5431   3.372   6.360   6.829  0.0322  0.0297  0.0105
  453POPC   C4A 5432   3.297   6.132   7.239 -0.3091 -0.1162  0.0633
  453POPC   C1B 5433   4.210   6.348   6.268  0.0098  0.0302 -0.0277
  453POPC   C2B 5434   4.302   6.381   6.710 -0.0047  0.1400  0.2571
  453POPC   C3B 5435   4.247   6.537   7.157 -0.1209  0.0226  0.3543
  453POPC   C4B 5436   4.148   6.699   7.525 -0.1544 -0.2150  0.0359
  454POPC   NC3 5437   9.810   5.092   9.109  0.0681 -0.1862 -0.1142
  454POPC   PO4 5438   9.938   4.868   9.420 -0.0600 -0.0360  0.3927
  454POPC   GL1 5439   9.893   4.506   9.590 -0.1285 -0.2536 -0.3483
  454POPC   GL2 5440   9.633   4.502   9.553 -0.0217 -0.0596  0.1148
  454POPC   C1A 5441   9.890   4.054   9.800 -0.1438 -0.3671  0.0750
  454POPC   D2A 5442   9.800   3.622   9.927 -0.2067  0.2299  0.2952
  454POPC   C3A 5443  10.101   3.285   9.962  0.3165 -0.1951  0.1401
  454POPC   C4A 5444  10.213   2.859  10.140  0.2608  0.2311 -0.1590
  454POPC   C1B 5445   9.437   4.116   9.744 -0.1318 -0.0556 -0.1935
  454POPC   C2B 5446   9.197   3.775   9.886 -0.0565 -0.2431 -0.0471
  454POPC   C3B 5447   9.023   3.726  10.287 -0.0432  0.0213  0.1142
  454POPC   C4B 5448   8.744   3.516  10.619 -0.1792 -0.0543 -0.0320
  455POPC   NC3 5449  11.265   4.024   6.948  0.0903 -0.1368 -0.2088
  455POPC   PO4 5450  11.542   4.262   7.127  0.0703  0.2171 -0.1549
  455POPC   GL1 5451  11.864   4.320   7.322  0.5046 -0.0949 -0.1972
  455POPC   GL2 5452  12.133   4.213   7.209  0.0827 -0.1770  0.1310
  455POPC   C1A 5453  11.945   4.311   7.774 -0.0926  0.0487 -0.0432
  455POPC   D2A 5454  12.282   4.146   8.056  0.2097 -0.1598  0.3361
  455POPC   C3A 5455  12.713   4.172   8.033  0.0439 -0.2440  0.3323
  455POPC   C4A 5456  13.047   4.440   8.176 -0.0709 -0.3579  0.2233
  455POPC   C1B 5457  12.049   3.902   7.479 -0.0140  0.4395 -0.3987
  455POPC   C2B 5458  11.896   3.871   7.981 -0.0045 -0.2719  0.1879
  455POPC   C3B 5459  11.532   3.692   8.224 -0.0158 -0.2164 -0.1420
  455POPC   C4B 5460  11.093   3.635   8.313 -0.0672  0.0466  0.0377
  456POPC   NC3 5461  14.625   2.107   4.818 -0.2250  0.2030 -0.2037
  456POPC   PO4 5462  14.590   1.738   4.953 -0.0791 -0.1453 -0.0604
  456POPC   GL1 5463  14.624   1.909   5.292 -0.1685 -0.0979 -0.1834
  456POPC   GL2 5464  14.308   1.922   5.453  0.0193  0.0750 -0.0778
  456POPC   C1A 5465  14.688   2.025   5.774  0.1682  0.1128 -0.2842
  456POPC   D2A 5466  14.709   2.356   6.086 -0.1796  0.1376 -0.3835
  456POPC   C3A 5467  14.839   2.378   6.520  0.0508 -0.0928 -0.1249
  456POPC   C4A 5468  15.212   2.349   6.808  0.2870  0.4623  0.0144
  456POPC   C1B 5469  14.251   1.518   5.670 -0.3643  0.0624 -0.1657
  456POPC   C2B 5470  14.451   1.176   5.874 -0.2426 -0.1666 -0.0655
  456POPC   C3B 5471  14.564   0.779   6.034 -0.1598  0.1667  0.4253
  456POPC   C4B 5472  14.719   0.598   6.427  0.2201  0.2234  0.0664
  457POPC   NC3 5473   1.251   1.374   4.175 -0.1508  0.1413  0.0027
  457POPC   PO4 5474   1.223   1.664   4.436  0.1978  0.3488  0.2383
  457POPC   GL1 5475   1.267   1.368   4.679 -0.1158 -0.1646 -0.0991
  457POPC   GL2 5476   1.020   1.325   4.736 -0.0097 -0.0802 -0.2042
  457POPC   C1A 5477   1.287   1.369   5.137  0.0149 -0.2037 -0.0763
  457POPC   D2A 5478   1.608   1.127   5.372 -0.2254  0.0056 -0.0512
  457POPC   C3A 5479   1.509   0.859   5.726 -0.1159 -0.4347  0.0461
  457POPC   C4A 5480   1.870   0.658   5.986 -0.0107  0.0667 -0.1664
  457POPC   C1B 5481   0.906   1.057   5.095  0.3066 -0.0130 -0.1424
  457POPC   C2B 5482   0.806   0.743   5.397  0.2394  0.0357  0.2462
  457POPC   C3B 5483   0.892   0.272   5.436  0.0797 -0.0170  0.3440
  457POPC   C4B 5484   1.083  -0.161   5.630 -0.1205  0.1031 -0.0682
  458POPC   NC3 5485   4.827   5.389   5.786  0.0845  0.0034 -0.0181
  458POPC   PO4 5486   5.210   5.395   5.860  0.5075 -0.2654  0.0741
  458POPC   GL1 5487   4.997   5.560   6.275  0.1939 -0.3327  0.3366
  458POPC   GL2 5488   4.821   5.749   6.170  0.1321 -0.0810  0.2297
  458POPC   C1A 5489   5.027   5.781   6.721 -0.0331  0.0690  0.3200
  458POPC   D2A 5490   4.731   5.881   7.069  0.0753  0.0164 -0.3972
  458POPC   C3A 5491   4.818   5.882   7.500 -0.1409 -0.1496 -0.2611
  458POPC   C4A 5492   5.020   5.515   7.754 -0.1123  0.3410 -0.1731
  458POPC   C1B 5493   4.495   5.893   6.437 -0.0110  0.0829 -0.0496
  458POPC   C2B 5494   4.302   5.903   6.880  0.1907  0.1669  0.0721
  458POPC   C3B 5495   4.237   6.063   7.265 -0.2401 -0.1235  0.0801
  458POPC   C4B 5496   4.000   6.221   7.622  0.2692  0.1041 -0.2861
  459POPC   NC3 5497   5.123   1.675   5.035 -0.0506 -0.0574  0.0242
  459POPC   PO4 5498   5.177   1.355   4.899 -0.0138 -0.2875  0.1551
  459POPC   GL1 5499   4.901   1.205   5.159 -0.1978  0.2126 -0.1857
  459POPC   GL2 5500   5.117   0.973   5.238  0.0330  0.0651 -0.2456
  459POPC   C1A 5501   4.550   0.996   5.310  0.3307 -0.1132  0.0956
  459POPC   D2A 5502   4.404   0.784   5.683 -0.0775 -0.1648 -0.0421
  459POPC   C3A 5503   3.981   0.713   5.636 -0.2540  0.1452 -0.1074
  459POPC   C4A 5504   3.570   0.909   5.574 -0.1654  0.0185  0.0904
  459POPC   C1B 5505   5.204   0.775   5.680 -0.0559 -0.4642 -0.2242
  459POPC   C2B 5506   5.109   0.923   6.137 -0.2982 -0.0854 -0.0619
  459POPC   C3B 5507   4.983   1.084   6.531 -0.1442 -0.3293  0.0828
  459POPC   C4B 5508   5.114   1.303   6.906  0.0607 -0.0896  0.0493
  460POPC   NC3 5509  12.061   6.051   7.906  0.2127 -0.1938  0.3353
  460POPC   PO4 5510  12.069   6.412   7.989  0.2346  0.1909 -0.2576
  460POPC   GL1 5511  12.382   6.501   8.202 -0.0748  0.0951  0.1234
  460POPC   GL2 5512  12.360   6.189   8.342 -0.0029 -0.0878  0.0698
  460POPC   C1A 5513  12.856   6.406   8.213 -0.2511 -0.0797 -0.0119
  460POPC   D2A 5514  13.317   6.383   8.303  0.0685  0.3245 -0.2483
  460POPC   C3A 5515  13.433   6.411   8.717 -0.1124 -0.1716  0.0250
  460POPC   C4A 5516  13.586   6.409   9.079 -0.2915 -0.3985  0.0542
  460POPC   C1B 5517  12.461   5.836   8.651 -0.3348  0.0225  0.0209
  460POPC   C2B 5518  12.324   5.497   8.976  0.0910  0.1968  0.0204
  460POPC   C3B 5519  12.424   5.153   9.286 -0.1057  0.1839 -0.0975
  460POPC   C4B 5520  12.670   4.760   9.428 -0.0743 -0.0307 -0.1111
  461POPC   NC3 5521   4.557   5.173   4.848 -0.1272  0.1508 -0.2265
  461POPC   PO4 5522   4.678   5.215   5.211  0.1551 -0.2468  0.0569
  461POPC   GL1 5523   4.620   5.040   5.526  0.1830 -0.0829  0.1372
  461POPC   GL2 5524   4.402   5.056   5.665 -0.2628  0.0143  0.2719
  461POPC   C1A 5525   4.774   4.849   5.896 -0.1160  0.1240 -0.2146
  461POPC   D2A 5526   5.012   5.058   6.212 -0.0558 -0.1684  0.1354
  461POPC   C3A 5527   4.923   4.796   6.596  0.0071  0.0126  0.1731
  461POPC   C4A 5528   4.985   4.943   7.011 -0.0573 -0.1863 -0.0265
  461POPC   C1B 5529   4.121   4.754   5.885  0.0500 -0.0645 -0.4313
  461POPC   C2B 5530   4.020   4.349   6.219  0.3980  0.0226 -0.0880
  461POPC   C3B 5531   3.983   4.443   6.669 -0.0637 -0.1592  0.1568
  461POPC   C4B 5532   3.895   4.729   7.014 -0.1038  0.0183 -0.0101
  462POPC   NC3 5533   7.784  16.493   4.888  0.0669 -0.0112 -0.1959
  462POPC   PO4 5534   7.791  16.260   5.191  0.0674  0.0860 -0.4015
  462POPC   GL1 5535   7.630  16.149   5.469  0.0922 -0.2895 -0.0207
  462POPC   GL2 5536   7.368  16.128   5.406  0.0016  0.1284  0.2136
  462POPC   C1A 5537   7.599  15.923   5.907 -0.0499  0.1115  0.3539
  462POPC   D2A 5538   7.197  15.740   6.022  0.0392  0.0010  0.1250
  462POPC   C3A 5539   7.036  15.769   6.439  0.2291 -0.1453 -0.3078
  462POPC   C4A 5540   7.055  15.758   6.912  0.0035 -0.2988  0.0777
  462POPC   C1B 5541   7.263  16.271   5.804  0.2067  0.3132 -0.1702
  462POPC   C2B 5542   7.145  16.199   6.226 -0.1546  0.1231 -0.1487
  462POPC   C3B 5543   7.318  16.145   6.662 -0.2243  0.2184  0.1078
  462POPC   C4B 5544   7.325  16.268   7.081 -0.2393  0.1674  0.1361
  463POPC   NC3 5545   0.926   2.242   4.613 -0.1003  0.3488 -0.1537
  463POPC   PO4 5546   0.823   2.594   4.671 -0.3598  0.1111 -0.0568
  463POPC   GL1 5547   0.635   2.611   4.985  0.2802 -0.3793 -0.2317
  463POPC   GL2 5548   0.700   2.844   5.105  0.2785  0.1347 -0.1852
  463POPC   C1A 5549   0.459   2.346   5.343  0.0071 -0.0544 -0.0666
  463POPC   D2A 5550   0.558   2.361   5.793  0.1816  0.0199 -0.0424
  463POPC   C3A 5551   0.392   1.936   5.869 -0.0933  0.1449  0.2685
  463POPC   C4A 5552   0.091   1.822   6.161  0.2629 -0.1399  0.2785
  463POPC   C1B 5553   0.987   2.792   5.485  0.0788  0.0489 -0.1210
  463POPC   C2B 5554   1.091   2.647   5.908  0.2078 -0.0207 -0.1217
  463POPC   C3B 5555   0.975   2.711   6.320  0.3264  0.3591 -0.0019
  463POPC   C4B 5556   1.031   2.947   6.745  0.4850 -0.2314  0.1100
  464POPC   NC3 5557   8.650  13.489   4.456  0.1653 -0.1604  0.1441
  464POPC   PO4 5558   8.406  13.230   4.649 -0.1197 -0.0002 -0.2275
  464POPC   GL1 5559   8.457  13.060   5.027  0.1126  0.1891  0.0228
  464POPC   GL2 5560   8.352  12.825   5.051 -0.1375  0.0072 -0.3499
  464POPC   C1A 5561   8.861  12.837   5.197  0.0987  0.1029 -0.3843
  464POPC   D2A 5562   9.072  12.699   5.562 -0.1667  0.2538 -0.4156
  464POPC   C3A 5563   9.004  12.711   6.009 -0.1571 -0.0438 -0.0599
  464POPC   C4A 5564   8.947  12.973   6.384  0.0852 -0.1107  0.1649
  464POPC   C1B 5565   8.434  12.889   5.439 -0.3298  0.2217 -0.2046
  464POPC   C2B 5566   8.652  13.026   5.792 -0.2987  0.2390 -0.1168
  464POPC   C3B 5567   8.748  13.332   6.044 -0.1874  0.0027  0.2196
  464POPC   C4B 5568   8.814  13.547   6.471 -0.0567  0.0212 -0.1389
  465POPC   NC3 5569   3.508  14.247   4.251 -0.1630 -0.0885 -0.0677
  465POPC   PO4 5570   3.772  13.951   4.316 -0.3881  0.0869 -0.1345
  465POPC   GL1 5571   3.604  13.659   4.537 -0.1541 -0.2485 -0.1735
  465POPC   GL2 5572   3.807  13.748   4.781  0.0595 -0.1759  0.0800
  465POPC   C1A 5573   3.236  13.444   4.805  0.0724  0.2721 -0.1380
  465POPC   D2A 5574   2.810  13.291   4.625 -0.1643 -0.0678 -0.1457
  465POPC   C3A 5575   2.534  13.297   4.974 -0.0504 -0.2029  0.4307
  465POPC   C4A 5576   2.377  13.357   5.388 -0.3440 -0.1639  0.0435
  465POPC   C1B 5577   3.771  13.721   5.244  0.1027 -0.2109  0.0014
  465POPC   C2B 5578   3.686  14.063   5.541 -0.2544  0.2535 -0.2978
  465POPC   C3B 5579   3.766  14.286   5.954 -0.3475  0.1461  0.1158
  465POPC   C4B 5580   4.075  14.533   6.292  0.2712 -0.0578 -0.0774
  466POPC   NC3 5581   9.724   4.832  12.265  0.0204  0.1844 -0.2379
  466POPC   PO4 5582   9.499   5.040  12.067  0.0496 -0.1705  0.2738
  466POPC   GL1 5583   9.545   4.719  11.777  0.0375  0.0034  0.2637
  466POPC   GL2 5584   9.463   4.536  11.968  0.0648 -0.0553 -0.0796
  466POPC   C1A 5585   9.705   4.373  11.552  0.0764  0.3961  0.1803
  466POPC   D2A 5586   9.703   3.956  11.311  0.0084  0.1902 -0.3953
  466POPC   C3A 5587   9.783   3.707  11.658  0.3416 -0.2467  0.0845
  466POPC   C4A 5588   9.571   3.661  12.076 -0.1782  0.0631 -0.1277
  466POPC   C1B 5589   9.202   4.410  11.561 -0.1284 -0.1528  0.0022
  466POPC   C2B 5590   9.317   4.234  11.192  0.0383  0.1091 -0.1443
  466POPC   C3B 5591   9.326   3.794  10.998 -0.0031 -0.2193  0.0711
  466POPC   C4B 5592   8.989   3.515  11.058  0.0264 -0.1399 -0.3561
  467POPC   NC3 5593  11.972  15.235   4.896 -0.1466  0.1369  0.0327
  467POPC   PO4 5594  11.839  14.916   4.670  0.0409 -0.0026 -0.0625
  467POPC   GL1 5595  11.990  14.789   5.033  0.0377 -0.0109  0.3099
  467POPC   GL2 5596  12.114  14.550   5.044  0.0159 -0.0706 -0.2799
  467POPC   C1A 5597  11.802  14.681   5.451  0.0702 -0.0703 -0.2613
  467POPC   D2A 5598  11.610  14.579   5.880 -0.2034  0.2222  0.3184
  467POPC   C3A 5599  11.431  14.379   6.236  0.1027  0.2804 -0.3426
  467POPC   C4A 5600  11.518  14.372   6.695 -0.0138 -0.0056 -0.1923
  467POPC   C1B 5601  12.337  14.462   5.456 -0.2621  0.1844  0.0459
  467POPC   C2B 5602  12.589  14.216   5.765 -0.1013  0.1866 -0.2080
  467POPC   C3B 5603  12.734  14.332   6.206  0.0138  0.2613 -0.1391
  467POPC   C4B 5604  12.737  14.677   6.477 -0.0529  0.0049  0.0461
  468POPC   NC3 5605  14.976  15.409   3.986  0.5814 -0.1103  0.2770
  468POPC   PO4 5606  14.932  15.028   4.073  0.0049 -0.1105 -0.1542
  468POPC   GL1 5607  14.858  15.357   4.434 -0.2671 -0.3357  0.1190
  468POPC   GL2 5608  14.710  15.410   4.739  0.2226 -0.2221 -0.0765
  468POPC   C1A 5609  15.098  15.682   4.630  0.2114  0.1274 -0.1397
  468POPC   D2A 5610  15.127  15.833   5.059 -0.0210  0.1508  0.1951
  468POPC   C3A 5611  15.335  15.715   5.469 -0.5144 -0.1701 -0.1988
  468POPC   C4A 5612  15.363  15.323   5.726 -0.4295  0.1016 -0.2401
  468POPC   C1B 5613  15.010  15.373   5.071  0.1921 -0.2146 -0.5138
  468POPC   C2B 5614  14.912  15.235   5.533  0.0195 -0.2939 -0.0959
  468POPC   C3B 5615  14.834  15.152   5.954  0.2419 -0.1528  0.0644
  468POPC   C4B 5616  14.627  14.801   6.142  0.0785  0.1172  0.1466
  469POPC   NC3 5617  10.781   5.643  12.185 -0.0509  0.1473  0.1241
  469POPC   PO4 5618  10.553   5.353  11.986  0.2773  0.0396  0.1700
  469POPC   GL1 5619  10.719   5.134  12.255 -0.0519 -0.2158 -0.1954
  469POPC   GL2 5620  11.059   5.136  12.283  0.0619  0.2462  0.1601
  469POPC   C1A 5621  10.833   4.682  12.256 -0.3118  0.1253 -0.0749
  469POPC   D2A 5622  11.029   4.302  12.421  0.0787 -0.0590 -0.1658
  469POPC   C3A 5623  11.077   3.874  12.259 -0.2997 -0.2461  0.0439
  469POPC   C4A 5624  11.271   3.641  11.920  0.1619 -0.2694 -0.1359
  469POPC   C1B 5625  11.319   4.762  12.198 -0.2103 -0.3855  0.2828
  469POPC   C2B 5626  11.701   4.500  12.402  0.0361  0.1700  0.1710
  469POPC   C3B 5627  12.070   4.592  12.724  0.3787 -0.1643  0.0212
  469POPC   C4B 5628  12.329   4.820  13.074 -0.0316 -0.2747  0.2362
  470POPC   NC3 5629  10.934   6.164   8.683  0.1258  0.2288  0.0310
  470POPC   PO4 5630  11.175   6.070   8.975  0.3590  0.0204 -0.2225
  470POPC   GL1 5631  11.465   6.218   9.164  0.0017  0.1398 -0.0698
  470POPC   GL2 5632  11.747   6.304   9.145 -0.2140  0.0732  0.3228
  470POPC   C1A 5633  11.381   6.619   9.512 -0.1290  0.0107 -0.3025
  470POPC   D2A 5634  11.412   6.894   9.899 -0.0275 -0.0136  0.2707
  470POPC   C3A 5635  11.838   6.999   9.840  0.3079  0.2246 -0.1304
  470POPC   C4A 5636  12.141   7.340   9.953  0.1910  0.2143 -0.1093
  470POPC   C1B 5637  12.200   6.191   9.200  0.2146  0.0524  0.0915
  470POPC   C2B 5638  12.623   6.171   9.227 -0.0162 -0.2591  0.0350
  470POPC   C3B 5639  12.909   5.943   9.429 -0.1755 -0.1284  0.2654
  470POPC   C4B 5640  13.232   5.646   9.260  0.3623  0.0371 -0.0150
  471POPC   NC3 5641   9.220   1.028   5.466  0.1971  0.2345  0.2844
  471POPC   PO4 5642   9.485   1.102   5.752  0.3603 -0.2417 -0.1523
  471POPC   GL1 5643   9.562   1.082   6.154  0.5129  0.0118  0.1351
  471POPC   GL2 5644   9.501   0.772   6.101 -0.0713 -0.3151 -0.1506
  471POPC   C1A 5645   9.823   0.945   6.504 -0.3213  0.4475 -0.0864
  471POPC   D2A 5646  10.240   0.814   6.733 -0.0101  0.2323 -0.0506
  471POPC   C3A 5647  10.359   0.578   7.129  0.1017 -0.1379  0.0083
  471POPC   C4A 5648  10.485   0.107   7.213 -0.2766 -0.0549  0.1776
  471POPC   C1B 5649   9.474   0.533   6.516 -0.1579 -0.2022 -0.2187
  471POPC   C2B 5650   9.441   0.183   6.698  0.2122  0.2098  0.0708
  471POPC   C3B 5651   9.377   0.152   7.146 -0.2870  0.0527 -0.0747
  471POPC   C4B 5652   9.303   0.164   7.545 -0.0002  0.1239 -0.4262
  472POPC   NC3 5653  32.390  15.814   4.290 -0.0177 -0.0935 -0.0632
  472POPC   PO4 5654  32.668  16.064   4.267 -0.0841 -0.1141  0.0887
  472POPC   GL1 5655  32.877  16.176   4.662  0.0428 -0.1369  0.2531
  472POPC   GL2 5656  32.814  15.884   4.769 -0.2798 -0.3125  0.1484
  472POPC   C1A 5657  33.297  16.040   4.855 -0.2877 -0.0391  0.0825
  472POPC   D2A 5658  33.710  16.279   4.964  0.2832 -0.1796  0.1841
  472POPC   C3A 5659  33.838  16.394   5.415 -0.1586 -0.0160  0.1819
  472POPC   C4A 5660  34.001  16.339   5.834  0.2034 -0.0131  0.3804
  472POPC   C1B 5661  32.665  15.881   5.238 -0.1562 -0.1686 -0.1421
  472POPC   C2B 5662  32.639  16.057   5.709  0.0660  0.4488 -0.0513
  472POPC   C3B 5663  32.638  16.137   6.137 -0.1166 -0.1632 -0.2603
  472POPC   C4B 5664  32.315  16.410   6.341 -0.1178  0.1370  0.0292
  473POPC   NC3 5665   9.580  14.014   4.554  0.1813 -0.3059 -0.0727
  473POPC   PO4 5666   9.527  13.655   4.707 -0.1310 -0.4182  0.3646
  473POPC   GL1 5667   9.568  13.761   5.180 -0.0403  0.0255 -0.0091
  473POPC   GL2 5668   9.682  13.474   5.217 -0.0512 -0.0731  0.0001
  473POPC   C1A 5669   9.299  13.611   5.506  0.0311 -0.0418  0.2214
  473POPC   D2A 5670   9.080  13.791   5.889 -0.3691 -0.1038 -0.2178
  473POPC   C3A 5671   9.254  13.795   6.317  0.1724  0.0993 -0.1412
  473POPC   C4A 5672   9.307  13.743   6.804  0.1950  0.0088  0.1665
  473POPC   C1B 5673  10.084  13.354   5.462  0.1081  0.1989  0.1785
  473POPC   C2B 5674  10.149  13.368   5.934  0.0212 -0.0476  0.3669
  473POPC   C3B 5675  10.212  13.421   6.378  0.2813 -0.0152  0.0047
  473POPC   C4B 5676  10.401  13.494   6.808  0.1857 -0.2964  0.0330
  474POPC   NC3 5677   6.528   2.277   5.541 -0.1388  0.0059  0.1407
  474POPC   PO4 5678   6.634   1.876   5.535  0.0375 -0.3630  0.2133
  474POPC   GL1 5679   6.796   1.772   5.877 -0.0018  0.3230 -0.0653
  474POPC   GL2 5680   6.654   1.544   5.942 -0.3454 -0.2175  0.0813
  474POPC   C1A 5681   6.842   1.732   6.378  0.2539  0.1431  0.0898
  474POPC   D2A 5682   6.621   1.551   6.766 -0.0608  0.1735 -0.1202
  474POPC   C3A 5683   6.507   1.382   7.208 -0.1686 -0.3841  0.1258
  474POPC   C4A 5684   6.567   1.109   7.559  0.0014  0.1522 -0.4922
  474POPC   C1B 5685   6.339   1.520   6.274  0.0892  0.1846  0.3200
  474POPC   C2B 5686   6.146   1.455   6.714 -0.1105 -0.0424  0.0738
  474POPC   C3B 5687   6.106   1.168   7.099 -0.0317 -0.2446 -0.3439
  474POPC   C4B 5688   6.072   1.037   7.585  0.1663 -0.1692 -0.0055
  475POPC   NC3 5689   9.274   5.329  10.073 -0.0532 -0.2187 -0.2936
  475POPC   PO4 5690   9.613   5.254   9.899  0.0409 -0.3839 -0.0130
  475POPC   GL1 5691   9.666   4.959   9.855 -0.1939  0.0158  0.0659
  475POPC   GL2 5692   9.953   4.878   9.866 -0.4081  0.0078 -0.0498
  475POPC   C1A 5693   9.450   4.558  10.008  0.0446  0.0346 -0.2006
  475POPC   D2A 5694   9.174   4.230  10.198  0.2787  0.0638  0.1156
  475POPC   C3A 5695   9.246   4.095  10.601 -0.1008 -0.0509 -0.1255
  475POPC   C4A 5696   8.879   3.971  10.915 -0.1888 -0.3687 -0.1206
  475POPC   C1B 5697   9.957   4.486  10.126 -0.0046  0.1033 -0.1923
  475POPC   C2B 5698   9.669   4.195  10.322  0.1669 -0.0307 -0.3436
  475POPC   C3B 5699   9.540   3.775  10.343  0.1642 -0.1172  0.1494
  475POPC   C4B 5700   9.587   3.317  10.242 -0.0401  0.2048 -0.3172
  476POPC   NC3 5701  13.164   4.876   5.931 -0.0668  0.0682 -0.0453
  476POPC   PO4 5702  13.459   4.633   5.783 -0.0403 -0.0625  0.1133
  476POPC   GL1 5703  13.835   4.460   6.021  0.3770 -0.1610 -0.0275
  476POPC   GL2 5704  13.774   4.643   6.192  0.1741 -0.1369 -0.1881
  476POPC   C1A 5705  13.761   4.190   6.386 -0.2809 -0.0224  0.0661
  476POPC   D2A 5706  13.666   4.032   6.791  0.0491 -0.2345  0.0538
  476POPC   C3A 5707  13.974   4.180   7.159  0.1059 -0.2378  0.0746
  476POPC   C4A 5708  14.348   4.359   7.473  0.0233  0.1856 -0.0507
  476POPC   C1B 5709  14.221   4.499   6.330 -0.0977 -0.0857 -0.0536
  476POPC   C2B 5710  14.604   4.555   6.559  0.0481 -0.0725 -0.2102
  476POPC   C3B 5711  14.863   4.417   6.947  0.0673 -0.0677 -0.0656
  476POPC   C4B 5712  14.875   4.394   7.411  0.1849  0.3779 -0.1910
  477POPC   NC3 5713   6.134  11.555   4.648  0.2361  0.0169 -0.0688
  477POPC   PO4 5714   6.372  11.257   4.813  0.3602 -0.2929 -0.0969
  477POPC   GL1 5715   6.225  11.207   5.175 -0.0484  0.1907 -0.0750
  477POPC   GL2 5716   6.125  11.524   5.167  0.0360 -0.0069  0.2842
  477POPC   C1A 5717   6.133  11.322   5.601 -0.1126 -0.0859 -0.0031
  477POPC   D2A 5718   5.983  11.655   5.938 -0.0130 -0.2318 -0.0288
  477POPC   C3A 5719   5.791  11.638   6.321 -0.0739  0.3008 -0.1549
  477POPC   C4A 5720   5.719  11.670   6.760  0.1102 -0.5497 -0.3898
  477POPC   C1B 5721   5.802  11.730   5.447  0.2221  0.3438  0.2239
  477POPC   C2B 5722   5.494  11.771   5.772 -0.3586 -0.0514 -0.1264
  477POPC   C3B 5723   5.331  11.813   6.137 -0.0356 -0.6137  0.0519
  477POPC   C4B 5724   5.273  11.547   6.495  0.1670  0.0785  0.1077
  478POPC   NC3 5725   8.923   6.752  10.142  0.0456  0.1581  0.0911
  478POPC   PO4 5726   8.610   6.582  10.281 -0.3683  0.0256  0.0709
  478POPC   GL1 5727   8.524   6.956  10.450 -0.1937 -0.0352 -0.3098
  478POPC   GL2 5728   8.298   6.888  10.590 -0.2825 -0.2123 -0.0195
  478POPC   C1A 5729   8.566   7.384  10.241  0.0384  0.0269  0.0192
  478POPC   D2A 5730   8.857   7.662   9.992  0.3254 -0.2330  0.0098
  478POPC   C3A 5731   8.638   8.020  10.175 -0.0254 -0.1977 -0.0757
  478POPC   C4A 5732   8.243   8.304  10.092  0.0080 -0.0306 -0.1309
  478POPC   C1B 5733   7.950   6.754  10.283 -0.2021  0.0416  0.2031
  478POPC   C2B 5734   7.549   6.678  10.176 -0.1236  0.1852 -0.0122
  478POPC   C3B 5735   7.143   6.473  10.197 -0.2920 -0.1269  0.0680
  478POPC   C4B 5736   6.999   6.148  10.384  0.1595  0.0149  0.3519
  479POPC   NC3 5737   6.917   5.909   6.725 -0.0230 -0.0721 -0.0686
  479POPC   PO4 5738   6.898   5.911   7.143 -0.2107  0.1578  0.1295
  479POPC   GL1 5739   6.490   6.038   7.244  0.1588  0.0696 -0.2057
  479POPC   GL2 5740   6.476   5.921   7.474 -0.1685 -0.2132 -0.0424
  479POPC   C1A 5741   6.088   6.176   7.478  0.1504  0.2077 -0.0572
  479POPC   D2A 5742   5.911   6.257   7.953 -0.2032 -0.1061 -0.0638
  479POPC   C3A 5743   5.815   6.656   8.150 -0.0352 -0.0646  0.0566
  479POPC   C4A 5744   5.523   6.812   8.454 -0.0622 -0.2786  0.2458
  479POPC   C1B 5745   6.433   5.830   7.925  0.0191  0.4668  0.4863
  479POPC   C2B 5746   6.044   5.866   8.244 -0.0298  0.1087 -0.2278
  479POPC   C3B 5747   5.664   5.923   8.482 -0.0884 -0.2152  0.2797
  479POPC   C4B 5748   5.326   6.171   8.700  0.4326  0.4419 -0.0126
  480POPC   NC3 5749  11.163  14.881   4.626  0.1102  0.0410 -0.0347
  480POPC   PO4 5750  11.137  15.253   4.388 -0.1283 -0.0288  0.3428
  480POPC   GL1 5751  11.092  15.270   4.832  0.2870 -0.1871  0.0743
  480POPC   GL2 5752  10.860  15.291   5.002 -0.1818 -0.2956  0.0458
  480POPC   C1A 5753  11.309  15.421   5.236 -0.2574 -0.2288  0.1623
  480POPC   D2A 5754  11.180  15.472   5.680  0.1260  0.0131  0.0850
  480POPC   C3A 5755  11.094  15.184   6.071  0.0397  0.2364  0.1289
  480POPC   C4A 5756  11.512  14.992   6.212 -0.0094 -0.3761 -0.0620
  480POPC   C1B 5757  10.836  15.163   5.429 -0.0984  0.0477  0.3638
  480POPC   C2B 5758  10.689  14.960   5.817  0.0415  0.0463  0.1475
  480POPC   C3B 5759  10.565  14.633   6.138 -0.1411 -0.1611 -0.1891
  480POPC   C4B 5760  10.566  14.325   6.465 -0.3714 -0.2678 -0.0622
  481POPC   NC3 5761   6.384   0.556   4.953  0.2046  0.0942  0.0716
  481POPC   PO4 5762   6.223   0.209   4.870  0.1227 -0.2110 -0.2739
  481POPC   GL1 5763   6.075   0.206   5.193 -0.1330  0.0756 -0.1227
  481POPC   GL2 5764   6.200   0.377   5.432  0.1289  0.0623 -0.1033
  481POPC   C1A 5765   5.859  -0.128   5.461  0.1859 -0.0946 -0.1693
  481POPC   D2A 5766   5.525  -0.098   5.735 -0.1789 -0.2874  0.1403
  481POPC   C3A 5767   5.451   0.280   5.999 -0.3320 -0.4324 -0.0409
  481POPC   C4A 5768   5.171   0.426   6.307 -0.0570 -0.3754  0.0224
  481POPC   C1B 5769   5.980   0.163   5.774  0.0719 -0.0637 -0.4376
  481POPC   C2B 5770   5.816   0.056   6.170  0.0195 -0.0002 -0.0084
  481POPC   C3B 5771   5.608   0.028   6.558 -0.1797 -0.0726 -0.4821
  481POPC   C4B 5772   5.310   0.061   6.891  0.2269  0.1885 -0.1702
  482POPC   NC3 5773   8.492  13.521   5.039  0.3175 -0.1745  0.4198
  482POPC   PO4 5774   8.750  13.775   4.839  0.1342  0.2857 -0.0488
  482POPC   GL1 5775   8.824  14.032   5.186 -0.1360  0.1185 -0.3647
  482POPC   GL2 5776   8.595  13.891   5.356 -0.1453  0.0520  0.0577
  482POPC   C1A 5777   8.892  14.173   5.630 -0.4962 -0.0142 -0.2486
  482POPC   D2A 5778   9.144  14.334   6.056 -0.1755  0.1944 -0.0943
  482POPC   C3A 5779   9.024  14.372   6.502 -0.2390 -0.0064  0.1412
  482POPC   C4A 5780   8.914  14.504   6.909  0.1086 -0.3703 -0.0534
  482POPC   C1B 5781   8.342  14.137   5.687 -0.0650 -0.0768 -0.0163
  482POPC   C2B 5782   8.226  14.490   5.930 -0.0637 -0.3390  0.0919
  482POPC   C3B 5783   8.123  14.580   6.355  0.2068 -0.3805 -0.1213
  482POPC   C4B 5784   8.008  14.540   6.784 -0.0767  0.2339  0.1095
  483POPC   NC3 5785   9.533  10.357   6.749  0.0481 -0.1019 -0.4403
  483POPC   PO4 5786   9.363   9.987   6.637 -0.2762  0.2149 -0.1530
  483POPC   GL1 5787   9.327  10.039   7.060 -0.1204 -0.3228 -0.1470
  483POPC   GL2 5788   9.108  10.199   7.071  0.0441 -0.0054  0.0329
  483POPC   C1A 5789   9.528   9.850   7.435  0.1883 -0.0311 -0.0482
  483POPC   D2A 5790   9.450   9.815   7.912  0.4032 -0.0994  0.3303
  483POPC   C3A 5791   9.285  10.130   8.245 -0.0520  0.3038  0.1179
  483POPC   C4A 5792   9.248  10.549   8.433 -0.2288 -0.3275 -0.0644
  483POPC   C1B 5793   9.025  10.534   7.403 -0.2381 -0.3531 -0.2635
  483POPC   C2B 5794   8.732  10.711   7.708  0.0189 -0.3518 -0.1252
  483POPC   C3B 5795   8.433  10.923   8.042  0.0863  0.0941  0.2007
  483POPC   C4B 5796   8.020  10.799   8.177 -0.0268 -0.1892 -0.0055
  484POPC   NC3 5797   7.543   7.058   7.502 -0.2095 -0.0462  0.0553
  484POPC   PO4 5798   7.651   7.385   7.686  0.0234  0.1316 -0.0455
  484POPC   GL1 5799   7.431   7.409   8.067  0.0278 -0.5269  0.0858
  484POPC   GL2 5800   7.623   7.278   8.275 -0.2766  0.0378  0.1245
  484POPC   C1A 5801   7.404   7.844   8.277  0.0851 -0.4063  0.0065
  484POPC   D2A 5802   7.133   8.173   8.535  0.0228  0.0095  0.0616
  484POPC   C3A 5803   7.256   8.612   8.626 -0.0210  0.0507  0.0881
  484POPC   C4A 5804   7.533   9.007   8.713 -0.0054 -0.1275  0.0522
  484POPC   C1B 5805   7.323   7.468   8.565 -0.3495  0.1221 -0.1644
  484POPC   C2B 5806   6.926   7.737   8.549 -0.1241  0.2847 -0.0162
  484POPC   C3B 5807   6.434   7.826   8.625 -0.3015 -0.0593  0.1477
  484POPC   C4B 5808   6.244   8.033   9.012  0.0517  0.1528  0.0674
  485POPC   NC3 5809  13.879   3.263   5.574  0.4065 -0.3672 -0.0180
  485POPC   PO4 5810  13.735   2.916   5.473 -0.2857  0.0550  0.0243
  485POPC   GL1 5811  13.895   2.602   5.673  0.2041  0.0407 -0.0335
  485POPC   GL2 5812  13.892   2.763   5.950  0.0117  0.2853 -0.0715
  485POPC   C1A 5813  14.310   2.440   5.711 -0.0790 -0.0061  0.1162
  485POPC   D2A 5814  14.746   2.571   5.653 -0.0366  0.0342  0.1513
  485POPC   C3A 5815  14.988   2.810   5.900  0.0373 -0.3705  0.0782
  485POPC   C4A 5816  15.042   3.244   6.103  0.0543 -0.1052 -0.1843
  485POPC   C1B 5817  14.180   2.481   6.210  0.0831 -0.1207 -0.0438
  485POPC   C2B 5818  14.046   2.061   6.440 -0.0345  0.3191  0.0898
  485POPC   C3B 5819  13.701   1.991   6.627  0.1922  0.3352  0.0164
  485POPC   C4B 5820  13.316   1.859   6.671 -0.0878 -0.1094 -0.0694
  486POPC   NC3 5821   9.736  11.403   5.339  0.0575 -0.0222 -0.1132
  486POPC   PO4 5822   9.810  11.287   5.672 -0.0074  0.0717 -0.0653
  486POPC   GL1 5823   9.838  11.165   6.128 -0.0321 -0.2932  0.0216
  486POPC   GL2 5824  10.092  11.067   6.156  0.1462  0.2893 -0.1540
  486POPC   C1A 5825   9.817  11.339   6.572  0.1758 -0.1751 -0.0411
  486POPC   D2A 5826  10.130  11.669   6.676 -0.1836  0.0791 -0.3653
  486POPC   C3A 5827  10.133  11.998   7.023 -0.0837  0.3851 -0.0135
  486POPC   C4A 5828  10.170  12.429   7.057  0.1296 -0.1591 -0.2787
  486POPC   C1B 5829  10.264  11.175   6.524  0.0201  0.1408  0.0748
  486POPC   C2B 5830  10.369  11.160   6.957 -0.0467 -0.3210 -0.0293
  486POPC   C3B 5831  10.283  10.855   7.247 -0.2944  0.0307 -0.2861
  486POPC   C4B 5832   9.907  10.702   7.518 -0.1099  0.2518 -0.0284
  487POPC   NC3 5833  10.731   7.512   8.250 -0.0314  0.2611 -0.0928
  487POPC   PO4 5834  10.472   7.819   8.266 -0.1136  0.2400  0.0004
  487POPC   GL1 5835  10.592   7.924   8.603  0.3468 -0.0357 -0.1388
  487POPC   GL2 5836  10.832   7.809   8.645  0.2139  0.2293 -0.1916
  487POPC   C1A 5837  10.844   8.304   8.694 -0.0401 -0.0306  0.2471
  487POPC   D2A 5838  11.113   8.645   8.839  0.1185 -0.2004  0.0487
  487POPC   C3A 5839  11.513   8.719   9.078  0.4003  0.0653  0.1860
  487POPC   C4A 5840  11.944   8.812   8.938 -0.2746 -0.0475 -0.1054
  487POPC   C1B 5841  11.183   8.046   8.448  0.3052  0.0362  0.1997
  487POPC   C2B 5842  11.605   7.977   8.394  0.1492 -0.0960 -0.1928
  487POPC   C3B 5843  12.016   8.270   8.342 -0.2516  0.0489  0.0210
  487POPC   C4B 5844  12.199   8.434   8.753  0.0648  0.0100 -0.4058
  488POPC   NC3 5845   6.733  15.650   4.617  0.2820  0.0386 -0.0631
  488POPC   PO4 5846   7.024  15.667   4.905 -0.0520 -0.2469  0.0533
  488POPC   GL1 5847   6.908  15.425   5.132 -0.1389  0.0588 -0.1760
  488POPC   GL2 5848   6.662  15.194   5.064 -0.0510  0.3437 -0.0718
  488POPC   C1A 5849   6.778  15.252   5.548 -0.0495 -0.0638  0.1134
  488POPC   D2A 5850   6.492  15.008   5.835 -0.0509 -0.0085 -0.1553
  488POPC   C3A 5851   6.372  14.951   6.215 -0.0247 -0.2820 -0.1875
  488POPC   C4A 5852   6.271  14.926   6.660 -0.0201  0.2206 -0.2336
  488POPC   C1B 5853   6.502  14.912   5.361 -0.1651  0.2524  0.2092
  488POPC   C2B 5854   6.090  14.799   5.606 -0.1218 -0.0922  0.2901
  488POPC   C3B 5855   5.587  14.810   5.588  0.0386  0.0703  0.1342
  488POPC   C4B 5856   5.181  14.835   5.679  0.0017  0.1326 -0.1194
  489POPC   NC3 5857  16.714  14.426   3.867  0.3901  0.2456 -0.0070
  489POPC   PO4 5858  16.361  14.559   3.809 -0.2445  0.1139 -0.1059
  489POPC   GL1 5859  16.497  14.676   4.194  0.1269  0.1813 -0.2527
  489POPC   GL2 5860  16.398  14.449   4.349  0.1014  0.0006 -0.0335
  489POPC   C1A 5861  16.365  14.985   4.534 -0.0010 -0.0713 -0.1702
  489POPC   D2A 5862  16.231  15.270   4.835 -0.0828 -0.1567 -0.3359
  489POPC   C3A 5863  15.763  15.244   4.966 -0.2502 -0.0415 -0.2047
  489POPC   C4A 5864  15.443  15.253   5.221  0.2054 -0.0082 -0.1651
  489POPC   C1B 5865  16.718  14.331   4.609 -0.2809 -0.1501  0.0610
  489POPC   C2B 5866  16.724  14.305   5.041  0.0481 -0.1943 -0.0026
  489POPC   C3B 5867  16.699  14.396   5.503  0.1624  0.1183 -0.1939
  489POPC   C4B 5868  16.659  14.171   5.903 -0.2377  0.0206 -0.0086
  490POPC   NC3 5869   9.970   6.606   8.986  0.1551 -0.1147 -0.2384
  490POPC   PO4 5870   9.716   6.924   8.905  0.1691  0.1409  0.1542
  490POPC   GL1 5871   9.596   7.232   9.195  0.4433 -0.0303 -0.0688
  490POPC   GL2 5872   9.663   7.462   8.986  0.0177  0.1496  0.1819
  490POPC   C1A 5873   9.969   7.389   9.444  0.0815  0.3114 -0.3142
  490POPC   D2A 5874  10.339   7.579   9.400 -0.0352  0.1171 -0.2627
  490POPC   C3A 5875  10.240   7.916   9.635  0.3078 -0.1207 -0.1855
  490POPC   C4A 5876  10.295   8.136  10.050  0.2066 -0.0787 -0.0753
  490POPC   C1B 5877   9.959   7.774   9.157 -0.2112  0.0318 -0.2774
  490POPC   C2B 5878   9.968   8.193   9.236  0.2502 -0.0739  0.0609
  490POPC   C3B 5879   9.987   8.457   9.617  0.3250  0.0685 -0.0431
  490POPC   C4B 5880  10.209   8.700   9.924  0.0703 -0.2264  0.1081
  491POPC   NC3 5881   6.122   9.624   5.666  0.0905  0.1512 -0.0043
  491POPC   PO4 5882   5.846   9.872   5.596 -0.1650 -0.1687 -0.2210
  491POPC   GL1 5883   5.701   9.915   5.911 -0.2154  0.1891 -0.1056
  491POPC   GL2 5884   5.642   9.633   6.027 -0.1061  0.2070 -0.0241
  491POPC   C1A 5885   5.979   9.873   6.279 -0.0291  0.3438 -0.3826
  491POPC   D2A 5886   6.224  10.007   6.619  0.1096  0.5746  0.0495
  491POPC   C3A 5887   6.291  10.130   6.976 -0.1788  0.0098 -0.0857
  491POPC   C4A 5888   6.295  10.436   7.336  0.0696 -0.1617 -0.0752
  491POPC   C1B 5889   5.530   9.973   6.365  0.0818  0.1619  0.1760
  491POPC   C2B 5890   5.442  10.417   6.412  0.0744  0.0432  0.0509
  491POPC   C3B 5891   5.397  10.733   6.752 -0.0709 -0.0451  0.0647
  491POPC   C4B 5892   5.437  10.812   7.228 -0.1584  0.0088 -0.0200
  492POPC   NC3 5893  15.515   6.802   5.554 -0.3411 -0.2627  0.2170
  492POPC   PO4 5894  15.221   6.969   5.372 -0.1768  0.2083 -0.0320
  492POPC   GL1 5895  15.065   6.986   5.803 -0.0607 -0.1228  0.1937
  492POPC   GL2 5896  15.165   6.730   5.976 -0.2031 -0.2330 -0.0418
  492POPC   C1A 5897  14.883   7.204   6.172 -0.1880 -0.0779 -0.3928
  492POPC   D2A 5898  14.676   7.178   6.561  0.2364  0.0567  0.0488
  492POPC   C3A 5899  14.784   7.282   7.024  0.0474  0.0862 -0.2569
  492POPC   C4A 5900  15.106   7.320   7.434  0.0346 -0.3028 -0.0020
  492POPC   C1B 5901  15.378   7.145   6.137  0.0588  0.1979 -0.1761
  492POPC   C2B 5902  15.484   7.627   6.333 -0.2420  0.2588  0.1914
  492POPC   C3B 5903  15.741   7.948   6.522 -0.1229  0.0192  0.1940
  492POPC   C4B 5904  15.853   8.368   6.419  0.0115 -0.0145  0.0426
  493POPC   NC3 5905   4.737  14.020   4.111  0.4644 -0.2654  0.2120
  493POPC   PO4 5906   4.915  13.877   4.420 -0.1903 -0.1307  0.1199
  493POPC   GL1 5907   4.657  14.114   4.571 -0.2449  0.0630 -0.1423
  493POPC   GL2 5908   4.674  13.999   4.846  0.1937 -0.4086 -0.0333
  493POPC   C1A 5909   4.745  14.506   4.848 -0.1306  0.3740 -0.0941
  493POPC   D2A 5910   5.037  14.594   5.228  0.0395 -0.0025 -0.0169
  493POPC   C3A 5911   4.945  14.314   5.565  0.0532 -0.0939  0.3404
  493POPC   C4A 5912   4.996  13.880   5.574  0.0110 -0.0452 -0.0419
  493POPC   C1B 5913   4.585  13.811   5.233 -0.0102  0.1217  0.1209
  493POPC   C2B 5914   4.561  13.771   5.708  0.1423  0.2084 -0.3207
  493POPC   C3B 5915   4.661  13.740   6.188  0.0670 -0.0453  0.0260
  493POPC   C4B 5916   4.768  13.961   6.590  0.1170  0.0047 -0.0752
  494POPC   NC3 5917  32.093  16.382   3.925 -0.0529 -0.0165  0.3651
  494POPC   PO4 5918  31.915  16.036   4.040 -0.1182  0.1294 -0.2601
  494POPC   GL1 5919  31.911  16.193   4.410 -0.0776  0.1515  0.1372
  494POPC   GL2 5920  31.665  16.296   4.492 -0.4281 -0.1197  0.0484
  494POPC   C1A 5921  31.967  16.173   4.863  0.0378 -0.3362 -0.0769
  494POPC   D2A 5922  32.045  15.929   5.251 -0.1713 -0.1190  0.0825
  494POPC   C3A 5923  32.163  15.878   5.655 -0.2429 -0.0643  0.1237
  494POPC   C4A 5924  32.202  15.953   6.066  0.0427  0.0947  0.4755
  494POPC   C1B 5925  31.466  16.403   4.946 -0.0164  0.1454 -0.1766
  494POPC   C2B 5926  31.561  16.651   5.352  0.0711  0.4897 -0.0824
  494POPC   C3B 5927  31.657  16.711   5.805  0.1331  0.0347 -0.5057
  494POPC   C4B 5928  31.657  16.765   6.278 -0.3381  0.0000  0.0491
  495POPC   NC3 5929   1.875  14.760   3.962 -0.0416 -0.1065 -0.4049
  495POPC   PO4 5930   1.549  14.534   3.936 -0.1350 -0.0207  0.0191
  495POPC   GL1 5931   1.601  14.493   4.345  0.0997  0.1248  0.0222
  495POPC   GL2 5932   1.825  14.611   4.452  0.0333  0.1093  0.1328
  495POPC   C1A 5933   1.299  14.239   4.554  0.4074 -0.0742  0.1704
  495POPC   D2A 5934   0.991  14.310   4.849  0.1347  0.0366 -0.0736
  495POPC   C3A 5935   0.665  14.081   5.100  0.1753  0.1262 -0.2778
  495POPC   C4A 5936   0.492  13.629   5.004  0.1553 -0.1088 -0.2960
  495POPC   C1B 5937   1.764  14.313   4.720 -0.2116 -0.0390  0.2896
  495POPC   C2B 5938   1.430  14.118   5.039  0.0727  0.0693  0.5746
  495POPC   C3B 5939   1.116  14.117   5.359  0.1247 -0.3244  0.1783
  495POPC   C4B 5940   0.828  14.138   5.738  0.0818  0.2299  0.0001
  496POPC   NC3 5941   8.944   7.154  10.427 -0.0051 -0.1615 -0.0002
  496POPC   PO4 5942   9.221   7.156  10.724  0.1837 -0.0186 -0.2111
  496POPC   GL1 5943   8.935   7.421  10.832  0.0134 -0.0984  0.0576
  496POPC   GL2 5944   8.649   7.318  10.780 -0.1876 -0.0723  0.0339
  496POPC   C1A 5945   8.601   7.783  10.637 -0.2716  0.1540  0.1444
  496POPC   D2A 5946   8.439   8.211  10.701  0.3837  0.0499 -0.3713
  496POPC   C3A 5947   7.936   8.281  10.592  0.1468 -0.0865  0.1767
  496POPC   C4A 5948   7.514   8.294  10.512  0.0815  0.3387  0.1462
  496POPC   C1B 5949   8.390   7.479  11.132 -0.1284  0.0948 -0.0857
  496POPC   C2B 5950   7.968   7.454  11.334 -0.4329  0.0721  0.0217
  496POPC   C3B 5951   7.558   7.389  11.459  0.0132  0.0958  0.0128
  496POPC   C4B 5952   7.498   7.526  11.889  0.2542  0.0212 -0.0853
  497POPC   NC3 5953  15.810  15.571   3.955  0.1291 -0.2367 -0.2384
  497POPC   PO4 5954  16.166  15.466   3.960 -0.1291  0.2659 -0.3220
  497POPC   GL1 5955  16.260  15.411   4.384 -0.0701  0.1563  0.3436
  497POPC   GL2 5956  16.513  15.490   4.345 -0.0573  0.0526  0.1364
  497POPC   C1A 5957  15.891  15.632   4.660 -0.1174 -0.0306 -0.1492
  497POPC   D2A 5958  15.637  15.691   5.088 -0.0643 -0.3703  0.0650
  497POPC   C3A 5959  15.847  15.766   5.491 -0.4540 -0.1241  0.2699
  497POPC   C4A 5960  16.152  15.642   5.824 -0.3741  0.0188  0.2037
  497POPC   C1B 5961  16.459  15.720   4.722  0.3127 -0.1340 -0.1168
  497POPC   C2B 5962  16.203  15.655   5.154 -0.2305 -0.0160  0.1441
  497POPC   C3B 5963  16.038  15.300   5.403 -0.1091 -0.0110  0.0450
  497POPC   C4B 5964  15.767  15.074   5.695  0.2355  0.1431  0.0179
  498POPC   NC3 5965   2.490   0.491   4.601  0.4347 -0.4655 -0.0399
  498POPC   PO4 5966   2.407   0.778   4.450 -0.2417 -0.0236  0.0919
  498POPC   GL1 5967   2.269   0.791   4.903  0.3219 -0.1080  0.1380
  498POPC   GL2 5968   2.091   1.026   4.915 -0.2671  0.3877  0.1430
  498POPC   C1A 5969   2.283   0.714   5.331 -0.0782  0.1257 -0.2057
  498POPC   D2A 5970   2.370   0.649   5.833 -0.0402  0.2167  0.1302
  498POPC   C3A 5971   2.729   0.769   6.106 -0.0776 -0.0016 -0.4365
  498POPC   C4A 5972   2.977   1.125   6.359 -0.1093  0.1594 -0.2407
  498POPC   C1B 5973   1.817   0.726   5.191  0.1521  0.0976 -0.2149
  498POPC   C2B 5974   1.871   0.411   5.549  0.0568  0.1018 -0.0860
  498POPC   C3B 5975   2.095   0.069   5.827 -0.1551 -0.3634 -0.0180
  498POPC   C4B 5976   2.278  -0.292   6.023  0.0626  0.1288  0.0437
  499POPC   NC3 5977   7.628   5.552   7.053 -0.0930  0.3005  0.3070
  499POPC   PO4 5978   7.386   5.783   7.206 -0.0801 -0.0391  0.0777
  499POPC   GL1 5979   7.297   5.407   7.357  0.2954  0.0724  0.1155
  499POPC   GL2 5980   7.391   5.493   7.609 -0.2049 -0.3584  0.1080
  499POPC   C1A 5981   7.118   4.996   7.597 -0.1968 -0.1331 -0.1644
  499POPC   D2A 5982   6.677   4.920   7.751  0.0704  0.1162 -0.0718
  499POPC   C3A 5983   6.361   4.898   8.078  0.0086  0.2944 -0.1732
  499POPC   C4A 5984   5.950   4.987   8.302 -0.3028  0.3813  0.1628
  499POPC   C1B 5985   7.010   5.441   7.878  0.3660 -0.6371 -0.0581
  499POPC   C2B 5986   6.539   5.383   7.905  0.0332 -0.0459  0.0180
  499POPC   C3B 5987   6.136   5.414   8.090  0.2494 -0.2234 -0.0933
  499POPC   C4B 5988   5.710   5.445   8.334  0.3177  0.2871 -0.1067
  500POPC   NC3 5989  12.968  12.108   4.987  0.2263 -0.0583  0.3692
  500POPC   PO4 5990  13.087  12.490   4.879 -0.1966  0.1760 -0.0624
  500POPC   GL1 5991  13.343  12.322   5.103 -0.0050 -0.0470 -0.2805
  500POPC   GL2 5992  13.619  12.509   5.122  0.1557  0.2569 -0.2577
  500POPC   C1A 5993  13.255  12.434   5.532 -0.3157  0.2441 -0.0800
  500POPC   D2A 5994  13.024  12.608   5.899 -0.1509  0.2214 -0.1068
  500POPC   C3A 5995  13.057  13.024   6.097 -0.0073  0.2273  0.1108
  500POPC   C4A 5996  13.228  13.078   6.499  0.1451  0.0933  0.0493
  500POPC   C1B 5997  13.809  12.581   5.585  0.3270  0.0791  0.2031
  500POPC   C2B 5998  13.937  12.618   6.007 -0.0090  0.2023  0.0289
  500POPC   C3B 5999  14.086  12.488   6.446 -0.2000 -0.1046 -0.3559
  500POPC   C4B 6000  13.936  12.249   6.821 -0.0895  0.0286  0.0556
  501POPC   NC3 6001  15.311   3.196   4.745  0.2263  0.0764 -0.2435
  501POPC   PO4 6002  15.461   3.473   4.930 -0.1368  0.0965 -0.1701
  501POPC   GL1 6003  15.677   3.423   5.277  0.1997 -0.0715  0.1418
  501POPC   GL2 6004  15.902   3.347   5.205  0.1586 -0.2371  0.0139
  501POPC   C1A 6005  15.823   3.343   5.714 -0.1581 -0.0080  0.1515
  501POPC   D2A 6006  15.858   3.193   6.197 -0.1526 -0.1767 -0.1552
  501POPC   C3A 6007  15.919   3.264   6.642  0.1749 -0.1731 -0.1328
  501POPC   C4A 6008  15.734   3.343   7.056 -0.2474  0.0157 -0.0801
  501POPC   C1B 6009  15.859   2.917   5.401 -0.1413 -0.5173  0.2270
  501POPC   C2B 6010  15.832   2.794   5.843 -0.0574  0.0235 -0.1059
  501POPC   C3B 6011  15.903   2.446   6.128 -0.0481  0.2499 -0.0976
  501POPC   C4B 6012  15.986   2.093   6.384 -0.0170 -0.2749 -0.4950
  502POPC   NC3 6013   4.819   1.967   5.447  0.1388 -0.2135  0.0429
  502POPC   PO4 6014   5.225   1.948   5.408  0.2398 -0.1860  0.2037
  502POPC   GL1 6015   5.370   1.715   5.665  0.0920 -0.0826 -0.0271
  502POPC   GL2 6016   5.692   1.777   5.581 -0.2040 -0.0999  0.0166
  502POPC   C1A 6017   5.461   1.777   6.122  0.1116 -0.2432  0.1183
  502POPC   D2A 6018   5.528   2.112   6.438 -0.1962  0.4069  0.0668
  502POPC   C3A 6019   5.497   2.205   6.917  0.1650 -0.0421  0.0718
  502POPC   C4A 6020   5.607   2.262   7.325 -0.0986 -0.1713 -0.0675
  502POPC   C1B 6021   5.939   1.887   5.934  0.0345 -0.3929 -0.2806
  502POPC   C2B 6022   5.942   1.832   6.362 -0.1748  0.2007  0.0205
  502POPC   C3B 6023   5.629   1.680   6.663  0.0286 -0.1437 -0.1428
  502POPC   C4B 6024   5.697   1.291   6.868  0.0626  0.1124 -0.0888
  503POPC   NC3 6025   6.014  10.367   5.382  0.0430 -0.0481 -0.1081
  503POPC   PO4 6026   5.610  10.273   5.302 -0.1540  0.2356  0.1739
  503POPC   GL1 6027   5.652  10.468   5.656 -0.2003  0.2206  0.1991
  503POPC   GL2 6028   5.555  10.325   5.901 -0.0249 -0.4307  0.2301
  503POPC   C1A 6029   5.500  10.869   5.615 -0.3906 -0.2772 -0.0482
  503POPC   D2A 6030   5.690  11.227   5.936  0.5346  0.0226  0.3394
  503POPC   C3A 6031   5.482  11.123   6.338 -0.1019 -0.0114 -0.3248
  503POPC   C4A 6032   5.510  11.217   6.833 -0.4715  0.1868 -0.2746
  503POPC   C1B 6033   5.121  10.198   6.035  0.0362 -0.0805 -0.0555
  503POPC   C2B 6034   5.029  10.088   6.485 -0.1403  0.2315 -0.1845
  503POPC   C3B 6035   4.755  10.278   6.775  0.0275  0.2916  0.1671
  503POPC   C4B 6036   4.488  10.562   7.049  0.1568  0.2296  0.4552
  504POPC   NC3 6037  12.400   5.779   6.514 -0.1722 -0.1573 -0.2006
  504POPC   PO4 6038  12.482   5.543   6.820  0.0222  0.2791  0.0779
  504POPC   GL1 6039  12.770   5.682   7.036 -0.1484  0.1200 -0.0858
  504POPC   GL2 6040  12.858   5.939   6.960  0.2745  0.2961 -0.2419
  504POPC   C1A 6041  13.100   5.576   7.379 -0.0752 -0.1208  0.1329
  504POPC   D2A 6042  13.280   5.447   7.853  0.0001 -0.0764 -0.2132
  504POPC   C3A 6043  13.209   5.070   8.110 -0.2432  0.2343 -0.1002
  504POPC   C4A 6044  13.400   4.839   8.542 -0.0999  0.0835 -0.2869
  504POPC   C1B 6045  13.300   5.796   6.977 -0.1850 -0.1957  0.2211
  504POPC   C2B 6046  13.682   5.697   7.204  0.0245 -0.0635 -0.0048
  504POPC   C3B 6047  13.768   5.533   7.649  0.0916 -0.0360  0.0953
  504POPC   C4B 6048  13.980   5.393   8.026 -0.0395  0.1218 -0.0880
  505POPC   NC3 6049   7.677  15.313   5.035 -0.3318 -0.1515 -0.0474
  505POPC   PO4 6050   7.631  14.926   4.969  0.3694 -0.2147 -0.3602
  505POPC   GL1 6051   7.440  14.970   5.346 -0.1936  0.1590  0.0027
  505POPC   GL2 6052   7.278  15.220   5.336  0.0190  0.4278  0.0688
  505POPC   C1A 6053   7.702  15.141   5.711 -0.1730 -0.0020 -0.2653
  505POPC   D2A 6054   7.698  15.462   6.020 -0.0415  0.0966 -0.6390
  505POPC   C3A 6055   7.629  15.667   6.398 -0.0421  0.2368 -0.1206
  505POPC   C4A 6056   7.653  15.747   6.840  0.0510 -0.0751 -0.0221
  505POPC   C1B 6057   7.220  15.252   5.815  0.1934 -0.0910  0.1092
  505POPC   C2B 6058   6.977  14.982   6.029  0.2838  0.1366 -0.0691
  505POPC   C3B 6059   6.799  14.592   5.891  0.2065  0.2670 -0.4143
  505POPC   C4B 6060   6.506  14.400   5.618  0.2353 -0.0603  0.1241
  506POPC   NC3 6061   0.676  11.643   3.940  0.0413 -0.0192 -0.0595
  506POPC   PO4 6062   1.012  11.504   4.110 -0.0384  0.1948  0.0727
  506POPC   GL1 6063   1.048  11.510   4.535  0.0697  0.1154 -0.3845
  506POPC   GL2 6064   0.872  11.243   4.481  0.0314  0.2279 -0.0246
  506POPC   C1A 6065   1.356  11.344   4.812  0.0568 -0.2010  0.1874
  506POPC   D2A 6066   1.410  10.860   4.768 -0.1706  0.0617  0.1212
  506POPC   C3A 6067   1.386  10.717   5.166  0.4139 -0.1644 -0.4406
  506POPC   C4A 6068   1.607  10.363   5.321  0.0803  0.2606 -0.1727
  506POPC   C1B 6069   0.718  11.354   4.905 -0.2804 -0.0955 -0.0009
  506POPC   C2B 6070   1.030  11.617   5.183 -0.1453  0.2245 -0.3061
  506POPC   C3B 6071   1.037  12.046   5.384 -0.2539 -0.0565 -0.1893
  506POPC   C4B 6072   0.714  12.297   5.305  0.0069  0.1074  0.0592
  507POPC   NC3 6073   9.986   5.262  10.207 -0.0407 -0.3625  0.0544
  507POPC   PO4 6074  10.347   5.102  10.168  0.2581 -0.2891  0.2184
  507POPC   GL1 6075  10.428   4.776  10.276  0.2446 -0.0912 -0.0781
  507POPC   GL2 6076  10.712   4.766  10.238 -0.0197 -0.3467  0.4259
  507POPC   C1A 6077  10.657   4.440  10.575  0.4295 -0.6166  0.1137
  507POPC   D2A 6078  10.724   4.058  10.766  0.1783 -0.1746  0.2569
  507POPC   C3A 6079  10.461   3.690  10.729  0.2065 -0.2251 -0.0552
  507POPC   C4A 6080  10.246   3.324  10.694  0.1813 -0.2409  0.2996
  507POPC   C1B 6081  10.830   4.438   9.924 -0.1207 -0.0266  0.1762
  507POPC   C2B 6082  11.181   4.152   9.994 -0.5814  0.1433 -0.1411
  507POPC   C3B 6083  11.570   3.882  10.102 -0.4992  0.0626  0.1975
  507POPC   C4B 6084  11.913   3.608   9.901  0.4962 -0.1169  0.0427
  508POPC   NC3 6085  14.161   9.457   5.381 -0.1520 -0.0695 -0.4384
  508POPC   PO4 6086  13.976   9.773   5.567  0.1570 -0.1367 -0.1199
  508POPC   GL1 6087  14.035   9.829   5.954  0.2109 -0.1190  0.0715
  508POPC   GL2 6088  14.285   9.928   6.080 -0.0931 -0.1292 -0.2315
  508POPC   C1A 6089  13.833   9.711   6.297 -0.0059  0.3674 -0.3303
  508POPC   D2A 6090  13.563   9.816   6.656  0.0694 -0.1813  0.1453
  508POPC   C3A 6091  13.598  10.025   7.063  0.0893  0.0157  0.0363
  508POPC   C4A 6092  13.612  10.349   7.368 -0.0113  0.0082 -0.2298
  508POPC   C1B 6093  14.124  10.125   6.460 -0.2854  0.1346  0.1173
  508POPC   C2B 6094  14.046  10.272   6.880  0.0861 -0.0142  0.0729
  508POPC   C3B 6095  14.079  10.553   7.300  0.1132  0.1721 -0.0556
  508POPC   C4B 6096  14.231  10.565   7.755  0.0149 -0.0879 -0.1124
  509POPC   NC3 6097   0.605  15.810   3.980  0.3360  0.0441 -0.0633
  509POPC   PO4 6098   0.733  15.461   3.899  0.0222 -0.1084  0.0680
  509POPC   GL1 6099   0.720  15.450   4.349 -0.0190 -0.2425  0.1996
  509POPC   GL2 6100   0.595  15.685   4.461 -0.2879  0.2436  0.2015
  509POPC   C1A 6101   0.680  15.125   4.653  0.0249 -0.0570  0.0017
  509POPC   D2A 6102   1.001  14.897   4.870 -0.3640  0.1684 -0.0746
  509POPC   C3A 6103   0.980  14.956   5.363 -0.1840 -0.0819  0.0172
  509POPC   C4A 6104   0.580  14.869   5.607 -0.0501  0.1123  0.0712
  509POPC   C1B 6105   0.384  15.531   4.856 -0.0866  0.0040  0.1063
  509POPC   C2B 6106   0.258  15.628   5.301 -0.1438 -0.0141  0.2519
  509POPC   C3B 6107   0.411  15.397   5.660  0.1189 -0.1521  0.0879
  509POPC   C4B 6108   0.585  15.481   6.097  0.0582  0.1090  0.2202
  510POPC   NC3 6109  11.063  10.792   6.182  0.1907 -0.1592 -0.2027
  510POPC   PO4 6110  11.351  10.561   6.052  0.1538  0.3326  0.1705
  510POPC   GL1 6111  11.473  10.813   6.386  0.0908 -0.1418  0.2771
  510POPC   GL2 6112  11.415  10.626   6.584 -0.0548 -0.1820 -0.0867
  510POPC   C1A 6113  11.783  11.123   6.351 -0.1615 -0.4859 -0.1015
  510POPC   D2A 6114  12.063  11.306   6.689 -0.1172  0.0488 -0.0712
  510POPC   C3A 6115  12.326  11.493   7.023  0.0956  0.0572 -0.0420
  510POPC   C4A 6116  12.609  11.495   7.349 -0.0762  0.2669 -0.2683
  510POPC   C1B 6117  11.755  10.714   6.878 -0.0531  0.1030 -0.2902
  510POPC   C2B 6118  11.978  10.993   7.113  0.2171 -0.0369 -0.0134
  510POPC   C3B 6119  11.954  11.294   7.493 -0.3342 -0.2261  0.2411
  510POPC   C4B 6120  11.572  11.520   7.567  0.0088 -0.2302  0.1033
  511POPC   NC3 6121   4.479   3.234   5.434 -0.0147  0.0042  0.1019
  511POPC   PO4 6122   4.562   2.893   5.300 -0.1114  0.1244 -0.0491
  511POPC   GL1 6123   4.374   2.837   5.658 -0.3066 -0.0241  0.0962
  511POPC   GL2 6124   4.214   2.998   5.817 -0.0820  0.0004  0.1837
  511POPC   C1A 6125   4.043   2.500   5.791 -0.2815 -0.2867  0.0829
  511POPC   D2A 6126   3.870   2.346   6.202 -0.0718  0.3461  0.2262
  511POPC   C3A 6127   3.704   2.689   6.513 -0.4122  0.0791  0.1747
  511POPC   C4A 6128   3.741   3.117   6.715  0.0551  0.4154  0.1808
  511POPC   C1B 6129   4.089   2.900   6.251  0.0961 -0.0215  0.0355
  511POPC   C2B 6130   4.218   2.951   6.623  0.2287 -0.0133 -0.1960
  511POPC   C3B 6131   4.459   3.012   6.956 -0.0015  0.0825 -0.1485
  511POPC   C4B 6132   4.579   3.381   7.193  0.1713  0.3504  0.1982
  512POPC   NC3 6133   0.106  12.253   4.023 -0.0856  0.0024  0.1123
  512POPC   PO4 6134   0.147  11.901   3.821 -0.1753  0.0797  0.0794
  512POPC   GL1 6135   0.241  11.628   4.219  0.0102 -0.1893 -0.4137
  512POPC   GL2 6136   0.048  11.871   4.353  0.0696  0.4092 -0.2154
  512POPC   C1A 6137   0.420  11.614   4.628  0.2473  0.0167 -0.0443
  512POPC   D2A 6138   0.655  11.936   4.845  0.0730  0.0108  0.1909
  512POPC   C3A 6139   1.069  12.080   4.841 -0.1155  0.1178 -0.1402
  512POPC   C4A 6140   1.388  12.272   5.074  0.2525 -0.1351 -0.0522
  512POPC   C1B 6141   0.059  11.858   4.792 -0.0540  0.3784 -0.0321
  512POPC   C2B 6142   0.364  11.644   5.107  0.0392 -0.0684 -0.2335
  512POPC   C3B 6143   0.622  11.792   5.436  0.0788 -0.0599  0.0691
  512POPC   C4B 6144   0.931  11.648   5.730 -0.1354 -0.1432  0.0600
  513POPC   NC3 6145  10.888   4.487   8.218  0.0813  0.2802  0.1583
  513POPC   PO4 6146  10.801   4.431   8.605 -0.5094 -0.0786  0.3610
  513POPC   GL1 6147  10.501   4.235   8.931  0.1359  0.0375  0.1501
  513POPC   GL2 6148  10.649   4.065   9.143 -0.1956 -0.5719 -0.3521
  513POPC   C1A 6149  10.249   3.861   8.986  0.0442 -0.0505  0.6734
  513POPC   D2A 6150   9.832   3.604   8.892 -0.1892  0.3788  0.1494
  513POPC   C3A 6151   9.644   3.258   8.737 -0.2741 -0.2725 -0.4242
  513POPC   C4A 6152   9.420   2.912   8.849  0.3078  0.1727 -0.1334
  513POPC   C1B 6153  10.552   3.597   9.221  0.1896 -0.3147  0.3725
  513POPC   C2B 6154  10.318   3.369   9.556 -0.0593 -0.0315  0.0484
  513POPC   C3B 6155  10.569   3.113   9.805  0.0013  0.1155  0.1838
  513POPC   C4B 6156  10.973   3.146   9.945  0.0851 -0.1368 -0.0549
  514POPC   NC3 6157   7.979   7.552   8.030  0.2593  0.0109 -0.1203
  514POPC   PO4 6158   8.069   7.803   7.762 -0.0624 -0.2121 -0.0971
  514POPC   GL1 6159   7.748   7.905   7.928  0.1422  0.0336  0.2718
  514POPC   GL2 6160   7.831   8.099   8.223  0.2334  0.0993 -0.1640
  514POPC   C1A 6161   7.308   8.056   7.796 -0.2545 -0.1441 -0.1561
  514POPC   D2A 6162   7.160   8.485   7.765 -0.0548 -0.2252  0.1485
  514POPC   C3A 6163   6.712   8.451   7.716  0.0874 -0.0482  0.0727
  514POPC   C4A 6164   6.349   8.601   7.937  0.4459  0.3819 -0.3531
  514POPC   C1B 6165   7.823   8.395   8.619  0.0105 -0.0565  0.1005
  514POPC   C2B 6166   7.720   8.647   9.031 -0.1389 -0.1699  0.3122
  514POPC   C3B 6167   7.682   8.972   9.357 -0.3162 -0.0116 -0.1832
  514POPC   C4B 6168   7.443   9.129   9.723 -0.1677  0.2667  0.1188
  515POPC   NC3 6169  15.542   5.322   5.673  0.1365  0.2024  0.3778
  515POPC   PO4 6170  15.156   5.158   5.627 -0.1959  0.0946 -0.2055
  515POPC   GL1 6171  15.178   5.340   5.971  0.2063  0.3913  0.1793
  515POPC   GL2 6172  15.133   5.044   6.146  0.1864  0.1412 -0.1765
  515POPC   C1A 6173  15.552   5.344   6.243  0.1831 -0.0881  0.1443
  515POPC   D2A 6174  15.851   5.638   6.396 -0.0384  0.0006 -0.0787
  515POPC   C3A 6175  15.945   5.658   6.819  0.0728  0.0888  0.0468
  515POPC   C4A 6176  16.007   5.483   7.266 -0.0319 -0.0580  0.0125
  515POPC   C1B 6177  15.127   4.635   6.449  0.0019  0.0814 -0.0055
  515POPC   C2B 6178  15.381   4.424   6.745 -0.0472  0.1533  0.3891
  515POPC   C3B 6179  15.373   4.408   7.247  0.1979 -0.0471 -0.2050
  515POPC   C4B 6180  15.288   4.073   7.570 -0.0670  0.2532  0.3456
  516POPC   NC3 6181  10.453  13.977   5.020 -0.1523  0.1872  0.0217
  516POPC   PO4 6182  10.843  13.978   4.887  0.0591 -0.0965 -0.1127
  516POPC   GL1 6183  10.970  14.129   5.190  0.1024  0.3285  0.2975
  516POPC   GL2 6184  10.911  14.401   5.265 -0.0820  0.1773  0.1086
  516POPC   C1A 6185  11.393  13.986   5.357  0.2808  0.1275 -0.1594
  516POPC   D2A 6186  11.815  14.163   5.596 -0.0725 -0.2331 -0.0209
  516POPC   C3A 6187  11.979  14.309   6.049 -0.1316  0.0011 -0.0497
  516POPC   C4A 6188  11.947  14.325   6.479  0.2061  0.0903  0.2319
  516POPC   C1B 6189  11.170  14.317   5.630 -0.1173 -0.1886 -0.0607
  516POPC   C2B 6190  11.326  14.010   5.878 -0.3970 -0.1145  0.1843
  516POPC   C3B 6191  11.474  13.886   6.325  0.4506 -0.1391  0.2016
  516POPC   C4B 6192  11.543  13.715   6.774 -0.0562 -0.2583  0.1816
  517POPC   NC3 6193   8.735   5.863  12.065  0.3957 -0.1086  0.4204
  517POPC   PO4 6194   8.861   5.605  12.283  0.1099  0.1130 -0.0052
  517POPC   GL1 6195   8.631   5.331  12.113 -0.2743 -0.0656 -0.2998
  517POPC   GL2 6196   8.512   5.424  11.908  0.0334  0.0222 -0.1360
  517POPC   C1A 6197   8.360   4.963  12.239 -0.1224  0.0195 -0.1267
  517POPC   D2A 6198   7.950   4.739  12.280 -0.0067  0.0044 -0.1908
  517POPC   C3A 6199   7.678   4.440  12.069  0.1253  0.0414  0.1209
  517POPC   C4A 6200   7.477   4.317  11.665  0.0577 -0.1647 -0.0340
  517POPC   C1B 6201   8.105   5.192  11.801 -0.1458 -0.0412  0.0139
  517POPC   C2B 6202   7.915   4.738  11.714  0.2590 -0.0398  0.3078
  517POPC   C3B 6203   8.284   4.469  11.462 -0.1491 -0.1604  0.1713
  517POPC   C4B 6204   8.726   4.397  11.350  0.1116  0.1590  0.2571
  518POPC   NC3 6205   1.246  15.329   4.132 -0.1948 -0.0474 -0.0247
  518POPC   PO4 6206   1.439  14.998   4.079 -0.1327  0.1050  0.2928
  518POPC   GL1 6207   1.488  15.038   4.434 -0.2105 -0.2703 -0.1099
  518POPC   GL2 6208   1.614  15.322   4.461  0.3786 -0.0350 -0.1606
  518POPC   C1A 6209   1.466  14.849   4.868 -0.1663 -0.2174 -0.2418
  518POPC   D2A 6210   1.257  14.568   5.185  0.0512  0.1430  0.0879
  518POPC   C3A 6211   1.084  14.585   5.623 -0.2032  0.1226 -0.0095
  518POPC   C4A 6212   0.905  14.585   6.036  0.0209 -0.0228  0.1985
  518POPC   C1B 6213   1.711  15.337   4.920 -0.1584 -0.1788 -0.0193
  518POPC   C2B 6214   1.927  15.140   5.265 -0.2670 -0.2318 -0.3753
  518POPC   C3B 6215   2.030  14.770   5.519  0.1536 -0.3756  0.1069
  518POPC   C4B 6216   2.297  14.673   5.905 -0.1644  0.0606  0.0163
  519POPC   NC3 6217  13.040   3.448   5.884  0.0039  0.0348  0.0401
  519POPC   PO4 6218  13.215   3.310   5.544  0.1753  0.0953 -0.0691
  519POPC   GL1 6219  13.468   3.212   5.866 -0.0088 -0.0293 -0.0908
  519POPC   GL2 6220  13.419   2.984   5.961  0.0996  0.1687  0.3017
  519POPC   C1A 6221  13.368   3.307   6.329  0.1484 -0.0074 -0.1750
  519POPC   D2A 6222  13.166   3.266   6.761 -0.5783  0.1376  0.0399
  519POPC   C3A 6223  13.237   3.150   7.201  0.1472 -0.0419 -0.1504
  519POPC   C4A 6224  13.165   2.940   7.639  0.1231 -0.2968  0.1527
  519POPC   C1B 6225  13.638   2.791   6.327  0.0729  0.1140 -0.2055
  519POPC   C2B 6226  13.613   2.973   6.744  0.0004 -0.0177 -0.1190
  519POPC   C3B 6227  13.789   3.176   7.155  0.0200 -0.2850  0.1680
  519POPC   C4B 6228  14.210   3.247   7.336 -0.4439  0.0515 -0.1478
  520POPC   NC3 6229   6.870   9.427   6.050  0.0679  0.1385  0.1016
  520POPC   PO4 6230   6.974   9.792   5.946 -0.2620  0.1281  0.3343
  520POPC   GL1 6231   7.331  10.022   6.108 -0.1677  0.2815 -0.3822
  520POPC   GL2 6232   7.293   9.988   6.389  0.0480  0.0063 -0.0528
  520POPC   C1A 6233   7.460  10.442   6.397  0.1811  0.0778 -0.0316
  520POPC   D2A 6234   7.708  10.616   6.753 -0.3103  0.3635  0.2268
  520POPC   C3A 6235   7.812  10.926   7.059 -0.1109 -0.0649 -0.3534
  520POPC   C4A 6236   7.894  11.330   7.244  0.1545  0.0523  0.3191
  520POPC   C1B 6237   7.134  10.153   6.792 -0.1703 -0.1479  0.1727
  520POPC   C2B 6238   7.360  10.505   7.056  0.0280 -0.3131  0.2008
  520POPC   C3B 6239   7.671  10.596   7.334 -0.0168  0.3076 -0.2751
  520POPC   C4B 6240   7.811  10.585   7.817  0.0959  0.0269  0.2113
  521POPC   NC3 6241  10.254   4.545   8.755  0.0124 -0.2954  0.0777
  521POPC   PO4 6242  10.374   4.658   9.079  0.0777 -0.3748 -0.0235
  521POPC   GL1 6243  10.282   4.512   9.356 -0.0156 -0.2253 -0.0870
  521POPC   GL2 6244  10.201   4.255   9.301  0.2168 -0.4267 -0.0592
  521POPC   C1A 6245  10.347   4.495   9.833 -0.0491 -0.2048 -0.2142
  521POPC   D2A 6246  10.500   4.214  10.167 -0.0232 -0.0406 -0.5705
  521POPC   C3A 6247  10.822   3.911  10.284  0.3641 -0.2055  0.0825
  521POPC   C4A 6248  11.044   3.500  10.263  0.0244 -0.1478 -0.1860
  521POPC   C1B 6249  10.372   3.965   9.599  0.0476  0.2669  0.0775
  521POPC   C2B 6250  10.334   3.726   9.990  0.0992 -0.1354  0.3764
  521POPC   C3B 6251  10.554   3.455  10.226 -0.0717  0.1148  0.3201
  521POPC   C4B 6252  10.644   3.005  10.366  0.1814 -0.1300  0.1681
  522POPC   NC3 6253   8.967   3.663   8.076  0.2318 -0.0382  0.2436
  522POPC   PO4 6254   9.015   3.652   7.663  0.0262  0.1250  0.0230
  522POPC   GL1 6255   8.750   3.290   7.786  0.2773 -0.1550 -0.1505
  522POPC   GL2 6256   8.769   3.176   8.156  0.1388  0.2046 -0.3012
  522POPC   C1A 6257   8.337   3.047   7.806  0.1204  0.3805  0.1016
  522POPC   D2A 6258   8.120   2.653   7.997 -0.3074 -0.0891  0.2465
  522POPC   C3A 6259   7.857   2.682   8.346 -0.2293 -0.1952 -0.0681
  522POPC   C4A 6260   7.732   2.642   8.798  0.0456 -0.1201  0.1748
  522POPC   C1B 6261   8.659   2.741   8.208  0.1996 -0.0834  0.1529
  522POPC   C2B 6262   8.324   2.565   8.416  0.2916 -0.1960  0.0270
  522POPC   C3B 6263   8.128   2.200   8.430  0.2319 -0.0069 -0.0476
  522POPC   C4B 6264   7.891   1.857   8.382 -0.0105  0.0017 -0.1742
  523POPC   NC3 6265  10.660  16.606   4.709 -0.0262  0.2606  0.1994
  523POPC   PO4 6266  10.566  16.319   4.983  0.1669  0.0716 -0.0813
  523POPC   GL1 6267  10.827  16.004   5.046  0.5021  0.2208  0.0809
  523POPC   GL2 6268  11.022  16.147   5.187  0.0278  0.0191  0.1836
  523POPC   C1A 6269  10.845  15.691   5.384 -0.1101  0.2518  0.2707
  523POPC   D2A 6270  10.718  15.531   5.819  0.1539 -0.2409  0.2932
  523POPC   C3A 6271  10.915  15.656   6.220 -0.0671 -0.0684 -0.0737
  523POPC   C4A 6272  10.924  15.752   6.693 -0.1915  0.2806  0.1280
  523POPC   C1B 6273  11.296  15.864   5.417 -0.0710  0.0340  0.1176
  523POPC   C2B 6274  11.657  15.649   5.556  0.0195 -0.0561 -0.1564
  523POPC   C3B 6275  11.869  15.738   5.930 -0.2278 -0.1818 -0.2064
  523POPC   C4B 6276  12.192  15.682   6.214  0.0537 -0.0017 -0.0993
  524POPC   NC3 6277   8.621   1.978   6.078  0.2521  0.1621 -0.0004
  524POPC   PO4 6278   9.011   1.860   6.030 -0.1362 -0.2512 -0.1040
  524POPC   GL1 6279   8.972   1.873   6.403  0.1036 -0.0739 -0.0705
  524POPC   GL2 6280   9.042   1.566   6.467 -0.3095  0.0222  0.2061
  524POPC   C1A 6281   8.999   1.795   6.883 -0.0095 -0.0700  0.3044
  524POPC   D2A 6282   8.960   1.787   7.329  0.1375 -0.0777 -0.0920
  524POPC   C3A 6283   9.169   1.535   7.555 -0.0068  0.1705 -0.0288
  524POPC   C4A 6284   9.048   1.348   7.970  0.1400  0.1003 -0.1095
  524POPC   C1B 6285   9.258   1.245   6.619 -0.0391  0.1075  0.0999
  524POPC   C2B 6286   9.347   0.853   6.902  0.0869  0.0714  0.0293
  524POPC   C3B 6287   9.131   0.610   7.220  0.0349  0.1742  0.1693
  524POPC   C4B 6288   8.846   0.285   7.237  0.0706 -0.1274 -0.3276
  525POPC   NC3 6289   2.914  16.455   4.440 -0.0908  0.0102 -0.0535
  525POPC   PO4 6290   3.268  16.363   4.317  0.4563  0.2855 -0.1406
  525POPC   GL1 6291   3.318  16.126   4.596  0.3535 -0.2816 -0.0587
  525POPC   GL2 6292   3.043  16.107   4.730 -0.1883 -0.0244 -0.0031
  525POPC   C1A 6293   3.587  15.979   4.949  0.1418  0.2044 -0.2196
  525POPC   D2A 6294   3.906  16.075   5.276 -0.0160  0.2204  0.4389
  525POPC   C3A 6295   4.165  16.430   5.434  0.0552 -0.4727  0.3600
  525POPC   C4A 6296   4.625  16.381   5.489  0.0929 -0.0533  0.1303
  525POPC   C1B 6297   3.146  15.866   5.123 -0.1969  0.2167 -0.1413
  525POPC   C2B 6298   3.148  15.551   5.526  0.0315 -0.1131  0.1244
  525POPC   C3B 6299   3.129  15.205   5.775  0.0200 -0.1163 -0.0038
  525POPC   C4B 6300   2.776  15.008   5.926  0.2091  0.1291 -0.4407
  526POPC   NC3 6301  15.703  14.089   4.071 -0.0945  0.0629 -0.1419
  526POPC   PO4 6302  15.433  14.331   4.190 -0.0031 -0.2304  0.0020
  526POPC   GL1 6303  15.323  14.028   4.297 -0.1226  0.1945 -0.1124
  526POPC   GL2 6304  15.044  14.086   4.385  0.0244  0.3026  0.0908
  526POPC   C1A 6305  15.403  13.843   4.722  0.0318 -0.1933  0.1741
  526POPC   D2A 6306  15.457  13.797   5.159  0.1012 -0.0851  0.1672
  526POPC   C3A 6307  15.362  13.516   5.466  0.0168  0.0313  0.4089
  526POPC   C4A 6308  15.377  13.040   5.441  0.1052  0.1109 -0.2457
  526POPC   C1B 6309  14.933  13.963   4.821  0.0799  0.2099  0.0795
  526POPC   C2B 6310  14.963  13.803   5.249  0.0131 -0.1487  0.0234
  526POPC   C3B 6311  14.700  13.913   5.649 -0.1814 -0.1207  0.1537
  526POPC   C4B 6312  14.667  13.754   6.103  0.0434 -0.2884  0.2301
  527POPC   NC3 6313   2.394   1.234   4.542 -0.1452 -0.0363  0.1490
  527POPC   PO4 6314   2.167   1.500   4.715 -0.2554  0.1577  0.1333
  527POPC   GL1 6315   1.941   1.442   5.016 -0.1187  0.1213 -0.2889
  527POPC   GL2 6316   1.788   1.581   5.223  0.2498  0.2080 -0.0711
  527POPC   C1A 6317   2.112   1.162   5.393  0.0099 -0.1145  0.0870
  527POPC   D2A 6318   2.019   1.129   5.780 -0.0981 -0.1618 -0.2962
  527POPC   C3A 6319   2.046   1.096   6.208  0.1560 -0.0627  0.0098
  527POPC   C4A 6320   2.292   0.702   6.320 -0.2274  0.0758 -0.1522
  527POPC   C1B 6321   1.774   1.577   5.678  0.2162 -0.1391  0.0755
  527POPC   C2B 6322   1.496   1.353   5.928  0.1263 -0.1812  0.1222
  527POPC   C3B 6323   1.533   1.024   6.266  0.0656 -0.1599  0.1834
  527POPC   C4B 6324   1.255   0.889   6.627  0.0521  0.0230 -0.1266
  528POPC   NC3 6325   9.436   5.026   9.400 -0.1750  0.1038 -0.2988
  528POPC   PO4 6326   9.373   4.700   9.146  0.2083 -0.2908 -0.0328
  528POPC   GL1 6327   9.404   4.309   8.993  0.0355  0.4006 -0.0817
  528POPC   GL2 6328   9.213   4.216   9.259 -0.0437  0.3179  0.0257
  528POPC   C1A 6329   9.736   4.018   9.133 -0.4585 -0.0524  0.1148
  528POPC   D2A 6330   9.933   3.712   9.375 -0.0962 -0.1418  0.0690
  528POPC   C3A 6331   9.789   3.273   9.308 -0.1028  0.1107  0.2978
  528POPC   C4A 6332   9.989   2.870   9.084 -0.0529  0.1685  0.2681
  528POPC   C1B 6333   8.975   3.907   9.449  0.1963 -0.1286 -0.1844
  528POPC   C2B 6334   8.914   3.465   9.585  0.1759 -0.0981  0.0033
  528POPC   C3B 6335   8.694   3.022   9.595 -0.1595  0.1886 -0.1428
  528POPC   C4B 6336   8.483   2.642   9.442  0.1027  0.2724 -0.1762
  529POPC   NC3 6337  12.340   6.464   7.093 -0.0217 -0.0975 -0.0850
  529POPC   PO4 6338  12.632   6.748   7.237  0.0039  0.0039  0.1999
  529POPC   GL1 6339  12.884   6.920   7.497 -0.3491 -0.1973  0.2552
  529POPC   GL2 6340  13.147   6.859   7.345  0.1294 -0.2863 -0.1574
  529POPC   C1A 6341  13.246   6.945   7.815  0.0291  0.1187 -0.2241
  529POPC   D2A 6342  13.433   6.897   8.335 -0.3291  0.0195 -0.0156
  529POPC   C3A 6343  13.807   6.650   8.434  0.1760  0.1037 -0.0560
  529POPC   C4A 6344  13.949   6.380   8.739 -0.2793 -0.2807 -0.1117
  529POPC   C1B 6345  13.572   6.892   7.471  0.0909  0.1843  0.3250
  529POPC   C2B 6346  13.991   6.846   7.689  0.1071 -0.0297  0.1563
  529POPC   C3B 6347  14.199   6.669   8.055 -0.2780  0.0032  0.4659
  529POPC   C4B 6348  14.312   6.671   8.475  0.4188  0.1182 -0.0564
  530POPC   NC3 6349  11.595   8.951   6.886 -0.0140 -0.1877 -0.0971
  530POPC   PO4 6350  11.948   8.774   7.010 -0.2646  0.3100  0.4743
  530POPC   GL1 6351  12.264   8.659   7.208 -0.4034 -0.0402 -0.0713
  530POPC   GL2 6352  12.102   8.550   7.479 -0.1231  0.4133  0.0881
  530POPC   C1A 6353  12.560   8.752   7.555  0.1069 -0.0406 -0.1165
  530POPC   D2A 6354  12.861   8.924   7.824 -0.0714  0.0319  0.1967
  530POPC   C3A 6355  13.125   8.735   8.141  0.1558 -0.0979  0.0974
  530POPC   C4A 6356  13.207   8.745   8.623 -0.0585 -0.0639 -0.1203
  530POPC   C1B 6357  12.185   8.570   7.927 -0.1245 -0.0284  0.1502
  530POPC   C2B 6358  12.514   8.762   8.183 -0.1945  0.1974  0.0649
  530POPC   C3B 6359  12.830   9.049   8.387 -0.0549  0.2625  0.1396
  530POPC   C4B 6360  13.117   9.281   8.220 -0.0862  0.1276 -0.2490
  531POPC   NC3 6361   0.309   1.718   4.714  0.2422 -0.1267  0.2034
  531POPC   PO4 6362   0.220   1.610   4.356 -0.1083 -0.2872 -0.1424
  531POPC   GL1 6363   0.138   1.263   4.557 -0.0617 -0.0950  0.2799
  531POPC   GL2 6364  -0.105   1.341   4.702  0.0560 -0.0508 -0.0433
  531POPC   C1A 6365   0.067   0.954   4.917 -0.2554  0.4215 -0.0115
  531POPC   D2A 6366   0.080   0.840   5.368 -0.1266  0.1511  0.1258
  531POPC   C3A 6367  -0.251   1.006   5.602  0.0873 -0.0992 -0.1004
  531POPC   C4A 6368  -0.476   1.219   5.889  0.1889 -0.2347  0.1280
  531POPC   C1B 6369  -0.026   1.427   5.192  0.1058  0.3396 -0.1313
  531POPC   C2B 6370   0.027   1.366   5.619  0.1942 -0.3287 -0.3116
  531POPC   C3B 6371  -0.022   1.310   6.094 -0.0656 -0.2496  0.1296
  531POPC   C4B 6372   0.016   1.527   6.542 -0.0792  0.1874  0.6254
  532POPC   NC3 6373  14.031   6.119   5.537 -0.0210 -0.3532  0.1727
  532POPC   PO4 6374  14.134   5.871   5.882  0.0532  0.2524  0.0515
  532POPC   GL1 6375  14.359   5.621   6.046 -0.1247  0.0082 -0.0457
  532POPC   GL2 6376  14.591   5.622   5.811  0.4596 -0.2209 -0.2838
  532POPC   C1A 6377  14.416   5.392   6.435  0.4763  0.0045 -0.0263
  532POPC   D2A 6378  14.341   4.960   6.633 -0.0535  0.2795 -0.3693
  532POPC   C3A 6379  14.603   4.992   7.007 -0.2283  0.0223  0.1123
  532POPC   C4A 6380  14.978   4.903   7.298 -0.3050  0.0050 -0.3052
  532POPC   C1B 6381  14.821   5.476   6.164  0.0322  0.4654  0.1581
  532POPC   C2B 6382  14.816   5.132   6.506  0.4469  0.0766  0.2297
  532POPC   C3B 6383  15.145   4.994   6.846 -0.1133 -0.0136  0.0362
  532POPC   C4B 6384  15.521   4.915   7.123  0.1199  0.2071  0.1554
  533POPC   NC3 6385   7.063   7.508   6.621  0.0143 -0.0685 -0.3013
  533POPC   PO4 6386   6.987   7.146   6.770 -0.0877 -0.0264  0.1612
  533POPC   GL1 6387   6.917   7.325   7.132 -0.0837 -0.3107 -0.2737
  533POPC   GL2 6388   6.764   7.495   7.057  0.1119 -0.1599 -0.2849
  533POPC   C1A 6389   6.831   7.424   7.633  0.3357  0.0080  0.1033
  533POPC   D2A 6390   6.833   7.602   8.068  0.1988 -0.0272  0.0156
  533POPC   C3A 6391   6.939   7.265   8.363 -0.1562 -0.1072  0.1381
  533POPC   C4A 6392   6.739   6.897   8.576 -0.1217 -0.2532 -0.1669
  533POPC   C1B 6393   6.563   7.838   7.182 -0.2645 -0.0924  0.0691
  533POPC   C2B 6394   6.253   8.031   7.467 -0.1596 -0.1783  0.0430
  533POPC   C3B 6395   5.960   8.221   7.847 -0.0756 -0.0400 -0.0878
  533POPC   C4B 6396   5.985   8.447   8.237  0.1891 -0.0335  0.0107
  534POPC   NC3 6397  13.320  17.529   4.147 -0.0424  0.0806 -0.0996
  534POPC   PO4 6398  13.267  17.691   4.478  0.1352 -0.1374 -0.0638
  534POPC   GL1 6399  13.351  17.556   4.804  0.3181  0.1273 -0.1863
  534POPC   GL2 6400  13.235  17.564   5.074 -0.3692  0.0147 -0.3970
  534POPC   C1A 6401  13.517  17.114   4.924  0.1296 -0.0046  0.0377
  534POPC   D2A 6402  13.383  16.694   4.984  0.3339  0.1774 -0.2219
  534POPC   C3A 6403  13.430  16.526   5.436  0.0070 -0.0630 -0.2168
  534POPC   C4A 6404  13.405  16.214   5.759  0.2186  0.1680  0.0391
  534POPC   C1B 6405  13.371  17.212   5.366  0.3295 -0.1680 -0.1588
  534POPC   C2B 6406  13.417  16.920   5.701  0.2176  0.1007 -0.0038
  534POPC   C3B 6407  13.606  16.585   6.010  0.3304 -0.1388  0.0359
  534POPC   C4B 6408  13.709  16.276   6.363 -0.0767 -0.0224  0.1831
  535POPC   NC3 6409   5.805   8.290   6.072 -0.2351 -0.1034  0.1171
  535POPC   PO4 6410   6.185   8.387   6.033 -0.1059  0.2302  0.0885
  535POPC   GL1 6411   6.131   8.225   6.485 -0.4662  0.0866 -0.1998
  535POPC   GL2 6412   6.449   8.257   6.679  0.4685 -0.0778  0.4625
  535POPC   C1A 6413   5.767   8.343   6.645  0.0828  0.0825  0.4440
  535POPC   D2A 6414   5.314   8.257   6.495 -0.0390 -0.0771 -0.1186
  535POPC   C3A 6415   4.948   8.264   6.784  0.0011  0.1000 -0.0457
  535POPC   C4A 6416   4.802   8.061   7.175 -0.1375 -0.0737 -0.0274
  535POPC   C1B 6417   6.130   8.451   7.007  0.0226  0.2088  0.0575
  535POPC   C2B 6418   5.713   8.639   7.068 -0.0599  0.2000  0.2625
  535POPC   C3B 6419   5.490   8.837   7.377 -0.0993 -0.0281 -0.0620
  535POPC   C4B 6420   5.358   8.892   7.804  0.0780  0.0950  0.3609
  536POPC   NC3 6421   0.206   2.524   4.911  0.1938 -0.1021 -0.2235
  536POPC   PO4 6422  -0.024   2.281   4.711  0.2147 -0.2571 -0.1533
  536POPC   GL1 6423  -0.082   2.216   5.207 -0.1304 -0.5979 -0.1872
  536POPC   GL2 6424   0.069   1.988   5.130 -0.4417 -0.1303  0.2098
  536POPC   C1A 6425   0.013   2.410   5.640 -0.0424  0.1253 -0.0402
  536POPC   D2A 6426   0.145   2.370   6.087  0.1048  0.1099 -0.2106
  536POPC   C3A 6427   0.539   2.177   6.263 -0.0289 -0.0319  0.1361
  536POPC   C4A 6428   0.911   2.223   6.450  0.2084  0.3254 -0.1535
  536POPC   C1B 6429   0.058   1.887   5.561 -0.0337  0.0858  0.4378
  536POPC   C2B 6430  -0.348   1.751   5.864  0.0044  0.2256 -0.0492
  536POPC   C3B 6431  -0.389   1.768   6.317 -0.1638 -0.2757 -0.1331
  536POPC   C4B 6432  -0.343   1.869   6.779 -0.0437 -0.0290 -0.5316
  537POPC   NC3 6433  10.154   3.957   8.248 -0.2882 -0.3945 -0.1659
  537POPC   PO4 6434   9.967   3.807   7.903 -0.1956  0.2070  0.1041
  537POPC   GL1 6435  10.015   3.518   8.162 -0.0908  0.1135  0.1091
  537POPC   GL2 6436   9.797   3.532   8.329 -0.0876 -0.1925  0.1420
  537POPC   C1A 6437  10.198   3.024   8.159  0.0209 -0.2129 -0.5864
  537POPC   D2A 6438  10.245   2.921   8.611  0.2303 -0.0640 -0.0764
  537POPC   C3A 6439  10.557   2.726   8.846 -0.0594  0.1521 -0.2289
  537POPC   C4A 6440  10.829   2.415   9.001 -0.0068  0.4307 -0.3002
  537POPC   C1B 6441  10.151   3.412   8.604 -0.0991  0.1110  0.0874
  537POPC   C2B 6442  10.262   3.259   9.047 -0.2211 -0.0253  0.1960
  537POPC   C3B 6443  10.440   2.920   9.368 -0.0953 -0.0073 -0.0021
  537POPC   C4B 6444  10.511   2.655   9.689 -0.1221 -0.3231 -0.0050
  538POPC   NC3 6445  12.229   5.129   7.531  0.1868  0.0739  0.0878
  538POPC   PO4 6446  11.951   4.853   7.447  0.1017  0.1659  0.3170
  538POPC   GL1 6447  12.212   4.691   7.722  0.3892 -0.0554  0.0619
  538POPC   GL2 6448  12.131   4.741   7.964  0.0405 -0.0166  0.2295
  538POPC   C1A 6449  12.452   4.355   7.601 -0.3709 -0.1771  0.5056
  538POPC   D2A 6450  12.604   3.933   7.505  0.2915  0.1228 -0.2371
  538POPC   C3A 6451  13.073   3.781   7.448  0.0629 -0.0017 -0.0096
  538POPC   C4A 6452  13.493   4.015   7.435 -0.2116  0.1261  0.0224
  538POPC   C1B 6453  12.540   4.642   8.131 -0.0019  0.1968 -0.1494
  538POPC   C2B 6454  12.720   4.385   8.493 -0.0352 -0.0400  0.1760
  538POPC   C3B 6455  13.099   4.373   8.723  0.0726  0.0532  0.2623
  538POPC   C4B 6456  13.126   3.953   8.908 -0.0856 -0.1800  0.3207
  539POPC   NC3 6457  12.385  15.847   4.637 -0.0456  0.0520  0.4851
  539POPC   PO4 6458  12.778  15.922   4.655  0.0145  0.3736  0.1473
  539POPC   GL1 6459  12.579  15.961   5.055 -0.4232 -0.1490 -0.1622
  539POPC   GL2 6460  12.453  16.170   5.001 -0.0697  0.2148  0.1460
  539POPC   C1A 6461  12.808  16.071   5.470 -0.1478  0.0296 -0.1483
  539POPC   D2A 6462  12.735  16.123   5.922  0.0547  0.3564  0.2507
  539POPC   C3A 6463  13.055  16.176   6.214  0.1165 -0.0242  0.0405
  539POPC   C4A 6464  13.288  16.253   6.602 -0.2316 -0.1594 -0.0061
  539POPC   C1B 6465  12.277  16.072   5.466  0.4421  0.2019  0.2885
  539POPC   C2B 6466  12.218  16.218   5.941 -0.0896  0.1274 -0.0794
  539POPC   C3B 6467  12.394  16.150   6.383  0.2253 -0.0262  0.1239
  539POPC   C4B 6468  12.763  16.067   6.616  0.0137  0.2836  0.0954
  540POPC   NC3 6469   0.976  12.957   4.234  0.1050 -0.3001  0.2397
  540POPC   PO4 6470   1.354  13.077   4.065  0.0729  0.0943 -0.0329
  540POPC   GL1 6471   1.486  13.117   4.422 -0.1512 -0.0569 -0.0304
  540POPC   GL2 6472   1.697  12.966   4.508  0.1037 -0.2000 -0.0046
  540POPC   C1A 6473   1.466  13.201   4.870 -0.1076  0.2618 -0.3503
  540POPC   D2A 6474   1.466  12.969   5.266 -0.1637 -0.0278  0.0779
  540POPC   C3A 6475   1.418  12.825   5.729 -0.0267 -0.4283 -0.0565
  540POPC   C4A 6476   1.422  12.511   6.051  0.0423  0.0937  0.2497
  540POPC   C1B 6477   1.751  12.631   4.814  0.0618  0.0797 -0.3632
  540POPC   C2B 6478   1.774  12.580   5.275  0.4812  0.3695  0.3267
  540POPC   C3B 6479   1.926  12.771   5.615 -0.0642  0.0239  0.1657
  540POPC   C4B 6480   2.177  12.662   5.991  0.1075  0.0750  0.1116
  541POPC   NC3 6481   8.889   4.982   8.788 -0.0576 -0.3163 -0.1108
  541POPC   PO4 6482   8.979   5.016   9.185  0.2696  0.0314 -0.0085
  541POPC   GL1 6483   8.565   4.873   9.256 -0.0888  0.4487  0.1403
  541POPC   GL2 6484   8.468   4.979   9.046  0.2155 -0.2049  0.2200
  541POPC   C1A 6485   8.133   4.741   9.395  0.0488  0.2370 -0.1050
  541POPC   D2A 6486   7.814   4.588   9.669 -0.1066 -0.2309 -0.1060
  541POPC   C3A 6487   8.010   4.362  10.024  0.0041 -0.1359  0.2261
  541POPC   C4A 6488   8.161   4.215  10.390  0.1759  0.4010  0.2206
  541POPC   C1B 6489   8.010   5.049   9.012 -0.0070  0.0212 -0.0596
  541POPC   C2B 6490   7.668   4.776   9.129 -0.2106 -0.0938 -0.1531
  541POPC   C3B 6491   7.216   4.823   9.180 -0.0963 -0.2638 -0.0931
  541POPC   C4B 6492   6.812   4.983   8.955 -0.1173 -0.2355 -0.5670
  542POPC   NC3 6493   6.383   7.909   6.228 -0.2904 -0.0751  0.1851
  542POPC   PO4 6494   6.636   7.733   6.466 -0.2690  0.0903 -0.0008
  542POPC   GL1 6495   6.416   7.721   6.758  0.2242 -0.3856 -0.1389
  542POPC   GL2 6496   6.137   7.820   6.691 -0.1333 -0.0938 -0.2936
  542POPC   C1A 6497   6.162   7.499   7.078  0.2103 -0.2349 -0.1958
  542POPC   D2A 6498   6.356   7.391   7.467 -0.1969 -0.1660  0.0636
  542POPC   C3A 6499   6.348   7.635   7.864  0.0905 -0.1414 -0.0175
  542POPC   C4A 6500   6.327   8.065   8.117  0.3734  0.0300 -0.3844
  542POPC   C1B 6501   5.921   8.002   7.007  0.2859  0.2877  0.2797
  542POPC   C2B 6502   5.729   8.197   7.294  0.2873 -0.0110 -0.1670
  542POPC   C3B 6503   5.501   8.380   7.604  0.2776  0.2349 -0.0663
  542POPC   C4B 6504   5.504   8.540   8.069  0.1892  0.1424 -0.2032
  543POPC   NC3 6505   0.457  12.457   3.639  0.0453 -0.0560 -0.1669
  543POPC   PO4 6506   0.729  12.308   3.878  0.1460 -0.1136 -0.0797
  543POPC   GL1 6507   0.487  12.034   4.138  0.0386 -0.0461  0.2482
  543POPC   GL2 6508   0.706  11.964   4.330 -0.0620 -0.2691  0.2092
  543POPC   C1A 6509   0.344  12.206   4.533 -0.0209  0.3549  0.1280
  543POPC   D2A 6510   0.290  12.259   4.965 -0.1995 -0.2960 -0.0378
  543POPC   C3A 6511   0.126  12.626   5.256  0.1037  0.3507 -0.0065
  543POPC   C4A 6512   0.213  13.017   5.541  0.0593 -0.0723 -0.1082
  543POPC   C1B 6513   0.820  12.397   4.549  0.1941  0.0841 -0.0451
  543POPC   C2B 6514   0.611  12.622   4.939  0.0237 -0.2610  0.1342
  543POPC   C3B 6515   0.695  12.794   5.379  0.2229 -0.1444 -0.0580
  543POPC   C4B 6516   0.864  12.902   5.775 -0.1392 -0.2220  0.0830
  544POPC   NC3 6517   3.608   3.994   5.457 -0.2930 -0.2190 -0.3123
  544POPC   PO4 6518   3.263   3.886   5.331  0.0877 -0.1182  0.1227
  544POPC   GL1 6519   3.175   3.992   5.694 -0.3330 -0.1701 -0.2474
  544POPC   GL2 6520   3.399   4.079   5.909 -0.2260 -0.2782  0.0719
  544POPC   C1A 6521   2.849   3.964   6.035 -0.2324 -0.0040  0.0307
  544POPC   D2A 6522   2.786   3.792   6.453  0.2530  0.2353  0.3675
  544POPC   C3A 6523   2.868   3.388   6.687 -0.0698  0.0796 -0.0692
  544POPC   C4A 6524   3.162   3.225   6.998 -0.1699 -0.3224  0.0711
  544POPC   C1B 6525   3.165   4.125   6.306 -0.0309  0.2395 -0.1262
  544POPC   C2B 6526   3.154   4.087   6.758  0.2051 -0.0419 -0.1125
  544POPC   C3B 6527   3.291   4.091   7.188 -0.1623  0.2012 -0.1154
  544POPC   C4B 6528   3.396   3.881   7.605 -0.2734  0.0926 -0.1389
  545POPC   NC3 6529  12.537   8.919   6.775 -0.1361  0.1525  0.1545
  545POPC   PO4 6530  12.625   8.527   6.859  0.0870  0.0057  0.1071
  545POPC   GL1 6531  12.876   8.444   7.145 -0.0480  0.1358  0.2164
  545POPC   GL2 6532  12.929   8.723   7.265  0.1481  0.1189  0.1429
  545POPC   C1A 6533  13.318   8.256   7.179  0.0199  0.0453  0.5202
  545POPC   D2A 6534  13.719   8.263   7.440  0.2038 -0.1241  0.1312
  545POPC   C3A 6535  13.846   8.673   7.527 -0.0035  0.1529  0.1210
  545POPC   C4A 6536  14.167   9.014   7.520 -0.3298  0.0423  0.5071
  545POPC   C1B 6537  13.352   8.730   7.363 -0.0858  0.0003  0.1492
  545POPC   C2B 6538  13.428   8.881   7.801 -0.1472  0.1315 -0.0271
  545POPC   C3B 6539  13.572   8.923   8.293  0.2959 -0.2573 -0.1111
  545POPC   C4B 6540  13.640   9.162   8.693  0.1241  0.0664 -0.1722
  546POPC   NC3 6541  12.060  15.554   4.063 -0.0715 -0.2678  0.1023
  546POPC   PO4 6542  11.989  15.531   4.476 -0.1848 -0.0485  0.0760
  546POPC   GL1 6543  11.891  15.721   4.863  0.0555 -0.0202 -0.1619
  546POPC   GL2 6544  11.658  15.644   5.008  0.1930  0.0595 -0.3245
  546POPC   C1A 6545  12.155  15.600   5.207  0.0410 -0.2095  0.1080
  546POPC   D2A 6546  12.173  15.463   5.670  0.0732 -0.1582 -0.0295
  546POPC   C3A 6547  12.515  15.601   5.898  0.1511  0.1484  0.0594
  546POPC   C4A 6548  12.757  15.669   6.256 -0.1881 -0.0368 -0.0381
  546POPC   C1B 6549  11.772  16.027   5.234 -0.0845 -0.4197  0.5359
  546POPC   C2B 6550  11.773  16.342   5.632 -0.1651 -0.0840  0.0260
  546POPC   C3B 6551  11.741  16.376   6.068  0.1032 -0.1355  0.4425
  546POPC   C4B 6552  11.778  16.085   6.392  0.2390  0.0663 -0.2283
  547POPC   NC3 6553  13.923   8.019   6.203  0.0457  0.1093  0.1463
  547POPC   PO4 6554  14.269   8.168   6.046  0.0752 -0.2161  0.0390
  547POPC   GL1 6555  14.417   7.963   6.412  0.1651  0.1669  0.0480
  547POPC   GL2 6556  14.641   8.073   6.532  0.0006 -0.3128 -0.0342
  547POPC   C1A 6557  14.182   8.033   6.814  0.0274  0.2606  0.0819
  547POPC   D2A 6558  14.214   8.079   7.292 -0.0189 -0.1511 -0.1722
  547POPC   C3A 6559  14.286   8.444   7.576 -0.2058 -0.0679  0.2023
  547POPC   C4A 6560  14.267   8.666   7.919  0.1966  0.1953 -0.0413
  547POPC   C1B 6561  14.880   8.262   6.873  0.1752  0.1125  0.0168
  547POPC   C2B 6562  14.987   8.555   7.189 -0.1157  0.0033  0.1121
  547POPC   C3B 6563  15.391   8.733   7.212 -0.1279  0.3876  0.0138
  547POPC   C4B 6564  15.785   8.943   7.275  0.3308 -0.0726 -0.2244
  548POPC   NC3 6565   1.608   4.939   5.312  0.0216 -0.2417  0.0498
  548POPC   PO4 6566   1.264   4.691   5.359 -0.1573  0.3332 -0.1557
  548POPC   GL1 6567   1.172   4.593   5.774 -0.0565  0.2355 -0.1128
  548POPC   GL2 6568   0.922   4.577   5.858 -0.0950 -0.0363  0.4712
  548POPC   C1A 6569   1.258   4.410   6.213 -0.2549  0.2993  0.1789
  548POPC   D2A 6570   1.597   4.324   6.445  0.1687 -0.4094 -0.2945
  548POPC   C3A 6571   1.710   4.514   6.878  0.1340 -0.0344 -0.2426
  548POPC   C4A 6572   1.781   4.535   7.333  0.0216 -0.0654 -0.1838
  548POPC   C1B 6573   0.636   4.449   6.198  0.2196 -0.0631 -0.2920
  548POPC   C2B 6574   0.523   4.262   6.620 -0.4658 -0.1996  0.3115
  548POPC   C3B 6575   0.457   4.178   7.051 -0.1104 -0.3248 -0.0672
  548POPC   C4B 6576   0.151   3.877   7.189  0.0125 -0.1453 -0.2255
  549POPC   NC3 6577   2.069   9.272   4.933  0.0311 -0.2138 -0.0863
  549POPC   PO4 6578   2.228   9.556   4.742 -0.0120  0.0755 -0.2449
  549POPC   GL1 6579   2.292   9.746   5.105 -0.0486 -0.1479  0.0583
  549POPC   GL2 6580   2.189   9.645   5.259 -0.0638 -0.0242  0.3213
  549POPC   C1A 6581   2.547  10.040   5.377 -0.2580 -0.1135  0.0736
  549POPC   D2A 6582   2.884  10.060   5.710 -0.0863  0.0882 -0.1730
  549POPC   C3A 6583   2.960  10.365   6.020  0.0647 -0.0329 -0.0431
  549POPC   C4A 6584   3.038  10.614   6.422 -0.2253  0.0299  0.2008
  549POPC   C1B 6585   2.004  10.010   5.440  0.0494  0.0026 -0.2254
  549POPC   C2B 6586   1.934  10.406   5.723 -0.0426 -0.1367  0.1055
  549POPC   C3B 6587   1.948  10.574   6.176  0.0396 -0.0118 -0.0565
  549POPC   C4B 6588   1.951  10.842   6.582 -0.1102 -0.0071  0.0149
  550POPC   NC3 6589  11.045   5.472   9.107  0.1349  0.1035  0.0562
  550POPC   PO4 6590  11.114   5.668   9.438  0.0151  0.0111  0.1484
  550POPC   GL1 6591  11.392   5.701   9.618  0.1385  0.2482 -0.2041
  550POPC   GL2 6592  11.558   5.964   9.564  0.0628  0.0675 -0.0477
  550POPC   C1A 6593  11.476   5.475  10.003  0.0581  0.0688  0.0343
  550POPC   D2A 6594  11.569   5.406  10.427 -0.1101  0.1609  0.0655
  550POPC   C3A 6595  11.518   4.974  10.624  0.3130 -0.0708 -0.3372
  550POPC   C4A 6596  11.542   4.586  10.832  0.3685 -0.2578 -0.1661
  550POPC   C1B 6597  11.851   5.715   9.799 -0.0970 -0.0220 -0.2152
  550POPC   C2B 6598  12.008   5.628  10.256 -0.2913 -0.1467 -0.0211
  550POPC   C3B 6599  12.301   5.727  10.531  0.0249  0.0184  0.0726
  550POPC   C4B 6600  12.374   6.163  10.773 -0.0379  0.1010 -0.1042
  551POPC   NC3 6601   9.090   8.425   7.364  0.0114 -0.0144 -0.1732
  551POPC   PO4 6602   8.780   8.605   7.190  0.1121 -0.0928 -0.1539
  551POPC   GL1 6603   8.742   8.744   7.539  0.4966 -0.1502 -0.0483
  551POPC   GL2 6604   8.900   8.807   7.752 -0.3283 -0.2020  0.0896
  551POPC   C1A 6605   8.386   8.756   7.874 -0.2175  0.3666  0.0881
  551POPC   D2A 6606   8.224   9.154   8.101  0.2599  0.2732  0.0578
  551POPC   C3A 6607   8.350   9.584   8.232 -0.0960 -0.2831 -0.1084
  551POPC   C4A 6608   8.492  10.045   8.289  0.0247  0.2752  0.1524
  551POPC   C1B 6609   8.686   9.141   7.973  0.3280 -0.1742  0.1470
  551POPC   C2B 6610   8.803   9.347   8.351  0.2444  0.1373 -0.1375
  551POPC   C3B 6611   8.702   9.615   8.721  0.1070 -0.0698 -0.1032
  551POPC   C4B 6612   8.744   9.569   9.195 -0.1111 -0.1195 -0.0216
  552POPC   NC3 6613  14.008  15.075   4.598  0.2116  0.1083  0.0957
  552POPC   PO4 6614  14.382  15.082   4.507  0.2491 -0.1851  0.3468
  552POPC   GL1 6615  14.364  15.095   4.893 -0.1001  0.0699  0.1900
  552POPC   GL2 6616  14.252  15.378   4.905  0.0690 -0.4658 -0.1588
  552POPC   C1A 6617  14.727  14.880   5.119  0.1731 -0.2782  0.0342
  552POPC   D2A 6618  15.149  14.728   5.284  0.0344  0.1281  0.0224
  552POPC   C3A 6619  15.186  14.831   5.764  0.0786  0.1575  0.1811
  552POPC   C4A 6620  15.527  14.812   6.090  0.2565  0.0838  0.0881
  552POPC   C1B 6621  14.411  15.365   5.386  0.0903 -0.1414  0.0229
  552POPC   C2B 6622  14.322  15.136   5.839  0.0434 -0.4465  0.0536
  552POPC   C3B 6623  14.097  14.791   5.997 -0.0243  0.0446 -0.0054
  552POPC   C4B 6624  14.096  14.585   6.379  0.3209 -0.1067 -0.0114
  553POPC   NC3 6625  17.630  14.468   3.775 -0.4192 -0.2339  0.0493
  553POPC   PO4 6626  17.252  14.522   3.766  0.0806  0.0659  0.2354
  553POPC   GL1 6627  17.258  14.356   4.047 -0.3077 -0.2086 -0.0725
  553POPC   GL2 6628  17.041  14.441   4.228 -0.0444 -0.3260 -0.1993
  553POPC   C1A 6629  17.545  14.390   4.335  0.2747  0.0530 -0.0581
  553POPC   D2A 6630  17.864  14.539   4.645  0.0914  0.3269  0.2813
  553POPC   C3A 6631  17.692  14.753   4.971  0.3079 -0.2365  0.1329
  553POPC   C4A 6632  17.544  15.101   5.299 -0.2000 -0.1812  0.3148
  553POPC   C1B 6633  17.265  14.769   4.524  0.0386  0.1901 -0.0524
  553POPC   C2B 6634  17.294  15.081   4.865 -0.3719 -0.1290  0.1519
  553POPC   C3B 6635  17.084  15.244   5.177  0.0647 -0.0830 -0.1557
  553POPC   C4B 6636  17.102  15.457   5.615 -0.0975  0.3309  0.2054
  554POPC   NC3 6637   4.183   5.924   5.548 -0.0372 -0.2154  0.0142
  554POPC   PO4 6638   4.442   5.631   5.472  0.0575  0.3928  0.0982
  554POPC   GL1 6639   4.334   5.496   5.871 -0.5137 -0.0302 -0.4993
  554POPC   GL2 6640   4.285   5.636   5.973  0.3125 -0.3661 -0.0436
  554POPC   C1A 6641   4.510   5.169   6.160 -0.1548 -0.0274  0.0629
  554POPC   D2A 6642   4.237   4.868   6.384  0.2288  0.3139 -0.0761
  554POPC   C3A 6643   4.441   4.637   6.622  0.2020 -0.0081 -0.2503
  554POPC   C4A 6644   4.682   4.381   6.948 -0.0385 -0.1104 -0.0256
  554POPC   C1B 6645   3.900   5.940   6.215 -0.0614 -0.2074  0.1162
  554POPC   C2B 6646   3.884   6.071   6.651 -0.0955 -0.2596  0.1239
  554POPC   C3B 6647   3.836   6.274   7.090  0.2419 -0.3455  0.0572
  554POPC   C4B 6648   3.535   6.534   7.408 -0.2221 -0.0675 -0.1652
  555POPC   NC3 6649  10.044   8.469   7.812 -0.4853 -0.2522 -0.0298
  555POPC   PO4 6650  10.339   8.505   7.508  0.4248 -0.1685 -0.0897
  555POPC   GL1 6651  10.414   8.874   7.753 -0.1535  0.2190 -0.2833
  555POPC   GL2 6652  10.134   9.018   7.703  0.0685 -0.0109  0.2411
  555POPC   C1A 6653  10.707   8.917   8.135 -0.0775  0.0805  0.0136
  555POPC   D2A 6654  10.669   8.752   8.582  0.1355 -0.0325  0.0045
  555POPC   C3A 6655  10.651   9.076   8.936 -0.0357  0.0003 -0.2101
  555POPC   C4A 6656  10.503   9.305   9.329 -0.1677  0.0386  0.3114
  555POPC   C1B 6657  10.240   9.228   8.102  0.2153 -0.1184 -0.2598
  555POPC   C2B 6658  10.534   9.448   8.435 -0.2169 -0.2722  0.0849
  555POPC   C3B 6659  10.627   9.587   8.874 -0.1928  0.0273  0.0177
  555POPC   C4B 6660  10.894   9.677   9.273  0.0059  0.3457  0.0163
  556POPC   NC3 6661  13.754  10.256   5.311  0.1880 -0.3530  0.2790
  556POPC   PO4 6662  13.968  10.482   5.065 -0.1455 -0.1085  0.0244
  556POPC   GL1 6663  13.977  10.823   5.360 -0.0165 -0.1075 -0.2770
  556POPC   GL2 6664  14.239  10.726   5.520 -0.0756  0.1297  0.0535
  556POPC   C1A 6665  14.140  11.206   5.557  0.2023 -0.2637  0.2126
  556POPC   D2A 6666  14.507  11.456   5.735  0.1382 -0.4036  0.2313
  556POPC   C3A 6667  14.922  11.392   5.888  0.1166  0.2175 -0.2345
  556POPC   C4A 6668  15.011  11.237   6.316  0.0813  0.2824  0.0149
  556POPC   C1B 6669  14.044  10.869   5.944  0.2180 -0.1543 -0.0666
  556POPC   C2B 6670  13.806  10.918   6.381 -0.0601  0.0535  0.0443
  556POPC   C3B 6671  13.478  11.097   6.645  0.0731  0.0986  0.3129
  556POPC   C4B 6672  13.363  11.439   6.973 -0.1128  0.0321  0.2431
  557POPC   NC3 6673   9.489  12.001   5.302  0.1488  0.2880 -0.3195
  557POPC   PO4 6674   9.838  12.140   5.419 -0.0676  0.1030  0.1473
  557POPC   GL1 6675   9.667  12.213   5.750 -0.0382  0.0878 -0.2388
  557POPC   GL2 6676   9.377  12.230   5.659  0.1057 -0.0920 -0.1868
  557POPC   C1A 6677   9.866  12.477   6.093  0.0704  0.1700  0.2443
  557POPC   D2A 6678   9.966  12.628   6.494 -0.1183 -0.0687  0.2025
  557POPC   C3A 6679  10.077  13.004   6.786 -0.1478 -0.1518 -0.1775
  557POPC   C4A 6680  10.026  13.252   7.165 -0.4056  0.0432  0.0492
  557POPC   C1B 6681   9.385  12.295   6.144 -0.0165  0.2240  0.1187
  557POPC   C2B 6682   9.618  12.278   6.507 -0.1339  0.1396 -0.0649
  557POPC   C3B 6683   9.695  12.210   6.926 -0.1174  0.2618  0.2349
  557POPC   C4B 6684   9.706  12.228   7.426  0.2209  0.0901 -0.0180
  558POPC   NC3 6685   8.107  10.607   5.298  0.4594  0.2449 -0.2574
  558POPC   PO4 6686   7.904  10.622   5.643  0.0346 -0.1238 -0.2209
  558POPC   GL1 6687   7.874  10.950   5.928  0.4456  0.3156  0.1219
  558POPC   GL2 6688   7.816  10.754   6.155  0.0793  0.2016 -0.0563
  558POPC   C1A 6689   8.185  11.231   6.112 -0.5327  0.0026  0.0382
  558POPC   D2A 6690   8.456  11.332   6.462  0.1494 -0.2253  0.1738
  558POPC   C3A 6691   8.791  11.054   6.654  0.0338 -0.2419 -0.2518
  558POPC   C4A 6692   8.989  11.004   7.099 -0.0574  0.1228  0.1660
  558POPC   C1B 6693   7.972  10.958   6.516  0.0567  0.0583 -0.0008
  558POPC   C2B 6694   8.065  11.378   6.702  0.1711  0.0858  0.3741
  558POPC   C3B 6695   8.220  11.668   7.052 -0.1679  0.0100 -0.0537
  558POPC   C4B 6696   8.445  11.665   7.457 -0.0973 -0.1703 -0.0028
  559POPC   NC3 6697  10.776   9.387   6.596  0.1040  0.0707  0.0085
  559POPC   PO4 6698  10.507   9.446   6.947 -0.2872  0.1820 -0.1552
  559POPC   GL1 6699  10.806   9.659   7.206 -0.3614  0.2688 -0.1561
  559POPC   GL2 6700  10.720   9.560   7.449  0.0262  0.5612 -0.0983
  559POPC   C1A 6701  11.027  10.022   7.416 -0.0827  0.0305 -0.2491
  559POPC   D2A 6702  11.090  10.365   7.769  0.0452  0.0586  0.3455
  559POPC   C3A 6703  11.473  10.584   7.851  0.0536 -0.4830  0.0766
  559POPC   C4A 6704  11.740  10.976   7.743 -0.2257  0.0520  0.4766
  559POPC   C1B 6705  10.482   9.909   7.572  0.0879  0.3092 -0.3704
  559POPC   C2B 6706  10.379  10.245   7.920  0.0474  0.2410  0.0431
  559POPC   C3B 6707  10.207  10.631   8.153  0.1635  0.1851 -0.0503
  559POPC   C4B 6708   9.850  10.796   8.436 -0.1189 -0.0265  0.1437
  560POPC   NC3 6709  15.657  10.350   5.220 -0.0101  0.2168  0.0895
  560POPC   PO4 6710  15.935  10.338   4.967  0.0652 -0.1532 -0.0253
  560POPC   GL1 6711  15.851  10.759   5.219  0.0835  0.3173 -0.1714
  560POPC   GL2 6712  16.057  10.769   5.248  0.2086 -0.0388  0.0549
  560POPC   C1A 6713  15.776  11.133   5.438  0.2122 -0.4370  0.1207
  560POPC   D2A 6714  15.726  11.129   5.874  0.2701  0.0839 -0.1316
  560POPC   C3A 6715  15.449  11.339   6.158 -0.1847 -0.1942 -0.1461
  560POPC   C4A 6716  15.453  11.512   6.563  0.1734  0.3533 -0.2782
  560POPC   C1B 6717  16.077  10.806   5.731 -0.3440 -0.1117  0.0736
  560POPC   C2B 6718  16.083  10.751   6.183 -0.3497  0.2451  0.0858
  560POPC   C3B 6719  16.448  10.798   6.408 -0.0978  0.0048 -0.0439
  560POPC   C4B 6720  16.660  10.938   6.750 -0.1052  0.2959  0.1015
  561POPC   NC3 6721   9.706   2.928   6.433  0.1986  0.4698 -0.0636
  561POPC   PO4 6722   9.450   2.918   6.705 -0.1312 -0.0202  0.1321
  561POPC   GL1 6723   9.239   2.524   6.723 -0.0575  0.2070 -0.0844
  561POPC   GL2 6724   9.339   2.446   7.050 -0.0684 -0.1173  0.1023
  561POPC   C1A 6725   8.913   2.267   6.822  0.2270 -0.0197  0.2434
  561POPC   D2A 6726   8.561   2.133   7.129  0.5001 -0.2101  0.3152
  561POPC   C3A 6727   8.451   1.691   7.157  0.0435 -0.0799  0.3797
  561POPC   C4A 6728   8.723   1.297   7.120  0.0572  0.0084  0.0302
  561POPC   C1B 6729   9.390   1.984   7.258  0.1259 -0.0296  0.0532
  561POPC   C2B 6730   9.623   1.752   7.600 -0.0552  0.0381 -0.0494
  561POPC   C3B 6731   9.535   1.498   7.974  0.2049  0.5842 -0.0787
  561POPC   C4B 6732   9.339   1.352   8.399 -0.1460  0.1072  0.1563
  562POPC   NC3 6733  10.388   5.218  11.135  0.3600  0.1257 -0.0964
  562POPC   PO4 6734  10.701   5.357  10.930 -0.0171 -0.0615 -0.1606
  562POPC   GL1 6735  10.875   5.089  11.120  0.1307  0.0182  0.0463
  562POPC   GL2 6736  11.126   5.165  10.972  0.1676 -0.0207 -0.2951
  562POPC   C1A 6737  10.968   4.658  11.312 -0.1553  0.1158 -0.0078
  562POPC   D2A 6738  10.932   4.242  11.407  0.2010 -0.0183 -0.1424
  562POPC   C3A 6739  10.985   3.811  11.134 -0.0116 -0.0240 -0.0831
  562POPC   C4A 6740  10.945   3.575  10.785 -0.1634 -0.2368 -0.1192
  562POPC   C1B 6741  11.580   5.357  11.017  0.0728 -0.2106  0.1100
  562POPC   C2B 6742  11.895   5.484  11.358  0.2719  0.1926 -0.2685
  562POPC   C3B 6743  12.300   5.387  11.510  0.1115  0.0736 -0.0176
  562POPC   C4B 6744  12.684   5.441  11.763  0.1639  0.0758 -0.0111
  563POPC   NC3 6745  15.520  16.600   3.766 -0.0901  0.2562  0.1246
  563POPC   PO4 6746  15.335  16.424   4.053  0.2430 -0.0129 -0.0388
  563POPC   GL1 6747  15.480  16.403   4.419  0.0984 -0.3255  0.0319
  563POPC   GL2 6748  15.489  16.731   4.481  0.2799 -0.0557  0.1582
  563POPC   C1A 6749  15.444  16.183   4.816  0.1797 -0.0665  0.1709
  563POPC   D2A 6750  15.630  16.266   5.201  0.1312  0.0339  0.4241
  563POPC   C3A 6751  15.888  16.460   5.497  0.0921  0.0879  0.1944
  563POPC   C4A 6752  15.996  16.544   5.930  0.1466  0.3154  0.1174
  563POPC   C1B 6753  15.539  17.038   4.830  0.0885 -0.4144  0.1629
  563POPC   C2B 6754  15.444  17.328   5.269 -0.2217  0.0509  0.3374
  563POPC   C3B 6755  15.485  17.223   5.733 -0.4424 -0.2342  0.0952
  563POPC   C4B 6756  15.792  16.972   5.917 -0.1108  0.2837 -0.0003
  564POPC   NC3 6757   7.105  16.966   4.860  0.0402 -0.2761  0.2490
  564POPC   PO4 6758   6.721  17.055   4.866 -0.1191  0.1204 -0.2194
  564POPC   GL1 6759   6.912  17.337   5.193 -0.0521 -0.2051 -0.2071
  564POPC   GL2 6760   6.729  17.267   5.410  0.0894  0.2579 -0.2013
  564POPC   C1A 6761   7.187  17.253   5.563 -0.0632 -0.0078 -0.1294
  564POPC   D2A 6762   7.249  17.036   6.014 -0.0144 -0.1953  0.2723
  564POPC   C3A 6763   7.464  16.638   6.144  0.2935  0.1630  0.0408
  564POPC   C4A 6764   7.696  16.236   6.336 -0.0262  0.0453  0.3265
  564POPC   C1B 6765   6.314  17.185   5.629 -0.0392  0.2000 -0.0820
  564POPC   C2B 6766   6.064  17.237   6.048 -0.3136 -0.2287  0.0018
  564POPC   C3B 6767   6.076  17.072   6.467 -0.3215  0.1325 -0.0759
  564POPC   C4B 6768   6.015  16.843   6.851 -0.0657  0.1357  0.0021
  565POPC   NC3 6769   9.597   5.134  10.758  0.0985  0.0060 -0.2859
  565POPC   PO4 6770   9.551   5.313  10.447  0.4577 -0.1147  0.4677
  565POPC   GL1 6771   9.603   4.902  10.273 -0.1093  0.3115 -0.2003
  565POPC   GL2 6772   9.820   4.817  10.494  0.0845  0.1720 -0.0851
  565POPC   C1A 6773   9.287   4.640  10.499 -0.0021 -0.1958 -0.1340
  565POPC   D2A 6774   8.835   4.614  10.461 -0.1562 -0.0281 -0.0842
  565POPC   C3A 6775   8.452   4.696  10.194  0.0468  0.3341  0.0017
  565POPC   C4A 6776   8.194   4.954   9.976  0.3192 -0.2075  0.0927
  565POPC   C1B 6777   9.641   4.572  10.841  0.0536 -0.1245 -0.0814
  565POPC   C2B 6778   9.704   4.163  10.885  0.2810  0.2001  0.0759
  565POPC   C3B 6779  10.008   3.804  11.013  0.1309  0.2069  0.0700
  565POPC   C4B 6780  10.056   3.398  11.189  0.0083  0.1002  0.1232
  566POPC   NC3 6781   2.889   7.722   4.165  0.0712  0.1542 -0.1055
  566POPC   PO4 6782   2.651   7.752   4.522 -0.4135  0.0661  0.1138
  566POPC   GL1 6783   2.738   7.825   4.931  0.2601  0.1472 -0.2725
  566POPC   GL2 6784   3.048   7.887   4.964  0.2443 -0.0576 -0.2406
  566POPC   C1A 6785   2.702   8.235   5.151 -0.0004 -0.1591 -0.2933
  566POPC   D2A 6786   2.486   8.588   5.352 -0.0069 -0.2761  0.3747
  566POPC   C3A 6787   2.301   8.631   5.795 -0.2736  0.2841 -0.1643
  566POPC   C4A 6788   2.146   8.556   6.245 -0.0791  0.1411 -0.0698
  566POPC   C1B 6789   3.184   8.068   5.347 -0.2359  0.1775  0.1951
  566POPC   C2B 6790   3.569   8.041   5.632  0.3063 -0.4320 -0.0856
  566POPC   C3B 6791   3.719   7.699   5.858  0.0766 -0.0022 -0.1216
  566POPC   C4B 6792   4.046   7.411   5.732 -0.1524 -0.0069 -0.1966
  567POPC   NC3 6793   9.277  12.851   4.752 -0.0975 -0.0773  0.0220
  567POPC   PO4 6794   9.507  13.108   4.941  0.0936 -0.0425  0.0632
  567POPC   GL1 6795   9.234  13.089   5.243  0.0586  0.1438  0.0866
  567POPC   GL2 6796   9.404  13.117   5.491  0.0660  0.1498  0.2691
  567POPC   C1A 6797   8.911  13.303   5.512 -0.0956  0.1674 -0.1248
  567POPC   D2A 6798   8.590  13.562   5.670  0.2035  0.1882  0.1783
  567POPC   C3A 6799   8.580  13.846   6.065  0.1200 -0.0225  0.2654
  567POPC   C4A 6800   8.642  14.326   6.121  0.1108  0.3964  0.1622
  567POPC   C1B 6801   9.747  13.154   5.797 -0.1902  0.1579  0.1744
  567POPC   C2B 6802   9.831  13.041   6.225  0.1001 -0.0094 -0.1874
  567POPC   C3B 6803   9.491  12.808   6.386 -0.1355 -0.2424  0.0302
  567POPC   C4B 6804   9.516  12.738   6.818 -0.1550 -0.0155  0.1524
  568POPC   NC3 6805  14.741  13.783   3.995  0.0567 -0.0476 -0.2506
  568POPC   PO4 6806  14.444  13.506   4.145 -0.3468 -0.1418  0.1994
  568POPC   GL1 6807  14.682  13.683   4.464 -0.0150 -0.0670  0.0299
  568POPC   GL2 6808  14.563  13.952   4.498 -0.0601 -0.4593  0.1250
  568POPC   C1A 6809  14.574  13.649   4.909  0.0531  0.1719  0.0300
  568POPC   D2A 6810  14.315  13.844   5.206 -0.1536 -0.0307  0.0951
  568POPC   C3A 6811  14.327  14.200   5.424 -0.0567  0.0293 -0.1855
  568POPC   C4A 6812  14.349  14.412   5.817 -0.1754 -0.1803  0.0183
  568POPC   C1B 6813  14.122  14.026   4.660 -0.0453  0.1476  0.1366
  568POPC   C2B 6814  13.941  14.208   4.990 -0.0233  0.0252 -0.0852
  568POPC   C3B 6815  13.795  14.099   5.438 -0.1183  0.3861  0.0428
  568POPC   C4B 6816  13.831  14.397   5.745 -0.0020 -0.0018 -0.0472
  569POPC   NC3 6817   7.245   3.449   6.173  0.3353  0.1238 -0.3468
  569POPC   PO4 6818   7.593   3.406   6.323  0.1819 -0.2045 -0.2421
  569POPC   GL1 6819   7.284   3.274   6.616  0.0550 -0.2387  0.2367
  569POPC   GL2 6820   7.013   3.331   6.673 -0.2583  0.3089  0.1967
  569POPC   C1A 6821   7.262   3.075   7.050 -0.1700  0.0121  0.1047
  569POPC   D2A 6822   7.072   2.992   7.496 -0.0890  0.0700 -0.0622
  569POPC   C3A 6823   7.142   3.330   7.785 -0.0156 -0.0893  0.2584
  569POPC   C4A 6824   7.504   3.561   7.923 -0.0009  0.3142  0.2562
  569POPC   C1B 6825   6.764   3.395   7.083 -0.1214 -0.1268  0.2706
  569POPC   C2B 6826   6.582   3.365   7.556  0.1728 -0.1224  0.1239
  569POPC   C3B 6827   6.473   3.283   8.015  0.0227 -0.3287 -0.0572
  569POPC   C4B 6828   6.546   2.987   8.353  0.1429 -0.1976 -0.0414
  570POPC   NC3 6829  16.433   1.644   4.570 -0.1358 -0.0082  0.1671
  570POPC   PO4 6830  16.193   1.998   4.580 -0.2543  0.0732 -0.0586
  570POPC   GL1 6831  16.211   2.169   5.011  0.0662 -0.1921  0.0639
  570POPC   GL2 6832  16.138   2.395   5.109  0.2673 -0.3966 -0.3196
  570POPC   C1A 6833  15.864   2.007   5.316 -0.1094  0.1494  0.0679
  570POPC   D2A 6834  15.595   1.770   5.633 -0.3991  0.2497  0.1211
  570POPC   C3A 6835  15.684   1.536   6.050 -0.0100 -0.2942  0.0424
  570POPC   C4A 6836  15.902   1.555   6.477  0.0356  0.0276 -0.1010
  570POPC   C1B 6837  16.030   2.382   5.566 -0.2806  0.0495  0.0851
  570POPC   C2B 6838  15.985   1.968   5.860  0.1218  0.1859  0.1271
  570POPC   C3B 6839  16.167   1.587   5.998 -0.2171 -0.2956 -0.2368
  570POPC   C4B 6840  16.329   1.358   6.397 -0.0099  0.1151 -0.0379
  571POPC   NC3 6841  12.617  14.505   4.777 -0.1770 -0.1559 -0.0040
  571POPC   PO4 6842  12.300  14.673   4.623 -0.4201  0.0031 -0.0032
  571POPC   GL1 6843  12.394  14.988   4.801  0.1464  0.3779  0.3209
  571POPC   GL2 6844  12.428  15.330   4.742 -0.1407  0.1905 -0.0083
  571POPC   C1A 6845  12.315  15.042   5.242  0.3478  0.1439  0.1556
  571POPC   D2A 6846  12.156  14.994   5.670  0.0666 -0.0192  0.0247
  571POPC   C3A 6847  11.985  14.821   6.046 -0.1240 -0.3320 -0.1729
  571POPC   C4A 6848  11.884  14.815   6.537  0.0163 -0.1905  0.0489
  571POPC   C1B 6849  12.644  15.448   5.162 -0.2754  0.0208 -0.0213
  571POPC   C2B 6850  12.611  15.211   5.568  0.1733 -0.2090 -0.5987
  571POPC   C3B 6851  12.809  15.223   6.019  0.1021 -0.1112  0.3584
  571POPC   C4B 6852  13.000  15.104   6.392 -0.0723  0.2554 -0.0732
  572POPC   NC3 6853   5.684   5.605   5.916 -0.0230  0.0477 -0.2363
  572POPC   PO4 6854   6.035   5.691   5.852  0.1603 -0.0444 -0.0972
  572POPC   GL1 6855   6.126   5.652   6.259  0.3485 -0.0006 -0.2353
  572POPC   GL2 6856   6.001   5.340   6.246  0.0193 -0.0058  0.0482
  572POPC   C1A 6857   6.137   5.667   6.766  0.1794 -0.0266  0.0414
  572POPC   D2A 6858   5.999   5.367   7.077 -0.2063  0.0215  0.0448
  572POPC   C3A 6859   5.713   5.405   7.394 -0.0661 -0.1580 -0.0003
  572POPC   C4A 6860   5.707   5.339   7.848 -0.1357  0.0083  0.0394
  572POPC   C1B 6861   5.807   5.318   6.650  0.1269  0.0014 -0.0449
  572POPC   C2B 6862   5.516   5.193   7.025 -0.0366  0.2558  0.0370
  572POPC   C3B 6863   5.344   5.114   7.460  0.3237  0.1523  0.0969
  572POPC   C4B 6864   5.014   4.947   7.715  0.2416 -0.0961  0.0230
  573POPC   NC3 6865   2.593  10.273   4.852 -0.2711 -0.0046  0.1777
  573POPC   PO4 6866   2.959  10.239   4.658  0.1776 -0.1535  0.3162
  573POPC   GL1 6867   2.972  10.503   5.024 -0.1787 -0.1294  0.0701
  573POPC   GL2 6868   2.897  10.397   5.286  0.2738  0.3399  0.2509
  573POPC   C1A 6869   2.830  10.927   4.993 -0.0039  0.3897 -0.2034
  573POPC   D2A 6870   2.789  11.216   5.367  0.0647  0.0305 -0.0512
  573POPC   C3A 6871   2.567  11.051   5.710  0.2256  0.1069 -0.0589
  573POPC   C4A 6872   2.360  10.646   5.893 -0.3927 -0.1142 -0.2870
  573POPC   C1B 6873   2.868  10.695   5.597 -0.1107  0.0404 -0.0425
  573POPC   C2B 6874   2.854  10.886   6.054 -0.1453 -0.0913 -0.0820
  573POPC   C3B 6875   2.866  11.092   6.506 -0.0273  0.1471  0.1660
  573POPC   C4B 6876   3.043  10.884   6.875  0.1341  0.0790  0.0766
  574POPC   NC3 6877  14.306   3.386   4.955  0.2882 -0.0997 -0.2273
  574POPC   PO4 6878  14.373   3.428   5.352 -0.0672  0.0646  0.2405
  574POPC   GL1 6879  14.327   3.158   5.619  0.2663  0.0911 -0.2612
  574POPC   GL2 6880  14.248   2.950   5.560  0.2825  0.0393 -0.3177
  574POPC   C1A 6881  14.463   3.317   6.041 -0.0515 -0.0754  0.0566
  574POPC   D2A 6882  14.316   3.412   6.520 -0.0486 -0.0893  0.1479
  574POPC   C3A 6883  14.456   3.356   6.958 -0.0550  0.1453  0.2418
  574POPC   C4A 6884  14.890   3.301   7.110 -0.2851  0.0978  0.2475
  574POPC   C1B 6885  14.473   2.856   5.980  0.1813 -0.2217 -0.1817
  574POPC   C2B 6886  14.647   2.975   6.354 -0.0010  0.1087 -0.0171
  574POPC   C3B 6887  14.742   2.928   6.821 -0.0823  0.0402 -0.1385
  574POPC   C4B 6888  14.885   2.630   7.110 -0.0906 -0.2066  0.1861
  575POPC   NC3 6889  10.146   7.310   8.923 -0.1594 -0.1361  0.2929
  575POPC   PO4 6890  10.468   7.531   8.899 -0.0460  0.0241 -0.2056
  575POPC   GL1 6891  10.669   7.841   9.223  0.2728  0.2395  0.0307
  575POPC   GL2 6892  10.425   8.029   9.185 -0.0199 -0.0024  0.0518
  575POPC   C1A 6893  10.953   7.802   9.580  0.1099  0.0633  0.0897
  575POPC   D2A 6894  11.265   7.909   9.939 -0.1204  0.0649 -0.1055
  575POPC   C3A 6895  11.445   8.319  10.048 -0.0636  0.1697 -0.1369
  575POPC   C4A 6896  11.724   8.730  10.078  0.0469  0.0813  0.2345
  575POPC   C1B 6897  10.700   8.274   9.435  0.0120  0.2747 -0.1314
  575POPC   C2B 6898  10.978   8.310   9.842 -0.0223 -0.0099  0.0800
  575POPC   C3B 6899  11.121   8.627  10.168  0.2260 -0.0526  0.0349
  575POPC   C4B 6900  11.065   9.073  10.052 -0.0393  0.0404  0.1033
  576POPC   NC3 6901   6.341  10.747   5.046 -0.1321 -0.3297  0.0022
  576POPC   PO4 6902   6.503  10.617   5.401  0.0511 -0.2601  0.2239
  576POPC   GL1 6903   6.384  10.897   5.572 -0.0605 -0.3083 -0.2907
  576POPC   GL2 6904   6.592  11.147   5.446 -0.0987  0.3030  0.2282
  576POPC   C1A 6905   6.025  10.928   5.846  0.0315 -0.1169  0.0883
  576POPC   D2A 6906   5.703  10.771   6.106  0.2058  0.0291  0.1790
  576POPC   C3A 6907   5.864  10.777   6.522  0.2083  0.2573 -0.1119
  576POPC   C4A 6908   5.846  10.730   6.999  0.1142 -0.1650  0.1979
  576POPC   C1B 6909   6.545  11.605   5.570  0.3828 -0.0337 -0.1174
  576POPC   C2B 6910   6.503  12.007   5.902  0.1759  0.0164  0.1459
  576POPC   C3B 6911   6.510  12.137   6.329 -0.0784 -0.2949 -0.4165
  576POPC   C4B 6912   6.762  11.917   6.657 -0.1600  0.0672 -0.0509
  577POPC   NC3 6913  31.744  12.322   4.347 -0.0885 -0.1267 -0.1862
  577POPC   PO4 6914  32.162  12.374   4.354  0.3039 -0.0053  0.1013
  577POPC   GL1 6915  32.363  12.377   4.739 -0.0589 -0.0269 -0.0048
  577POPC   GL2 6916  32.685  12.372   4.632 -0.0095  0.3017 -0.3451
  577POPC   C1A 6917  32.296  12.566   5.183 -0.0184 -0.1838  0.0404
  577POPC   D2A 6918  32.246  12.626   5.640  0.2241 -0.0358  0.1482
  577POPC   C3A 6919  32.252  12.316   6.000  0.0574 -0.0373 -0.0175
  577POPC   C4A 6920  32.023  11.946   6.147  0.0375 -0.0408  0.2686
  577POPC   C1B 6921  32.675  12.250   5.055 -0.0691  0.0555 -0.1843
  577POPC   C2B 6922  32.649  12.286   5.499 -0.0088 -0.4589 -0.0057
  577POPC   C3B 6923  32.779  12.300   5.946 -0.0281  0.2191  0.0259
  577POPC   C4B 6924  32.974  12.578   6.277  0.3614 -0.2743 -0.1454
  578POPC   NC3 6925   9.905   6.801  11.351 -0.0612 -0.1645 -0.2153
  578POPC   PO4 6926  10.213   6.589  11.599  0.1141 -0.2828 -0.0951
  578POPC   GL1 6927  10.259   6.926  11.796 -0.2744 -0.1365  0.0426
  578POPC   GL2 6928  10.081   6.977  11.907 -0.0699 -0.1732  0.1274
  578POPC   C1A 6929  10.314   7.371  11.686 -0.2444  0.1217 -0.0744
  578POPC   D2A 6930  10.488   7.784  11.811  0.0378 -0.1445 -0.0943
  578POPC   C3A 6931  10.577   8.156  11.541  0.0588  0.0232  0.2189
  578POPC   C4A 6932  10.586   8.458  11.132  0.2175  0.0381 -0.1393
  578POPC   C1B 6933   9.762   7.361  12.006 -0.0993  0.1362 -0.0448
  578POPC   C2B 6934   9.508   7.735  11.984  0.2527 -0.3702  0.0520
  578POPC   C3B 6935   9.555   8.131  12.227  0.1264  0.2637 -0.2014
  578POPC   C4B 6936   9.865   8.359  12.417  0.0084 -0.0030  0.2272
  579POPC   NC3 6937   8.671   7.163   9.183 -0.2231 -0.0284 -0.2596
  579POPC   PO4 6938   8.540   7.276   8.808 -0.0272 -0.2479  0.2062
  579POPC   GL1 6939   8.305   7.569   8.968 -0.0764 -0.2198 -0.4402
  579POPC   GL2 6940   8.508   7.648   9.203  0.0071 -0.0356 -0.3704
  579POPC   C1A 6941   8.090   7.989   8.954 -0.0492  0.1274 -0.3214
  579POPC   D2A 6942   7.750   8.150   9.234  0.2429 -0.3286  0.1196
  579POPC   C3A 6943   7.505   8.452   9.450 -0.1786  0.0577 -0.1146
  579POPC   C4A 6944   7.322   8.655   9.783  0.0988 -0.0854 -0.2926
  579POPC   C1B 6945   8.180   7.827   9.485  0.2868 -0.2004 -0.2636
  579POPC   C2B 6946   7.941   8.122   9.729 -0.1206  0.0044 -0.0351
  579POPC   C3B 6947   7.580   8.290  10.031  0.1119  0.0709  0.0639
  579POPC   C4B 6948   7.142   8.128  10.165  0.0547 -0.1271  0.1461
  580POPC   NC3 6949   3.871   7.829   4.900  0.0981  0.0339  0.1034
  580POPC   PO4 6950   4.000   8.050   5.190 -0.2378 -0.4062 -0.0512
  580POPC   GL1 6951   4.059   8.045   5.608 -0.1981 -0.0750  0.1834
  580POPC   GL2 6952   4.339   8.193   5.774 -0.2830 -0.0348  0.2348
  580POPC   C1A 6953   3.887   8.385   5.880  0.0314 -0.1882 -0.2201
  580POPC   D2A 6954   3.692   8.707   6.122  0.1925 -0.2423 -0.0867
  580POPC   C3A 6955   3.839   9.133   6.135 -0.2028 -0.1676  0.0019
  580POPC   C4A 6956   4.209   9.316   5.929 -0.0179  0.0122  0.1476
  580POPC   C1B 6957   4.343   8.645   5.961  0.1171 -0.2050 -0.0196
  580POPC   C2B 6958   4.196   8.799   6.375  0.0110  0.2180  0.1137
  580POPC   C3B 6959   4.059   9.071   6.728 -0.3080 -0.2532 -0.1672
  580POPC   C4B 6960   3.790   9.226   7.057  0.1000  0.0130  0.0753
  581POPC   NC3 6961   8.317   1.222   5.412  0.4026  0.0324 -0.0200
  581POPC   PO4 6962   7.936   1.234   5.509  0.3013  0.0127  0.0987
  581POPC   GL1 6963   7.754   0.900   5.704 -0.1331 -0.2772 -0.0590
  581POPC   GL2 6964   7.707   0.592   5.723 -0.1429 -0.1371  0.0718
  581POPC   C1A 6965   8.009   0.684   6.081  0.0816  0.2726 -0.2827
  581POPC   D2A 6966   8.129   0.325   6.188 -0.0977  0.0796  0.4189
  581POPC   C3A 6967   7.846   0.007   5.964  0.0118 -0.0881 -0.0460
  581POPC   C4A 6968   7.656  -0.412   6.056 -0.0994 -0.1293 -0.1682
  581POPC   C1B 6969   7.524   0.480   6.192 -0.1491  0.1872  0.3659
  581POPC   C2B 6970   7.734   0.262   6.543 -0.0397  0.0986  0.0745
  581POPC   C3B 6971   7.925   0.140   6.963  0.0945 -0.0535  0.2251
  581POPC   C4B 6972   8.383   0.292   7.100  0.2168 -0.0268 -0.1166
  582POPC   NC3 6973   3.791  13.438   4.100 -0.1832 -0.1237 -0.1779
  582POPC   PO4 6974   3.993  13.435   4.410 -0.3289  0.1452 -0.1374
  582POPC   GL1 6975   4.082  13.369   4.743  0.1008 -0.2365 -0.3097
  582POPC   GL2 6976   4.078  13.102   4.835 -0.2679  0.1956  0.3186
  582POPC   C1A 6977   3.673  13.210   5.027  0.3229 -0.2443 -0.2642
  582POPC   D2A 6978   3.490  13.303   5.411  0.1178  0.0307  0.0424
  582POPC   C3A 6979   3.284  13.276   5.817 -0.0289 -0.1170 -0.1527
  582POPC   C4A 6980   3.397  13.681   5.943  0.0037  0.3382 -0.1470
  582POPC   C1B 6981   4.045  12.922   5.207  0.1039 -0.1039  0.0235
  582POPC   C2B 6982   4.024  13.009   5.657 -0.1714 -0.0204 -0.4565
  582POPC   C3B 6983   4.214  12.874   6.069  0.1473  0.4372  0.2003
  582POPC   C4B 6984   4.211  12.793   6.529 -0.0220  0.0518 -0.0888
  583POPC   NC3 6985   9.623  11.725   5.815  0.2207 -0.2683 -0.1383
  583POPC   PO4 6986   9.333  11.584   5.615 -0.1925  0.0336 -0.2100
  583POPC   GL1 6987   9.152  11.837   5.872 -0.0490 -0.3401  0.1031
  583POPC   GL2 6988   8.845  11.765   5.855 -0.0414 -0.0136  0.2482
  583POPC   C1A 6989   9.393  11.848   6.257 -0.0681  0.1045 -0.0811
  583POPC   D2A 6990   9.536  11.803   6.686 -0.0970 -0.1260  0.0724
  583POPC   C3A 6991   9.529  11.839   7.178  0.1662 -0.0193  0.0202
  583POPC   C4A 6992   9.373  11.785   7.557  0.2017 -0.0067  0.0198
  583POPC   C1B 6993   8.880  12.229   5.981 -0.1613 -0.2051 -0.0193
  583POPC   C2B 6994   8.969  12.383   6.390 -0.0023  0.0618 -0.0888
  583POPC   C3B 6995   8.948  12.661   6.803  0.1811  0.1403  0.1527
  583POPC   C4B 6996   8.929  13.118   6.947 -0.1805  0.2198 -0.1113
  584POPC   NC3 6997   1.116   3.017   4.828  0.1864  0.0379 -0.1952
  584POPC   PO4 6998   1.318   3.335   4.873  0.2056  0.1047 -0.0712
  584POPC   GL1 6999   1.444   3.408   5.227  0.0399 -0.4070 -0.0404
  584POPC   GL2 7000   1.307   3.270   5.459 -0.1005 -0.0528  0.1821
  584POPC   C1A 7001   1.784   3.274   5.575  0.4246 -0.0755  0.1989
  584POPC   D2A 7002   1.918   2.886   5.682 -0.3354  0.0898  0.3146
  584POPC   C3A 7003   1.761   2.505   5.866 -0.1598  0.2619 -0.1228
  584POPC   C4A 7004   1.860   2.101   5.671 -0.1218 -0.2241  0.0178
  584POPC   C1B 7005   1.160   3.132   5.852  0.0531  0.1610  0.1790
  584POPC   C2B 7006   1.257   3.220   6.326 -0.0290  0.1925 -0.2861
  584POPC   C3B 7007   1.398   3.349   6.758  0.0851  0.2735 -0.2136
  584POPC   C4B 7008   1.599   3.185   7.107 -0.1315 -0.0638  0.0663
  585POPC   NC3 7009   8.391  10.331   6.197 -0.0425 -0.1152 -0.1186
  585POPC   PO4 7010   8.760  10.271   6.302 -0.2357 -0.0519 -0.0022
  585POPC   GL1 7011   8.666  10.338   6.729  0.0620  0.2811  0.0165
  585POPC   GL2 7012   8.706  10.563   6.919 -0.6804 -0.0055  0.1788
  585POPC   C1A 7013   8.456  10.224   7.115  0.2424  0.1291  0.0024
  585POPC   D2A 7014   8.546  10.282   7.566 -0.2070 -0.0744  0.0043
  585POPC   C3A 7015   8.306  10.412   7.974  0.0120 -0.2574  0.0210
  585POPC   C4A 7016   8.052  10.292   8.351  0.2295  0.2752  0.0194
  585POPC   C1B 7017   8.554  10.760   7.251 -0.1199 -0.3680 -0.3234
  585POPC   C2B 7018   8.758  11.132   7.547 -0.0112  0.0656 -0.1134
  585POPC   C3B 7019   8.986  11.537   7.381 -0.0369  0.0160 -0.0648
  585POPC   C4B 7020   9.067  11.803   7.073  0.1423 -0.1446 -0.2846
  586POPC   NC3 7021   8.681   4.207   8.343 -0.1686 -0.3168  0.0957
  586POPC   PO4 7022   9.070   4.295   8.324 -0.0047 -0.0542  0.0488
  586POPC   GL1 7023   9.057   3.941   8.511 -0.1837 -0.0018  0.2568
  586POPC   GL2 7024   9.289   3.804   8.539 -0.0044 -0.0945  0.2326
  586POPC   C1A 7025   8.761   3.603   8.520  0.0205  0.0359 -0.1668
  586POPC   D2A 7026   8.630   3.165   8.657 -0.0360 -0.2006 -0.1329
  586POPC   C3A 7027   8.615   3.038   9.115  0.0234 -0.1295 -0.1863
  586POPC   C4A 7028   8.960   2.752   9.245 -0.0610 -0.2663 -0.3151
  586POPC   C1B 7029   9.236   3.752   8.981  0.1127 -0.0115  0.2956
  586POPC   C2B 7030   9.404   3.646   9.405 -0.1823  0.0068 -0.1195
  586POPC   C3B 7031   9.396   3.279   9.729  0.1553 -0.0814 -0.2490
  586POPC   C4B 7032   9.637   2.914   9.960 -0.2246 -0.0054 -0.0357
  587POPC   NC3 7033  10.996   2.658   5.823 -0.0226  0.1159  0.3508
  587POPC   PO4 7034  11.098   2.673   6.181 -0.3300 -0.1167  0.0726
  587POPC   GL1 7035  11.316   2.610   6.518  0.2169  0.3004 -0.1343
  587POPC   GL2 7036  11.080   2.424   6.787 -0.0707 -0.0300 -0.0453
  587POPC   C1A 7037  11.638   2.381   6.668  0.0212  0.0552 -0.2250
  587POPC   D2A 7038  11.963   2.481   7.036 -0.0982 -0.1109  0.1971
  587POPC   C3A 7039  11.924   2.335   7.468 -0.2531  0.3621  0.0416
  587POPC   C4A 7040  12.161   2.400   7.903 -0.1048  0.2643 -0.0434
  587POPC   C1B 7041  11.409   2.266   7.085  0.2288  0.1361  0.1755
  587POPC   C2B 7042  11.500   2.009   7.477  0.1548  0.1342 -0.1669
  587POPC   C3B 7043  11.438   2.080   7.917 -0.4109  0.1407  0.0839
  587POPC   C4B 7044  11.853   1.913   7.995  0.2100 -0.1602 -0.2813
  588POPC   NC3 7045  10.120  15.179   4.730  0.0167 -0.0800 -0.0742
  588POPC   PO4 7046  10.136  15.583   4.790  0.2095 -0.0054  0.1823
  588POPC   GL1 7047  10.416  15.575   5.153 -0.0705 -0.2905  0.2490
  588POPC   GL2 7048  10.428  15.826   5.170  0.0600 -0.2655 -0.1533
  588POPC   C1A 7049  10.323  15.293   5.526 -0.0564  0.2912 -0.1691
  588POPC   D2A 7050  10.093  15.121   5.885 -0.0889  0.0420  0.3334
  588POPC   C3A 7051  10.436  15.200   6.191  0.4474 -0.3087 -0.1779
  588POPC   C4A 7052  10.773  15.268   6.490  0.0814 -0.2020  0.2007
  588POPC   C1B 7053  10.374  15.775   5.624  0.0410 -0.1811  0.0552
  588POPC   C2B 7054  10.300  15.686   6.087  0.1885  0.0449 -0.1523
  588POPC   C3B 7055  10.286  15.626   6.518  0.0989 -0.1175  0.1155
  588POPC   C4B 7056  10.273  15.215   6.743  0.1364  0.1099  0.2171
  589POPC   NC3 7057   9.912   7.618   8.270  0.2196 -0.0322  0.1747
  589POPC   PO4 7058   9.823   7.309   8.545  0.0655 -0.3086  0.2921
  589POPC   GL1 7059   9.880   7.742   8.672  0.0424 -0.3472 -0.3576
  589POPC   GL2 7060  10.147   7.816   8.666 -0.1327  0.0122  0.0691
  589POPC   C1A 7061   9.743   8.158   8.801  0.1623  0.1160  0.0196
  589POPC   D2A 7062   9.874   8.643   8.732  0.2916 -0.1913  0.2039
  589POPC   C3A 7063  10.096   8.747   9.110  0.2270 -0.1397 -0.1142
  589POPC   C4A 7064  10.059   8.965   9.499 -0.0927 -0.0836  0.3484
  589POPC   C1B 7065  10.331   8.234   8.767  0.0264  0.0627  0.0763
  589POPC   C2B 7066  10.530   8.496   8.984  0.2417 -0.1071 -0.1033
  589POPC   C3B 7067  10.516   8.775   9.337 -0.0469  0.0047 -0.3829
  589POPC   C4B 7068  10.673   8.705   9.738 -0.2508  0.0583  0.1844
  590POPC   NC3 7069   6.092  15.928   4.188  0.1980 -0.0844 -0.1735
  590POPC   PO4 7070   5.844  15.932   4.513 -0.1081 -0.0163  0.1434
  590POPC   GL1 7071   5.967  16.110   4.904 -0.2346 -0.0032 -0.0815
  590POPC   GL2 7072   5.924  15.914   4.992  0.0417 -0.3746  0.0543
  590POPC   C1A 7073   6.269  16.037   5.280  0.0297 -0.2200 -0.1518
  590POPC   D2A 7074   6.308  16.098   5.722  0.2290  0.2212 -0.0610
  590POPC   C3A 7075   6.232  15.819   6.062 -0.0298 -0.0462  0.0292
  590POPC   C4A 7076   6.124  15.387   6.234 -0.3606  0.5654  0.2445
  590POPC   C1B 7077   6.007  15.644   5.346 -0.1276 -0.2697 -0.1723
  590POPC   C2B 7078   6.108  15.467   5.738 -0.1721  0.1738  0.1247
  590POPC   C3B 7079   5.889  15.113   5.941 -0.0894  0.0992  0.1451
  590POPC   C4B 7080   5.479  14.811   6.092  0.1299  0.2834  0.3650
  591POPC   NC3 7081   6.750   8.238   6.201  0.0450 -0.2401  0.0866
  591POPC   PO4 7082   6.600   8.615   6.310 -0.0617  0.1337  0.1715
  591POPC   GL1 7083   6.452   8.866   6.626 -0.6039  0.1750  0.2784
  591POPC   GL2 7084   6.691   8.795   6.830  0.0343  0.1952  0.0944
  591POPC   C1A 7085   6.074   9.186   6.629 -0.2199  0.0644  0.1016
  591POPC   D2A 7086   5.883   9.535   6.773  0.1463 -0.0680  0.2835
  591POPC   C3A 7087   5.887   9.852   7.122 -0.1913  0.0897  0.0756
  591POPC   C4A 7088   5.784  10.295   7.271 -0.0142  0.0216 -0.3026
  591POPC   C1B 7089   6.288   8.938   6.987 -0.4574  0.0988 -0.1739
  591POPC   C2B 7090   6.057   8.972   7.340 -0.1111 -0.0834  0.0946
  591POPC   C3B 7091   5.778   9.182   7.692  0.3415 -0.1612  0.1032
  591POPC   C4B 7092   5.436   9.503   7.912  0.0090  0.3593 -0.1269
  592POPC   NC3 7093   9.271  16.217   4.877  0.2071  0.1002 -0.1608
  592POPC   PO4 7094   9.086  15.908   4.951 -0.2374 -0.2231  0.0442
  592POPC   GL1 7095   9.195  15.574   5.154  0.0032  0.1518 -0.4062
  592POPC   GL2 7096   8.995  15.677   5.410 -0.0696 -0.4207  0.0844
  592POPC   C1A 7097   9.525  15.581   5.541 -0.2968 -0.0992  0.1903
  592POPC   D2A 7098   9.923  15.556   5.766  0.3723 -0.2510  0.0002
  592POPC   C3A 7099   9.893  15.410   6.235  0.0315 -0.1359 -0.2396
  592POPC   C4A 7100   9.672  15.330   6.599  0.1424 -0.1393 -0.0734
  592POPC   C1B 7101   9.231  15.942   5.712 -0.0273  0.3343  0.1792
  592POPC   C2B 7102   9.229  16.074   6.152 -0.1079 -0.1891 -0.0029
  592POPC   C3B 7103   9.440  16.223   6.496  0.4178  0.0327  0.1630
  592POPC   C4B 7104   9.776  16.262   6.844 -0.0374 -0.1008 -0.1632
  593POPC   NC3 7105   5.187   9.357   5.172  0.2312  0.1353  0.1394
  593POPC   PO4 7106   5.292   9.048   5.425  0.4231 -0.3511  0.0964
  593POPC   GL1 7107   5.072   9.230   5.653 -0.2320  0.1036 -0.1651
  593POPC   GL2 7108   5.123   9.496   5.758  0.2610  0.3718  0.1849
  593POPC   C1A 7109   5.091   9.194   6.177 -0.3179 -0.2549  0.0318
  593POPC   D2A 7110   5.196   9.107   6.596  0.0005 -0.3569  0.2529
  593POPC   C3A 7111   5.544   9.130   6.895  0.2034  0.1229  0.1411
  593POPC   C4A 7112   5.712   9.398   7.225 -0.2539  0.0398 -0.0516
  593POPC   C1B 7113   5.093   9.695   6.159  0.3047 -0.1675  0.0523
  593POPC   C2B 7114   4.854   9.620   6.536  0.3281 -0.0901 -0.1499
  593POPC   C3B 7115   4.597   9.738   6.885 -0.2348 -0.4439  0.1596
  593POPC   C4B 7116   4.635  10.088   7.248  0.0364  0.0549 -0.3291
  594POPC   NC3 7117  11.415   9.872   6.606  0.3067 -0.2329  0.1370
  594POPC   PO4 7118  11.106   9.709   6.398 -0.0724  0.0340 -0.1830
  594POPC   GL1 7119  11.011   9.816   6.799  0.0102  0.1153 -0.0833
  594POPC   GL2 7120  10.721   9.924   6.650  0.0744  0.3468  0.1315
  594POPC   C1A 7121  10.982  10.206   6.965 -0.1411  0.2095  0.3330
  594POPC   D2A 7122  11.173  10.636   7.073  0.2110  0.3868  0.4046
  594POPC   C3A 7123  10.817  11.015   7.096 -0.0835 -0.1004 -0.1528
  594POPC   C4A 7124  10.646  11.191   7.464 -0.0485 -0.0699  0.1804
  594POPC   C1B 7125  10.522  10.100   7.044  0.1976 -0.0514 -0.0948
  594POPC   C2B 7126  10.317  10.353   7.431  0.0483  0.0143  0.0149
  594POPC   C3B 7127  10.459  10.705   7.685 -0.0987 -0.2631  0.0248
  594POPC   C4B 7128  10.801  10.813   7.897  0.1617  0.0649 -0.2309
  595POPC   NC3 7129   9.022   5.851  10.883  0.2150 -0.0520 -0.1946
  595POPC   PO4 7130   8.856   5.895  10.532  0.1907 -0.0217 -0.3800
  595POPC   GL1 7131   8.533   5.742  10.422  0.0963 -0.0517 -0.1237
  595POPC   GL2 7132   8.526   5.513  10.244 -0.0005  0.1898 -0.0153
  595POPC   C1A 7133   8.142   5.744  10.721  0.3780 -0.1033 -0.1155
  595POPC   D2A 7134   7.911   5.795  11.112 -0.2040  0.0112  0.2487
  595POPC   C3A 7135   7.553   6.057  11.239 -0.3457 -0.1457  0.0263
  595POPC   C4A 7136   7.256   6.234  11.020 -0.0399  0.0463 -0.3622
  595POPC   C1B 7137   8.148   5.276  10.336  0.2836 -0.0136  0.0408
  595POPC   C2B 7138   7.739   5.179  10.113 -0.2530 -0.1083  0.0021
  595POPC   C3B 7139   7.534   4.812  10.151  0.1471  0.0786  0.3144
  595POPC   C4B 7140   7.464   4.618  10.540  0.1883  0.3936  0.0256
  596POPC   NC3 7141   1.418  13.572   4.089  0.1573 -0.2427  0.5102
  596POPC   PO4 7142   1.634  13.862   3.938 -0.0244 -0.2361 -0.1777
  596POPC   GL1 7143   1.779  13.856   4.290 -0.1693  0.1818  0.3154
  596POPC   GL2 7144   1.924  13.633   4.284  0.0129 -0.2266  0.0369
  596POPC   C1A 7145   1.494  13.684   4.632  0.1945  0.0319 -0.0883
  596POPC   D2A 7146   1.430  13.621   5.084  0.0346 -0.3908  0.0767
  596POPC   C3A 7147   1.507  13.800   5.517  0.0235 -0.1560 -0.1385
  596POPC   C4A 7148   1.779  13.933   5.872  0.1057  0.1989 -0.1383
  596POPC   C1B 7149   1.949  13.885   4.679  0.0034 -0.0175 -0.1444
  596POPC   C2B 7150   1.838  13.844   5.180 -0.1313  0.0187  0.1605
  596POPC   C3B 7151   2.098  13.707   5.578  0.2916 -0.2769  0.1013
  596POPC   C4B 7152   2.310  13.973   5.951 -0.1427  0.1451 -0.2876
  597POPC   NC3 7153  11.327   1.781   5.337  0.1041  0.0295  0.0693
  597POPC   PO4 7154  11.217   1.419   5.231 -0.0276 -0.1444  0.0418
  597POPC   GL1 7155  11.446   1.434   5.582  0.2399 -0.3781 -0.2777
  597POPC   GL2 7156  11.338   1.268   5.710  0.2713 -0.2646 -0.1933
  597POPC   C1A 7157  11.885   1.245   5.670 -0.0135 -0.0418 -0.0330
  597POPC   D2A 7158  12.256   1.065   5.961 -0.0071 -0.2420  0.1984
  597POPC   C3A 7159  12.288   1.122   6.428  0.1226 -0.1109 -0.0441
  597POPC   C4A 7160  12.365   1.031   6.854 -0.0296  0.2015 -0.3993
  597POPC   C1B 7161  11.565   0.891   5.880 -0.1051 -0.2771 -0.2067
  597POPC   C2B 7162  11.567   0.568   6.195 -0.0837  0.0302  0.1742
  597POPC   C3B 7163  11.685   0.483   6.610 -0.2551  0.2548  0.2818
  597POPC   C4B 7164  11.922   0.564   6.994  0.2946  0.1700  0.2549
  598POPC   NC3 7165   5.616   4.421   5.137  0.0633  0.0385 -0.0514
  598POPC   PO4 7166   5.496   4.503   5.457 -0.0791 -0.0187 -0.1134
  598POPC   GL1 7167   5.545   4.615   5.954 -0.0508 -0.2209  0.5016
  598POPC   GL2 7168   5.276   4.645   6.093 -0.1229 -0.1032  0.0167
  598POPC   C1A 7169   5.743   4.438   6.351 -0.1887  0.0818 -0.0085
  598POPC   D2A 7170   5.848   4.364   6.834  0.1300  0.0329 -0.1421
  598POPC   C3A 7171   5.550   4.237   7.152 -0.1754 -0.3989 -0.0852
  598POPC   C4A 7172   5.480   3.892   7.474  0.0813 -0.2518 -0.3089
  598POPC   C1B 7173   5.029   4.349   5.953  0.1838 -0.3653  0.0980
  598POPC   C2B 7174   4.818   3.918   6.047 -0.0265  0.0397 -0.0647
  598POPC   C3B 7175   4.565   3.603   6.288  0.1034  0.2868  0.2182
  598POPC   C4B 7176   4.414   3.540   6.753  0.2919  0.1101  0.0685
  599POPC   NC3 7177   5.901   6.691   6.469  0.1198 -0.0611  0.1349
  599POPC   PO4 7178   6.061   7.013   6.506 -0.1672  0.2354  0.1484
  599POPC   GL1 7179   5.679   7.133   6.710  0.1169 -0.1978 -0.1823
  599POPC   GL2 7180   5.625   6.890   6.832 -0.2267  0.0795 -0.0290
  599POPC   C1A 7181   5.305   7.292   6.870 -0.1705 -0.0049 -0.0690
  599POPC   D2A 7182   4.871   7.383   6.946 -0.0689  0.1270 -0.2631
  599POPC   C3A 7183   4.689   7.744   6.743  0.0008 -0.1490 -0.0403
  599POPC   C4A 7184   4.362   8.013   6.697 -0.0417 -0.0001 -0.2284
  599POPC   C1B 7185   5.681   7.202   7.152  0.0758 -0.2177 -0.2064
  599POPC   C2B 7186   5.619   7.317   7.625  0.1378 -0.2392 -0.1486
  599POPC   C3B 7187   5.528   7.119   8.027  0.0686 -0.0397  0.2897
  599POPC   C4B 7188   5.058   6.919   8.168 -0.2538 -0.1761 -0.0196
  600POPC   NC3 7189  13.570  14.913   3.935 -0.0861 -0.2458 -0.0807
  600POPC   PO4 7190  13.649  14.813   4.292 -0.0053  0.0303  0.1777
  600POPC   GL1 7191  13.784  14.610   4.738  0.2196  0.0526  0.3455
  600POPC   GL2 7192  13.523  14.589   4.867 -0.0286 -0.2392  0.1501
  600POPC   C1A 7193  14.262  14.607   4.899 -0.1380 -0.1507  0.3237
  600POPC   D2A 7194  14.644  14.391   4.816 -0.1406 -0.2001  0.1349
  600POPC   C3A 7195  14.803  14.296   5.228  0.0092 -0.1635  0.0261
  600POPC   C4A 7196  14.941  14.354   5.696 -0.1369 -0.3048 -0.1124
  600POPC   C1B 7197  13.648  14.646   5.319 -0.0688 -0.1084 -0.4466
  600POPC   C2B 7198  13.680  14.885   5.751  0.1535 -0.0656  0.0253
  600POPC   C3B 7199  13.502  14.903   6.187 -0.1776  0.2197 -0.1172
  600POPC   C4B 7200  13.288  14.730   6.577 -0.0697 -0.0011 -0.0186
  601POPC   NC3 7201   1.530  15.830   4.639  0.1475  0.0369 -0.3324
  601POPC   PO4 7202   1.234  16.127   4.635  0.1527 -0.0109  0.3618
  601POPC   GL1 7203   1.281  16.156   5.091  0.2084  0.1131 -0.1347
  601POPC   GL2 7204   1.511  16.297   5.043 -0.2066  0.0920  0.2293
  601POPC   C1A 7205   1.121  15.898   5.438 -0.1211  0.0489 -0.3140
  601POPC   D2A 7206   0.917  15.430   5.534 -0.0772 -0.0512 -0.1502
  601POPC   C3A 7207   0.921  15.133   5.898  0.1733 -0.2425  0.0476
  601POPC   C4A 7208   1.091  14.991   6.309  0.3312  0.2019  0.1764
  601POPC   C1B 7209   1.577  16.329   5.482 -0.0049 -0.2061 -0.0050
  601POPC   C2B 7210   1.719  16.402   5.911  0.0816 -0.0820 -0.2781
  601POPC   C3B 7211   1.732  16.359   6.377 -0.2656 -0.0303  0.2266
  601POPC   C4B 7212   1.943  16.150   6.778 -0.3786  0.2367 -0.0080
  602POPC   NC3 7213  11.212   7.298   7.726  0.0979 -0.1631  0.1673
  602POPC   PO4 7214  11.495   7.521   7.516 -0.2984  0.1451  0.2676
  602POPC   GL1 7215  11.640   7.738   7.869  0.4896  0.0593 -0.0643
  602POPC   GL2 7216  11.708   7.575   8.131  0.1549 -0.1118  0.1799
  602POPC   C1A 7217  11.618   8.157   7.924 -0.0605 -0.1306 -0.2321
  602POPC   D2A 7218  11.665   8.544   8.203  0.1087  0.0140 -0.3056
  602POPC   C3A 7219  11.676   8.429   8.661 -0.0376  0.0881 -0.3397
  602POPC   C4A 7220  11.781   8.280   9.152  0.2095  0.0471  0.2701
  602POPC   C1B 7221  12.046   7.715   8.393  0.0034 -0.1580 -0.0741
  602POPC   C2B 7222  12.300   7.940   8.663 -0.0433  0.2389 -0.0331
  602POPC   C3B 7223  12.663   8.124   8.860  0.0540  0.2110  0.0295
  602POPC   C4B 7224  12.937   8.490   9.082  0.1310 -0.0067 -0.0918
  603POPC   NC3 7225   2.600   7.367   4.935  0.1345  0.3704 -0.1324
  603POPC   PO4 7226   2.789   7.240   5.260 -0.3794  0.1575 -0.0393
  603POPC   GL1 7227   3.117   7.264   5.498  0.6205  0.2558  0.3479
  603POPC   GL2 7228   2.893   7.285   5.743  0.2904 -0.0531 -0.1516
  603POPC   C1A 7229   3.395   7.285   5.842 -0.0847 -0.1671 -0.1441
  603POPC   D2A 7230   3.415   7.413   6.312 -0.0606  0.1330  0.1833
  603POPC   C3A 7231   3.176   7.778   6.459 -0.3783  0.0741  0.4386
  603POPC   C4A 7232   2.977   7.987   6.784 -0.0081  0.2106  0.0025
  603POPC   C1B 7233   2.927   7.493   6.156  0.2448  0.0034 -0.1050
  603POPC   C2B 7234   2.663   7.654   6.517 -0.0154  0.2967  0.1196
  603POPC   C3B 7235   2.501   7.954   6.811  0.2189 -0.0848 -0.1225
  603POPC   C4B 7236   2.624   8.181   7.202 -0.0798 -0.0383 -0.0434
  604POPC   NC3 7237  14.741  31.801   4.464  0.1929 -0.1726  0.2312
  604POPC   PO4 7238  14.416  32.024   4.518 -0.0733 -0.0959  0.1867
  604POPC   GL1 7239  14.543  31.818   4.860 -0.1323  0.3257 -0.0831
  604POPC   GL2 7240  14.578  31.528   4.856 -0.1726 -0.0828  0.1725
  604POPC   C1A 7241  14.306  31.846   5.264 -0.0431  0.0635 -0.0199
  604POPC   D2A 7242  14.087  31.807   5.621  0.1188 -0.0802  0.4538
  604POPC   C3A 7243  13.999  32.219   5.963 -0.0996  0.2463 -0.0390
  604POPC   C4A 7244  13.843  32.354   6.337 -0.3182  0.1173 -0.2339
  604POPC   C1B 7245  14.748  31.625   5.282  0.2753 -0.3387 -0.0783
  604POPC   C2B 7246  14.641  31.559   5.746  0.0415 -0.1101  0.3848
  604POPC   C3B 7247  14.264  31.587   6.043  0.1613  0.3041 -0.0724
  604POPC   C4B 7248  14.013  31.878   6.334 -0.2683 -0.1183  0.0543
  605POPC   NC3 7249   9.512   4.376   8.570 -0.2502  0.1279 -0.1841
  605POPC   PO4 7250   9.273   4.651   8.639  0.1652 -0.1788 -0.2593
  605POPC   GL1 7251   8.933   4.436   8.749 -0.2189 -0.0412 -0.4550
  605POPC   GL2 7252   8.896   4.536   9.053  0.0604 -0.1964  0.0967
  605POPC   C1A 7253   8.822   4.018   8.977 -0.2666  0.0809  0.2601
  605POPC   D2A 7254   8.769   3.537   8.979  0.2308  0.0231  0.2122
  605POPC   C3A 7255   8.331   3.530   9.002  0.2349  0.0271  0.0209
  605POPC   C4A 7256   7.887   3.505   8.859 -0.4228 -0.0629 -0.0078
  605POPC   C1B 7257   8.519   4.446   9.249  0.1507 -0.0017  0.3787
  605POPC   C2B 7258   8.270   4.212   9.541 -0.0791  0.0169  0.1431
  605POPC   C3B 7259   8.165   3.925   9.930  0.0279  0.0355 -0.1617
  605POPC   C4B 7260   7.874   3.877  10.261 -0.0089  0.0572  0.2756
  606POPC   NC3 7261   9.436   9.593   6.972  0.1731 -0.0130 -0.1867
  606POPC   PO4 7262   9.740   9.386   6.813 -0.0142 -0.0241  0.2337
  606POPC   GL1 7263   9.903   9.562   7.233 -0.3857 -0.3243 -0.1585
  606POPC   GL2 7264  10.202   9.731   7.223  0.0109  0.0945  0.2748
  606POPC   C1A 7265  10.138   9.498   7.629 -0.1084 -0.0942 -0.1748
  606POPC   D2A 7266  10.318   9.724   8.006 -0.1431  0.1313  0.2884
  606POPC   C3A 7267  10.015  10.029   8.261 -0.1940 -0.0465  0.0787
  606POPC   C4A 7268   9.741  10.326   8.498 -0.4013 -0.0784 -0.1652
  606POPC   C1B 7269   9.989   9.937   7.573  0.0196 -0.2141  0.0220
  606POPC   C2B 7270   9.915  10.260   7.850 -0.1748 -0.4440 -0.1991
  606POPC   C3B 7271   9.688  10.627   7.994  0.0376 -0.1354 -0.1708
  606POPC   C4B 7272   9.446  10.970   8.137  0.1936  0.0031 -0.1304
  607POPC   NC3 7273  11.973  17.395   5.171  0.1249 -0.0276  0.3120
  607POPC   PO4 7274  12.354  17.304   5.068  0.0509  0.0267 -0.0473
  607POPC   GL1 7275  12.622  17.120   5.285 -0.1855 -0.1223  0.0220
  607POPC   GL2 7276  12.470  16.847   5.284 -0.1609  0.0144  0.2498
  607POPC   C1A 7277  12.993  16.888   5.469 -0.1993 -0.0512 -0.1853
  607POPC   D2A 7278  13.071  16.616   5.843  0.0835 -0.3014 -0.2127
  607POPC   C3A 7279  13.231  16.689   6.341 -0.1169  0.2328  0.2904
  607POPC   C4A 7280  13.662  16.778   6.496 -0.3945  0.3482 -0.0619
  607POPC   C1B 7281  12.367  16.512   5.585 -0.0392 -0.1148 -0.1575
  607POPC   C2B 7282  12.613  16.616   5.997 -0.1078 -0.0558  0.2229
  607POPC   C3B 7283  12.726  16.554   6.453  0.0225  0.0717 -0.1625
  607POPC   C4B 7284  12.816  16.904   6.775 -0.1933 -0.2496  0.0436
  608POPC   NC3 7285   1.806  13.219   3.947 -0.3331 -0.2084 -0.2666
  608POPC   PO4 7286   2.111  13.087   3.731 -0.1934 -0.0403 -0.0233
  608POPC   GL1 7287   2.350  13.169   4.088 -0.0424  0.0175 -0.0022
  608POPC   GL2 7288   2.438  13.431   4.141  0.1549 -0.1167 -0.0641
  608POPC   C1A 7289   2.162  13.238   4.465 -0.1461 -0.0826 -0.0537
  608POPC   D2A 7290   1.986  13.451   4.837 -0.1612  0.0422  0.0567
  608POPC   C3A 7291   1.878  13.285   5.237  0.0600 -0.1584 -0.0688
  608POPC   C4A 7292   1.611  13.269   5.627 -0.4349 -0.3126 -0.1108
  608POPC   C1B 7293   2.403  13.643   4.597  0.3061 -0.3352 -0.0048
  608POPC   C2B 7294   2.343  13.807   5.061 -0.0777  0.1353 -0.0458
  608POPC   C3B 7295   2.590  14.070   5.380 -0.2031  0.2130 -0.0567
  608POPC   C4B 7296   2.720  14.261   5.782  0.1796 -0.2863 -0.1694
  609POPC   NC3 7297   3.743  10.019   4.565  0.0401 -0.3073 -0.1296
  609POPC   PO4 7298   3.532  10.317   4.678  0.4421  0.1263  0.1805
  609POPC   GL1 7299   3.718  10.481   4.973  0.0475 -0.2587  0.0167
  609POPC   GL2 7300   3.423  10.660   5.083  0.0105 -0.1719 -0.0380
  609POPC   C1A 7301   3.740  10.573   5.420  0.5076  0.0344  0.2732
  609POPC   D2A 7302   3.866  10.488   5.853 -0.0479  0.0980 -0.0206
  609POPC   C3A 7303   3.538  10.405   6.173  0.1271 -0.1765 -0.0671
  609POPC   C4A 7304   3.278  10.118   6.375  0.0009 -0.0408  0.0437
  609POPC   C1B 7305   3.224  10.908   5.393 -0.3513  0.1554 -0.2500
  609POPC   C2B 7306   3.069  11.217   5.730  0.0417 -0.1345  0.3203
  609POPC   C3B 7307   2.781  11.374   6.031  0.0674  0.0540 -0.0496
  609POPC   C4B 7308   2.302  11.443   6.061 -0.0875  0.1691  0.5469
  610POPC   NC3 7309  12.352   5.977   7.018 -0.0571  0.0849  0.1434
  610POPC   PO4 7310  12.290   5.965   7.387  0.0289  0.0017  0.2370
  610POPC   GL1 7311  12.528   5.917   7.646  0.3016  0.0794 -0.1535
  610POPC   GL2 7312  12.540   6.177   7.837  0.1646 -0.0557 -0.2591
  610POPC   C1A 7313  12.659   5.671   8.067  0.0011 -0.0556 -0.0378
  610POPC   D2A 7314  12.766   5.568   8.447  0.1784 -0.0068 -0.0689
  610POPC   C3A 7315  13.125   5.346   8.508 -0.3261  0.2478  0.1180
  610POPC   C4A 7316  13.421   5.358   8.879 -0.0743  0.2585 -0.1192
  610POPC   C1B 7317  12.826   6.485   7.744  0.1448  0.1011  0.1695
  610POPC   C2B 7318  13.321   6.491   7.642  0.0181 -0.0950 -0.1368
  610POPC   C3B 7319  13.658   6.506   7.886  0.0417 -0.0447  0.0996
  610POPC   C4B 7320  13.900   6.233   8.155 -0.0799  0.0412 -0.1549
  611POPC   NC3 7321  15.937  17.066   4.439  0.2894 -0.0110 -0.2129
  611POPC   PO4 7322  16.274  17.014   4.263 -0.0368  0.3640  0.1618
  611POPC   GL1 7323  16.458  17.078   4.601  0.3372  0.2313  0.2868
  611POPC   GL2 7324  16.326  16.802   4.695  0.0533  0.1569 -0.0528
  611POPC   C1A 7325  16.481  17.053   5.085 -0.0289  0.0279 -0.2019
  611POPC   D2A 7326  16.426  17.213   5.531 -0.2922 -0.2277 -0.0655
  611POPC   C3A 7327  16.010  17.379   5.430  0.3367 -0.2905 -0.0226
  611POPC   C4A 7328  15.849  17.742   5.202  0.0570  0.1547 -0.1245
  611POPC   C1B 7329  16.405  16.580   5.121  0.1229 -0.2790 -0.0729
  611POPC   C2B 7330  16.401  16.621   5.563 -0.4047  0.2602 -0.1024
  611POPC   C3B 7331  16.511  16.681   6.036 -0.2186 -0.0110  0.0504
  611POPC   C4B 7332  16.623  16.870   6.441 -0.2752  0.1169 -0.0789
  612POPC   NC3 7333  13.357  12.850   4.567 -0.2617  0.1160  0.3110
  612POPC   PO4 7334  13.575  12.526   4.632 -0.1568  0.1342  0.0483
  612POPC   GL1 7335  13.985  12.507   4.816 -0.2183  0.0170  0.2493
  612POPC   GL2 7336  13.993  12.279   4.941 -0.0066 -0.1435  0.0360
  612POPC   C1A 7337  14.086  12.699   5.207 -0.0519 -0.0107  0.0554
  612POPC   D2A 7338  14.252  12.908   5.540  0.0776  0.1665  0.1035
  612POPC   C3A 7339  14.551  12.940   5.937 -0.2309  0.2807 -0.2496
  612POPC   C4A 7340  14.823  13.098   6.252 -0.2326  0.2566  0.0846
  612POPC   C1B 7341  13.989  12.199   5.388 -0.2748 -0.2683 -0.0826
  612POPC   C2B 7342  14.080  11.980   5.771  0.0306 -0.0824  0.0251
  612POPC   C3B 7343  14.261  11.787   6.141  0.2146  0.0873 -0.0949
  612POPC   C4B 7344  14.535  11.596   6.443 -0.1599  0.0007 -0.0306
  613POPC   NC3 7345   7.284   6.436   7.873  0.1326 -0.0554  0.0858
  613POPC   PO4 7346   7.323   6.586   7.521  0.1000 -0.1027 -0.1192
  613POPC   GL1 7347   6.933   6.630   7.623 -0.3013 -0.0843 -0.2316
  613POPC   GL2 7348   6.800   6.440   7.386  0.2034 -0.1284  0.1464
  613POPC   C1A 7349   6.742   6.719   8.019 -0.1807 -0.1736  0.2265
  613POPC   D2A 7350   6.331   6.785   8.250 -0.3725  0.1107  0.0189
  613POPC   C3A 7351   6.157   6.881   8.666 -0.1852 -0.0761 -0.1646
  613POPC   C4A 7352   5.971   7.028   9.047  0.0442  0.3329  0.0555
  613POPC   C1B 7353   6.482   6.294   7.773  0.0417 -0.0124  0.3597
  613POPC   C2B 7354   6.395   6.306   8.241  0.2305  0.0735  0.1182
  613POPC   C3B 7355   6.639   6.036   8.535  0.1349 -0.1275 -0.0261
  613POPC   C4B 7356   6.470   5.867   8.998 -0.2403  0.0957  0.0617
  614POPC   NC3 7357  31.972  31.879   4.131 -0.1788 -0.2166 -0.1046
  614POPC   PO4 7358  31.942  32.259   4.164 -0.2262 -0.1162 -0.1891
  614POPC   GL1 7359  32.144  32.155   4.443  0.0315  0.2249 -0.1168
  614POPC   GL2 7360  32.393  32.127   4.293 -0.2818 -0.0118  0.0957
  614POPC   C1A 7361  31.980  32.051   4.835 -0.0743  0.2634 -0.1075
  614POPC   D2A 7362  32.193  32.077   5.276  0.2349 -0.0225  0.0250
  614POPC   C3A 7363  32.268  32.424   5.563  0.0861  0.1850  0.0400
  614POPC   C4A 7364  32.479  32.857   5.659  0.1218 -0.1712  0.0152
  614POPC   C1B 7365  32.422  31.854   4.687 -0.0100  0.0329  0.0902
  614POPC   C2B 7366  32.564  31.606   5.057  0.0865 -0.1024 -0.1190
  614POPC   C3B 7367  32.778  31.356   5.406 -0.0925 -0.0320  0.2119
  614POPC   C4B 7368  33.093  31.260   5.716 -0.1375  0.0407  0.2566
  615POPC   NC3 7369  11.334  11.777   4.833 -0.2773  0.2487  0.1384
  615POPC   PO4 7370  11.579  12.028   4.935  0.0665  0.1503  0.0002
  615POPC   GL1 7371  11.608  12.257   5.238  0.0291 -0.0602 -0.1332
  615POPC   GL2 7372  11.477  12.178   5.493  0.1286 -0.1992 -0.0188
  615POPC   C1A 7373  11.761  12.692   5.328  0.0638  0.2755 -0.2090
  615POPC   D2A 7374  11.741  13.087   5.565 -0.0384 -0.1215 -0.2316
  615POPC   C3A 7375  12.022  13.274   5.953  0.0204  0.0851  0.0247
  615POPC   C4A 7376  12.167  13.069   6.313 -0.0881  0.0520 -0.3012
  615POPC   C1B 7377  11.245  12.023   5.874 -0.1195  0.0523  0.0847
  615POPC   C2B 7378  11.277  12.074   6.392 -0.1689  0.1118 -0.1457
  615POPC   C3B 7379  11.559  12.055   6.702  0.1653 -0.0395  0.0475
  615POPC   C4B 7380  11.933  12.311   6.723 -0.3380 -0.2193 -0.0088
  616POPC   NC3 7381  17.722   1.757   4.936 -0.0237  0.0187  0.2620
  616POPC   PO4 7382  17.362   1.712   4.855 -0.1798 -0.4118  0.0454
  616POPC   GL1 7383  17.196   1.864   5.191  0.0939 -0.1413 -0.0069
  616POPC   GL2 7384  17.282   1.620   5.340 -0.0081  0.2881  0.2769
  616POPC   C1A 7385  16.863   1.836   5.569 -0.0490  0.0363  0.0847
  616POPC   D2A 7386  16.878   1.648   5.994 -0.2865 -0.1952  0.0417
  616POPC   C3A 7387  16.675   1.258   5.973  0.0800  0.3121 -0.2108
  616POPC   C4A 7388  16.450   0.898   6.174  0.3677  0.1940  0.1295
  616POPC   C1B 7389  17.333   1.578   5.792 -0.0635  0.1623  0.2896
  616POPC   C2B 7390  17.584   1.823   6.054 -0.1943 -0.1870 -0.4382
  616POPC   C3B 7391  17.505   2.160   6.279  0.1991  0.0958  0.1738
  616POPC   C4B 7392  17.638   2.536   6.483 -0.4443  0.2974 -0.2749
  617POPC   NC3 7393  10.247  12.225   5.617 -0.3225  0.0675 -0.1951
  617POPC   PO4 7394  10.559  12.085   5.361  0.0519  0.0497 -0.1875
  617POPC   GL1 7395  10.532  11.813   5.782 -0.2260 -0.2632  0.3281
  617POPC   GL2 7396  10.705  12.123   5.855  0.2421 -0.1800  0.0381
  617POPC   C1A 7397  10.313  11.985   6.110  0.2586  0.0961  0.1705
  617POPC   D2A 7398  10.350  12.436   6.148 -0.3285  0.0560  0.0796
  617POPC   C3A 7399  10.720  12.648   6.282  0.0490  0.1678 -0.0084
  617POPC   C4A 7400  11.025  12.934   6.431  0.0955  0.2660  0.0151
  617POPC   C1B 7401  10.743  12.141   6.351 -0.1295  0.2173  0.2180
  617POPC   C2B 7402  10.993  12.393   6.658  0.0947  0.0646 -0.0003
  617POPC   C3B 7403  11.201  12.800   6.870 -0.1932 -0.2740 -0.0654
  617POPC   C4B 7404  11.458  13.214   6.909  0.0952  0.0398  0.2276
  618POPC   NC3 7405  14.637   8.465   5.513  0.0688  0.0177 -0.0452
  618POPC   PO4 7406  14.363   8.620   5.766  0.0013  0.3042  0.1054
  618POPC   GL1 7407  14.639   8.742   6.040 -0.0326 -0.1305 -0.1850
  618POPC   GL2 7408  14.513   8.983   6.054  0.2181  0.2815  0.1127
  618POPC   C1A 7409  14.768   8.636   6.467 -0.2653 -0.0108 -0.0931
  618POPC   D2A 7410  15.109   8.786   6.745  0.2303  0.1897  0.2164
  618POPC   C3A 7411  15.435   8.457   6.758 -0.0852 -0.1833  0.3661
  618POPC   C4A 7412  15.543   8.151   7.080 -0.2159  0.2494  0.0036
  618POPC   C1B 7413  14.569   9.104   6.525 -0.2912 -0.4442  0.0334
  618POPC   C2B 7414  14.647   9.413   6.806  0.2271  0.0054 -0.3387
  618POPC   C3B 7415  14.711   9.776   7.063  0.0329 -0.1251 -0.0901
  618POPC   C4B 7416  14.578  10.189   6.988  0.2041 -0.0815  0.0116
  619POPC   NC3 7417   3.934   3.256   5.530  0.1221 -0.0455 -0.0218
  619POPC   PO4 7418   3.959   3.654   5.529  0.0838  0.3801  0.1214
  619POPC   GL1 7419   3.768   3.781   5.847 -0.1635 -0.2425 -0.0769
  619POPC   GL2 7420   3.704   3.457   6.025  0.0459 -0.0612  0.1665
  619POPC   C1A 7421   3.850   3.885   6.291  0.0901 -0.2821  0.0780
  619POPC   D2A 7422   3.710   4.026   6.771 -0.1853 -0.0729  0.1450
  619POPC   C3A 7423   3.858   4.238   7.140  0.1887  0.0195 -0.1873
  619POPC   C4A 7424   4.243   4.461   7.165  0.0293  0.1765 -0.0123
  619POPC   C1B 7425   3.382   3.644   6.315  0.1341  0.0666 -0.1810
  619POPC   C2B 7426   3.367   3.601   6.763  0.0844  0.1198  0.0181
  619POPC   C3B 7427   3.576   3.595   7.160 -0.2732  0.1386 -0.0394
  619POPC   C4B 7428   3.868   3.755   7.507 -0.0458  0.4673 -0.3895
  620POPC   NC3 7429   2.280   2.089   4.700 -0.0341  0.0101 -0.1036
  620POPC   PO4 7430   1.955   2.282   4.729  0.0825  0.2526  0.0956
  620POPC   GL1 7431   1.925   2.070   5.050 -0.1982  0.3265  0.0967
  620POPC   GL2 7432   1.594   2.100   5.102 -0.0488 -0.2316 -0.1894
  620POPC   C1A 7433   2.246   1.933   5.335 -0.3203 -0.0910 -0.1309
  620POPC   D2A 7434   2.388   1.663   5.678  0.1606 -0.0989 -0.1505
  620POPC   C3A 7435   2.128   1.554   6.055  0.3084 -0.1712 -0.2062
  620POPC   C4A 7436   1.799   1.506   6.353 -0.2534  0.2390  0.0271
  620POPC   C1B 7437   1.359   1.786   5.335  0.0934 -0.0734  0.3296
  620POPC   C2B 7438   1.104   1.582   5.592  0.1076 -0.2138  0.1641
  620POPC   C3B 7439   1.018   1.162   5.644  0.2340  0.0512  0.1109
  620POPC   C4B 7440   1.069   0.684   5.807 -0.2262 -0.1268  0.0277
  621POPC   NC3 7441  11.437   2.860   5.835 -0.1847 -0.1892  0.1394
  621POPC   PO4 7442  11.770   2.997   5.976 -0.0389  0.0549  0.0375
  621POPC   GL1 7443  11.858   2.681   6.243  0.0788 -0.0263 -0.1809
  621POPC   GL2 7444  11.626   2.502   6.162 -0.1919 -0.3846  0.5149
  621POPC   C1A 7445  11.865   2.901   6.669 -0.0404 -0.1273  0.2311
  621POPC   D2A 7446  12.208   3.005   7.006  0.0728 -0.2530 -0.1372
  621POPC   C3A 7447  12.404   3.035   7.434 -0.0816  0.0399 -0.1642
  621POPC   C4A 7448  12.439   2.841   7.889 -0.1962  0.1372  0.2012
  621POPC   C1B 7449  11.823   2.095   6.300  0.0568  0.2836 -0.1615
  621POPC   C2B 7450  12.028   1.706   6.406  0.2511 -0.0755 -0.0668
  621POPC   C3B 7451  11.911   1.423   6.781 -0.0949 -0.2218 -0.2666
  621POPC   C4B 7452  11.873   1.535   7.257 -0.0781  0.2564 -0.1063
  622POPC   NC3 7453  11.674   7.933   7.460 -0.1477  0.0387  0.0952
  622POPC   PO4 7454  12.029   7.985   7.446  0.1270 -0.2053  0.0408
  622POPC   GL1 7455  12.197   8.112   7.751  0.1167  0.0045 -0.2339
  622POPC   GL2 7456  12.039   7.928   7.941  0.0518 -0.1024 -0.0165
  622POPC   C1A 7457  12.590   8.289   7.843 -0.1730 -0.1180 -0.1073
  622POPC   D2A 7458  13.013   8.331   7.638  0.1475 -0.2679 -0.0010
  622POPC   C3A 7459  13.425   8.334   7.825  0.1218 -0.2258 -0.0608
  622POPC   C4A 7460  13.797   8.559   7.998 -0.0644 -0.2963  0.0875
  622POPC   C1B 7461  12.451   7.961   8.167  0.0029  0.0412 -0.0568
  622POPC   C2B 7462  12.644   8.295   8.350  0.0161 -0.0678 -0.0431
  622POPC   C3B 7463  12.757   8.635   8.618  0.1525  0.0470 -0.1658
  622POPC   C4B 7464  12.699   8.886   9.032  0.1495  0.0251  0.1540
  623POPC   NC3 7465   2.976   9.843   5.107 -0.4206  0.1302 -0.0289
  623POPC   PO4 7466   3.132   9.483   4.923  0.1490  0.0430 -0.0969
  623POPC   GL1 7467   3.059   9.416   5.317  0.2032 -0.0521  0.2872
  623POPC   GL2 7468   2.888   9.138   5.308 -0.1080  0.0752  0.2030
  623POPC   C1A 7469   2.657   9.552   5.485  0.2411  0.1245  0.3706
  623POPC   D2A 7470   2.512   9.773   5.828  0.2144  0.2131  0.1113
  623POPC   C3A 7471   2.443   9.627   6.237 -0.0780 -0.2068  0.1142
  623POPC   C4A 7472   2.281   9.288   6.424 -0.0651  0.1511  0.1353
  623POPC   C1B 7473   2.757   8.890   5.622  0.1016  0.0483 -0.3051
  623POPC   C2B 7474   2.713   8.769   6.043  0.2471  0.1639 -0.1463
  623POPC   C3B 7475   2.513   8.843   6.424  0.1433 -0.1497 -0.2296
  623POPC   C4B 7476   2.162   8.840   6.716 -0.0955 -0.0210  0.1884
  624POPC   NC3 7477  11.036   6.563  10.799 -0.1127 -0.2142  0.0461
  624POPC   PO4 7478  10.719   6.737  10.941  0.4093  0.3119 -0.1195
  624POPC   GL1 7479  10.945   6.920  11.247 -0.2192 -0.1804  0.4174
  624POPC   GL2 7480  11.082   7.120  11.038  0.2222  0.1333  0.1245
  624POPC   C1A 7481  10.944   7.244  11.578  0.2008 -0.0714 -0.0338
  624POPC   D2A 7482  10.809   7.315  12.010  0.1897 -0.1382  0.0703
  624POPC   C3A 7483  11.084   7.290  12.360  0.2769  0.0294  0.0150
  624POPC   C4A 7484  11.460   7.544  12.522 -0.0315 -0.2315  0.3252
  624POPC   C1B 7485  11.047   7.624  11.025 -0.2862 -0.1218  0.1386
  624POPC   C2B 7486  10.752   7.943  10.952 -0.1732  0.2761 -0.0127
  624POPC   C3B 7487  10.565   7.988  10.585  0.1071 -0.3326  0.0579
  624POPC   C4B 7488  10.154   7.864  10.440 -0.0041  0.2291 -0.1068
  625POPC   NC3 7489   3.519   4.832   5.128  0.0887 -0.2060 -0.2069
  625POPC   PO4 7490   3.644   4.540   4.884 -0.0995 -0.0261  0.0482
  625POPC   GL1 7491   3.972   4.604   5.150 -0.0144 -0.2394 -0.5983
  625POPC   GL2 7492   3.814   4.493   5.360 -0.4036 -0.2523  0.1297
  625POPC   C1A 7493   3.957   4.964   5.424 -0.1028 -0.0999 -0.0642
  625POPC   D2A 7494   4.009   5.369   5.586  0.3112 -0.2140  0.0393
  625POPC   C3A 7495   3.978   5.290   6.037 -0.0166  0.2484 -0.2533
  625POPC   C4A 7496   4.119   5.507   6.443  0.2759  0.1007  0.0591
  625POPC   C1B 7497   3.716   4.511   5.789 -0.0472 -0.0910  0.2496
  625POPC   C2B 7498   3.472   4.474   6.175  0.0282  0.0067  0.0058
  625POPC   C3B 7499   3.330   4.551   6.611 -0.0743  0.0792 -0.1048
  625POPC   C4B 7500   2.958   4.515   6.851 -0.0037  0.0683  0.1200
  626POPC   NC3 7501   3.588  15.860   4.361 -0.3958 -0.2234  0.1878
  626POPC   PO4 7502   3.483  15.495   4.179  0.1412  0.0386 -0.0512
  626POPC   GL1 7503   3.629  15.363   4.406 -0.3453 -0.4655  0.0038
  626POPC   GL2 7504   3.759  15.182   4.485  0.5377  0.0375  0.2361
  626POPC   C1A 7505   3.686  15.500   4.857 -0.0319 -0.0622  0.3016
  626POPC   D2A 7506   3.557  15.591   5.308  0.1431 -0.1292  0.3011
  626POPC   C3A 7507   3.561  15.949   5.611  0.2093 -0.0480 -0.1588
  626POPC   C4A 7508   3.563  16.002   6.080  0.2058  0.0736  0.1702
  626POPC   C1B 7509   3.793  14.941   4.847 -0.0376  0.4631 -0.1252
  626POPC   C2B 7510   3.781  14.766   5.275  0.0029 -0.0033  0.0921
  626POPC   C3B 7511   3.983  14.432   5.507 -0.1177 -0.1496  0.0477
  626POPC   C4B 7512   4.144  14.009   5.358  0.4851  0.5443 -0.2726
  627POPC   NC3 7513   6.254   1.153   5.505  0.1380  0.3625  0.0560
  627POPC   PO4 7514   6.434   0.830   5.420 -0.2195  0.2823 -0.0600
  627POPC   GL1 7515   6.416   0.681   5.787 -0.0189  0.1032  0.1575
  627POPC   GL2 7516   6.557   0.442   5.814  0.1013  0.0488  0.1690
  627POPC   C1A 7517   6.527   0.740   6.247 -0.2282  0.2166 -0.0771
  627POPC   D2A 7518   6.283   1.023   6.522 -0.0404  0.0549 -0.3023
  627POPC   C3A 7519   5.980   0.784   6.793 -0.0554 -0.3222 -0.2198
  627POPC   C4A 7520   6.077   0.370   7.006  0.0698 -0.1093 -0.0846
  627POPC   C1B 7521   6.809   0.061   5.879  0.1446  0.2655 -0.1924
  627POPC   C2B 7522   6.906  -0.163   6.208  0.3207 -0.1027  0.0701
  627POPC   C3B 7523   6.551  -0.305   6.481 -0.1051  0.1777 -0.0880
  627POPC   C4B 7524   6.397  -0.790   6.570 -0.1738  0.0493  0.0959
  628POPC   NC3 7525  13.768  12.872   4.283  0.1111  0.0260  0.1759
  628POPC   PO4 7526  13.923  12.957   4.611  0.2255 -0.1532 -0.3768
  628POPC   GL1 7527  14.071  13.097   4.876  0.0939 -0.0885 -0.1322
  628POPC   GL2 7528  14.352  13.143   4.816  0.0758  0.4997 -0.0908
  628POPC   C1A 7529  13.892  13.148   5.308 -0.0625 -0.3025  0.2749
  628POPC   D2A 7530  13.911  13.139   5.757  0.1866 -0.3549  0.2782
  628POPC   C3A 7531  13.757  13.579   5.950  0.3707 -0.3694 -0.3418
  628POPC   C4A 7532  13.830  13.997   6.084 -0.1014  0.1021  0.1085
  628POPC   C1B 7533  14.384  13.369   5.259  0.1646 -0.1774  0.1095
  628POPC   C2B 7534  14.457  13.475   5.714  0.0292  0.4015  0.0266
  628POPC   C3B 7535  14.240  13.485   6.148 -0.0929  0.5174  0.2233
  628POPC   C4B 7536  14.108  13.664   6.562  0.0800  0.0836  0.1766
  629POPC   NC3 7537   0.375   8.382   5.529 -0.0597 -0.1987  0.1059
  629POPC   PO4 7538   0.126   8.119   5.456  0.2179  0.2174 -0.0586
  629POPC   GL1 7539   0.112   8.020   5.828  0.2588 -0.1805 -0.2775
  629POPC   GL2 7540  -0.211   8.095   5.818 -0.2295 -0.0275  0.4349
  629POPC   C1A 7541   0.282   7.795   6.158 -0.0343 -0.1887  0.2446
  629POPC   D2A 7542   0.722   7.716   6.370  0.2310 -0.0656 -0.0739
  629POPC   C3A 7543   1.136   7.819   6.192  0.1851  0.1341  0.2197
  629POPC   C4A 7544   1.326   7.552   5.897 -0.2391  0.0592 -0.1427
  629POPC   C1B 7545  -0.157   8.079   6.285  0.0733  0.0975  0.2135
  629POPC   C2B 7546  -0.187   8.289   6.703  0.0634  0.1456  0.1144
  629POPC   C3B 7547  -0.019   8.195   7.092  0.0710  0.0052 -0.4677
  629POPC   C4B 7548   0.274   7.876   7.306 -0.1714 -0.1236  0.2502
  630POPC   NC3 7549   9.500  15.095   4.356 -0.0787 -0.1721 -0.0062
  630POPC   PO4 7550   9.626  14.986   4.718  0.2497  0.4416 -0.2272
  630POPC   GL1 7551   9.662  14.770   5.072  0.1019 -0.3504 -0.1252
  630POPC   GL2 7552   9.929  14.915   5.194  0.3668 -0.2895 -0.2004
  630POPC   C1A 7553   9.727  14.522   5.476 -0.0140 -0.0612 -0.1573
  630POPC   D2A 7554  10.043  14.616   5.851  0.1650 -0.0838  0.1574
  630POPC   C3A 7555   9.970  14.705   6.282 -0.2210 -0.2561 -0.2152
  630POPC   C4A 7556   9.890  14.897   6.698 -0.1055  0.1250  0.0056
  630POPC   C1B 7557   9.621  15.014   5.465 -0.0205 -0.3188 -0.0237
  630POPC   C2B 7558   9.535  15.194   5.920  0.1817  0.0215 -0.2151
  630POPC   C3B 7559   9.266  15.178   6.294 -0.2370  0.0023  0.0707
  630POPC   C4B 7560   9.196  15.260   6.764 -0.1964 -0.3660 -0.0169
  631POPC   NC3 7561   6.671   6.326   6.909  0.0496  0.2262 -0.0372
  631POPC   PO4 7562   6.905   6.631   6.864 -0.1660  0.2917  0.1372
  631POPC   GL1 7563   6.590   6.758   6.956 -0.0896 -0.3841 -0.3682
  631POPC   GL2 7564   6.661   6.909   7.172  0.0577 -0.3137  0.2079
  631POPC   C1A 7565   6.342   6.577   7.307 -0.0767 -0.0789 -0.1571
  631POPC   D2A 7566   6.134   6.659   7.712  0.0146 -0.1794  0.1626
  631POPC   C3A 7567   5.718   6.827   7.673  0.1190 -0.1822  0.0004
  631POPC   C4A 7568   5.385   6.658   7.895 -0.1302 -0.1546  0.0473
  631POPC   C1B 7569   6.543   6.955   7.656 -0.0689  0.0446 -0.3787
  631POPC   C2B 7570   6.530   7.180   8.066  0.1916  0.0925  0.4010
  631POPC   C3B 7571   6.432   7.343   8.462  0.0700 -0.0211 -0.0796
  631POPC   C4B 7572   6.213   7.461   8.879  0.2130  0.3265  0.0728
  632POPC   NC3 7573  10.746   4.867   8.890 -0.2841  0.1261 -0.0700
  632POPC   PO4 7574  10.837   5.030   9.253 -0.1814 -0.2486  0.0464
  632POPC   GL1 7575  11.156   5.164   9.466  0.2717 -0.3735 -0.1779
  632POPC   GL2 7576  11.328   4.998   9.246  0.1216  0.1861  0.1301
  632POPC   C1A 7577  11.611   5.195   9.640 -0.0387  0.0188 -0.0452
  632POPC   D2A 7578  12.076   5.316   9.661 -0.1242  0.1718 -0.2469
  632POPC   C3A 7579  12.324   4.962   9.779  0.3327 -0.2688  0.1409
  632POPC   C4A 7580  12.708   4.835  10.033 -0.1486 -0.0826 -0.1982
  632POPC   C1B 7581  11.643   4.693   9.265  0.3310 -0.0387 -0.1410
  632POPC   C2B 7582  11.890   4.697   9.670 -0.2090 -0.0839  0.0069
  632POPC   C3B 7583  12.038   4.632  10.045 -0.1862  0.4567  0.0770
  632POPC   C4B 7584  11.914   4.599  10.452  0.0052  0.1301  0.1892
  633POPC   NC3 7585  10.560   1.913   6.124  0.1154  0.0773  0.0487
  633POPC   PO4 7586  10.689   1.583   5.984 -0.2030  0.0668 -0.1942
  633POPC   GL1 7587  11.073   1.575   6.091 -0.2114  0.1644  0.1626
  633POPC   GL2 7588  11.062   1.309   6.160  0.0514 -0.0518 -0.0619
  633POPC   C1A 7589  11.363   1.679   6.435  0.0759  0.3365 -0.2481
  633POPC   D2A 7590  11.679   1.838   6.717  0.1414 -0.2496 -0.0888
  633POPC   C3A 7591  11.347   1.718   7.027 -0.0821 -0.0848  0.0747
  633POPC   C4A 7592  10.890   1.535   7.102 -0.0834 -0.0169  0.1406
  633POPC   C1B 7593  10.808   1.133   6.478 -0.0313 -0.4502  0.0389
  633POPC   C2B 7594  10.691   0.798   6.795 -0.2392 -0.3074 -0.0815
  633POPC   C3B 7595  10.913   0.572   7.098  0.2388  0.0134 -0.2811
  633POPC   C4B 7596  10.779   0.441   7.504 -0.1618  0.2829  0.1592
  634POPC   NC3 7597   2.942  13.409   4.040 -0.1354  0.1666 -0.0606
  634POPC   PO4 7598   3.277  13.209   4.094 -0.0208  0.0813 -0.0410
  634POPC   GL1 7599   3.128  13.039   4.374 -0.1566 -0.2991 -0.3795
  634POPC   GL2 7600   2.898  12.958   4.208 -0.0863 -0.2309  0.2725
  634POPC   C1A 7601   2.971  12.736   4.667  0.2591 -0.2288  0.1845
  634POPC   D2A 7602   2.742  12.786   5.113 -0.0367  0.0332  0.1033
  634POPC   C3A 7603   2.984  12.691   5.460 -0.2415 -0.1147  0.0063
  634POPC   C4A 7604   2.957  12.869   5.865 -0.2180  0.1350  0.0972
  634POPC   C1B 7605   2.534  12.909   4.418 -0.0669  0.2355 -0.0026
  634POPC   C2B 7606   2.257  12.803   4.728 -0.1474 -0.2375 -0.0662
  634POPC   C3B 7607   2.229  12.861   5.186 -0.1188 -0.1879  0.0511
  634POPC   C4B 7608   2.516  12.854   5.567  0.2256 -0.1250 -0.1870
  635POPC   NC3 7609  17.351  12.509   4.182 -0.3117 -0.0141 -0.0951
  635POPC   PO4 7610  17.151  12.190   4.281 -0.1289  0.0749 -0.0486
  635POPC   GL1 7611  17.194  12.341   4.691 -0.0652  0.2001  0.1082
  635POPC   GL2 7612  17.371  12.570   4.665 -0.1474  0.4460  0.0561
  635POPC   C1A 7613  16.938  12.608   4.942  0.2284 -0.0799 -0.0527
  635POPC   D2A 7614  16.629  12.887   5.106 -0.1017  0.0904  0.1205
  635POPC   C3A 7615  16.534  12.953   5.537 -0.3042 -0.0471 -0.1024
  635POPC   C4A 7616  16.383  13.113   5.931 -0.1558  0.1137 -0.0361
  635POPC   C1B 7617  17.518  12.668   5.092 -0.1417 -0.1436 -0.1046
  635POPC   C2B 7618  17.469  12.833   5.561  0.0422 -0.4031 -0.1475
  635POPC   C3B 7619  17.778  12.725   5.886 -0.3847  0.1568  0.3416
  635POPC   C4B 7620  17.903  12.764   6.298  0.1695 -0.0860 -0.0239
  636POPC   NC3 7621   3.285   1.018   4.320 -0.0394  0.1989 -0.3055
  636POPC   PO4 7622   3.630   0.911   4.546  0.3387  0.4222  0.4060
  636POPC   GL1 7623   3.437   0.942   4.790 -0.0651  0.0964  0.0543
  636POPC   GL2 7624   3.599   1.149   4.997  0.4777 -0.1728  0.1464
  636POPC   C1A 7625   3.157   1.110   5.168  0.1929 -0.0572 -0.1719
  636POPC   D2A 7626   3.049   1.472   5.472  0.0856  0.0588  0.0560
  636POPC   C3A 7627   3.003   1.441   5.953  0.0525  0.2249 -0.0397
  636POPC   C4A 7628   2.735   1.574   6.367 -0.0554  0.0061  0.0079
  636POPC   C1B 7629   3.590   1.387   5.424 -0.0575  0.0987  0.0494
  636POPC   C2B 7630   3.458   1.412   5.830 -0.1143  0.0999  0.0007
  636POPC   C3B 7631   3.421   1.542   6.252  0.1811  0.3036 -0.2603
  636POPC   C4B 7632   3.277   1.713   6.668 -0.0482 -0.2724 -0.1565
  637POPC   NC3 7633   6.266   4.140   5.750 -0.1473  0.3495 -0.1417
  637POPC   PO4 7634   6.463   3.947   6.054  0.1220  0.1616  0.2280
  637POPC   GL1 7635   6.229   3.771   6.361 -0.2024  0.3823  0.2878
  637POPC   GL2 7636   6.067   3.983   6.528 -0.1029  0.1328  0.0489
  637POPC   C1A 7637   6.284   3.609   6.773  0.0494  0.3197  0.0144
  637POPC   D2A 7638   6.339   3.165   6.906  0.2928 -0.1124  0.1274
  637POPC   C3A 7639   6.149   3.151   7.331 -0.2321 -0.2143 -0.0250
  637POPC   C4A 7640   6.136   2.991   7.778 -0.0728  0.1323 -0.1916
  637POPC   C1B 7641   6.012   3.961   6.979 -0.3702 -0.2556  0.4756
  637POPC   C2B 7642   5.911   3.642   7.268  0.0119  0.1720  0.0421
  637POPC   C3B 7643   6.117   3.507   7.652 -0.1531 -0.0005  0.0231
  637POPC   C4B 7644   6.045   3.596   8.102  0.1739  0.2333  0.0363
  638POPC   NC3 7645  11.458   4.578   6.730 -0.0967  0.0215  0.2677
  638POPC   PO4 7646  11.694   4.267   6.643  0.0401  0.1715  0.4349
  638POPC   GL1 7647  11.861   4.034   6.835  0.3764  0.2520  0.4076
  638POPC   GL2 7648  11.758   3.838   6.947  0.0739 -0.1321  0.0453
  638POPC   C1A 7649  12.229   3.809   6.999 -0.1145  0.1522  0.0197
  638POPC   D2A 7650  12.369   3.476   7.289  0.2532 -0.1223 -0.2604
  638POPC   C3A 7651  12.435   3.565   7.769  0.0755 -0.2502  0.1576
  638POPC   C4A 7652  12.764   3.652   8.050  0.1359 -0.0284 -0.0636
  638POPC   C1B 7653  11.785   3.486   7.235 -0.1339  0.0476 -0.0778
  638POPC   C2B 7654  11.909   3.101   7.374  0.1141 -0.0193  0.2048
  638POPC   C3B 7655  11.938   2.800   7.713 -0.1235  0.3386  0.1724
  638POPC   C4B 7656  12.050   2.845   8.191 -0.2791  0.0057 -0.3248
  639POPC   NC3 7657  12.780  10.434   5.680 -0.0185 -0.0798 -0.3633
  639POPC   PO4 7658  12.559  10.704   5.519 -0.3354 -0.0551 -0.0882
  639POPC   GL1 7659  12.489  10.896   5.888  0.2938  0.1489 -0.4166
  639POPC   GL2 7660  12.289  10.880   6.108 -0.2600  0.0777 -0.2272
  639POPC   C1A 7661  12.783  11.249   5.965 -0.1732 -0.1767 -0.0095
  639POPC   D2A 7662  13.212  11.426   5.951 -0.3173  0.1997  0.2742
  639POPC   C3A 7663  13.469  11.804   6.062 -0.1976 -0.1376 -0.0310
  639POPC   C4A 7664  13.842  12.041   6.215  0.0761 -0.2320  0.3816
  639POPC   C1B 7665  12.427  11.297   6.273  0.0818  0.2460 -0.3367
  639POPC   C2B 7666  12.389  11.691   6.506  0.1398 -0.1029 -0.0199
  639POPC   C3B 7667  12.333  12.169   6.509 -0.0038  0.2484 -0.1275
  639POPC   C4B 7668  12.256  12.630   6.498 -0.0608  0.1754  0.2362
  640POPC   NC3 7669   9.656  10.692   6.264  0.1600  0.0911  0.0423
  640POPC   PO4 7670   9.941  10.592   6.543  0.0212 -0.0118  0.0131
  640POPC   GL1 7671  10.026  10.622   6.911  0.0772 -0.2214 -0.1242
  640POPC   GL2 7672  10.046  10.306   6.912  0.0175 -0.3101 -0.2828
  640POPC   C1A 7673   9.879  11.031   7.057 -0.1788 -0.0119  0.1138
  640POPC   D2A 7674   9.983  11.473   7.223 -0.1717 -0.1035 -0.0201
  640POPC   C3A 7675   9.839  11.707   7.621  0.1796 -0.2246  0.1406
  640POPC   C4A 7676   9.698  11.540   8.019  0.3323 -0.0644  0.2840
  640POPC   C1B 7677   9.721  10.242   7.247  0.5435 -0.2027 -0.0313
  640POPC   C2B 7678   9.463  10.340   7.608 -0.0747 -0.0358 -0.0801
  640POPC   C3B 7679   9.153  10.616   7.924 -0.0342 -0.4150  0.2649
  640POPC   C4B 7680   8.961  11.006   8.073  0.3442  0.2130 -0.0972
  641POPC   NC3 7681   8.703  16.724   4.670  0.0691  0.3715  0.1347
  641POPC   PO4 7682   8.753  16.526   5.013 -0.1568 -0.0551  0.2817
  641POPC   GL1 7683   8.730  16.221   5.312 -0.2045  0.3307  0.0408
  641POPC   GL2 7684   9.051  16.203   5.345  0.2354 -0.0946 -0.0600
  641POPC   C1A 7685   8.509  15.862   5.494 -0.2245 -0.0706  0.0304
  641POPC   D2A 7686   8.098  15.937   5.586 -0.0091  0.2575 -0.4418
  641POPC   C3A 7687   8.085  16.090   6.007 -0.0522 -0.0252 -0.1359
  641POPC   C4A 7688   8.059  15.883   6.465 -0.1507  0.0293 -0.2054
  641POPC   C1B 7689   8.819  16.230   5.745  0.3423  0.1751  0.1790
  641POPC   C2B 7690   8.514  16.505   6.027 -0.2384 -0.2597 -0.2247
  641POPC   C3B 7691   8.603  16.710   6.422 -0.1982 -0.0096  0.2355
  641POPC   C4B 7692   8.435  16.576   6.800  0.0314 -0.0249 -0.2278
  642POPC   NC3 7693   9.143   7.008  11.484 -0.1303 -0.0492 -0.0767
  642POPC   PO4 7694   9.408   6.723  11.448 -0.0532  0.0935  0.2967
  642POPC   GL1 7695   9.562   7.093  11.639  0.0456 -0.1089 -0.0300
  642POPC   GL2 7696   9.742   7.205  11.520 -0.1561  0.1837  0.1444
  642POPC   C1A 7697   9.225   7.359  11.809 -0.0380  0.3480 -0.0060
  642POPC   D2A 7698   8.752   7.443  11.916 -0.0267  0.2588 -0.1634
  642POPC   C3A 7699   8.425   7.741  11.694 -0.2037 -0.1939 -0.1556
  642POPC   C4A 7700   8.212   7.972  11.328 -0.1399 -0.2702  0.1068
  642POPC   C1B 7701   9.883   7.659  11.530 -0.1025  0.2761 -0.1583
  642POPC   C2B 7702   9.604   8.038  11.564  0.3602 -0.2735 -0.0039
  642POPC   C3B 7703   9.274   8.373  11.660 -0.1014  0.0604 -0.2401
  642POPC   C4B 7704   9.291   8.836  11.727  0.2628 -0.2639  0.0852
  643POPC   NC3 7705   9.968  14.345   5.077  0.2430  0.1368  0.1240
  643POPC   PO4 7706   9.945  13.979   4.926 -0.0850  0.2025 -0.0149
  643POPC   GL1 7707  10.155  13.786   5.294 -0.0532  0.1737 -0.3838
  643POPC   GL2 7708  10.384  13.831   5.509  0.3921  0.0270  0.1784
  643POPC   C1A 7709   9.860  13.748   5.631  0.2560  0.1049  0.1324
  643POPC   D2A 7710   9.628  13.623   6.014  0.1023 -0.2042 -0.0864
  643POPC   C3A 7711   9.796  13.734   6.442 -0.5212  0.1201 -0.1923
  643POPC   C4A 7712   9.770  13.864   6.843 -0.2844 -0.1123 -0.0445
  643POPC   C1B 7713  10.591  13.740   5.947  0.1812  0.2171 -0.0327
  643POPC   C2B 7714  11.006  13.678   6.055 -0.1154  0.0275 -0.2871
  643POPC   C3B 7715  11.190  13.489   6.432 -0.2359  0.3352  0.2423
  643POPC   C4B 7716  10.989  13.493   6.826  0.0060 -0.0502  0.3540
  644POPC   NC3 7717   7.744   9.704   5.958  0.0073 -0.0120 -0.1096
  644POPC   PO4 7718   8.068   9.874   6.020 -0.2869  0.0178  0.2025
  644POPC   GL1 7719   7.745  10.060   6.304 -0.0267 -0.0096 -0.2896
  644POPC   GL2 7720   7.949  10.256   6.384 -0.1550 -0.1218  0.0949
  644POPC   C1A 7721   7.597  10.078   6.739 -0.3602 -0.1678 -0.2871
  644POPC   D2A 7722   7.484  10.036   7.212  0.1099 -0.0533 -0.1888
  644POPC   C3A 7723   7.501  10.145   7.643  0.0809 -0.2343  0.0564
  644POPC   C4A 7724   7.487  10.277   8.069 -0.0601  0.1904  0.1508
  644POPC   C1B 7725   8.174  10.528   6.641 -0.0090  0.1049  0.3394
  644POPC   C2B 7726   8.338  10.934   6.830  0.2428 -0.1312 -0.0810
  644POPC   C3B 7727   8.475  11.265   7.098 -0.1279  0.1588  0.0054
  644POPC   C4B 7728   8.657  11.610   6.839  0.0869 -0.0017 -0.1756
  645POPC   NC3 7729  13.444   7.423   6.131 -0.1410 -0.0210 -0.0745
  645POPC   PO4 7730  13.730   7.578   6.376 -0.0254 -0.3184  0.0576
  645POPC   GL1 7731  13.730   7.623   6.750  0.2775 -0.1286 -0.0938
  645POPC   GL2 7732  13.919   7.395   6.855 -0.0031 -0.0166  0.3025
  645POPC   C1A 7733  13.862   7.800   7.145 -0.2282 -0.2113  0.3195
  645POPC   D2A 7734  13.869   7.780   7.653 -0.5796 -0.1401  0.3979
  645POPC   C3A 7735  13.934   8.083   7.976  0.1568  0.0012 -0.0550
  645POPC   C4A 7736  14.148   8.079   8.381  0.1448  0.1192 -0.2864
  645POPC   C1B 7737  14.256   7.438   7.115 -0.0561 -0.1670 -0.0373
  645POPC   C2B 7738  14.553   7.583   7.407 -0.0097 -0.2226 -0.1984
  645POPC   C3B 7739  14.890   7.723   7.714  0.1289  0.0852  0.1193
  645POPC   C4B 7740  15.234   7.471   7.878 -0.1287  0.1237  0.2789
  646POPC   NC3 7741   0.602   4.131   5.666 -0.1587  0.2139 -0.2326
  646POPC   PO4 7742   0.824   4.385   5.404  0.0576 -0.2620  0.0128
  646POPC   GL1 7743   1.052   4.034   5.600  0.2500  0.1798 -0.1094
  646POPC   GL2 7744   1.214   4.177   5.713  0.1812 -0.2541  0.2228
  646POPC   C1A 7745   0.900   3.992   6.085  0.1429 -0.1625  0.2293
  646POPC   D2A 7746   1.017   4.168   6.516 -0.0226 -0.2563  0.0527
  646POPC   C3A 7747   0.954   3.881   6.843  0.1727 -0.0423 -0.0077
  646POPC   C4A 7748   0.652   3.743   7.189  0.0631  0.1099 -0.1008
  646POPC   C1B 7749   1.431   3.782   5.710 -0.0369  0.0529  0.1287
  646POPC   C2B 7750   1.592   3.508   6.015 -0.0681 -0.0029 -0.0360
  646POPC   C3B 7751   1.726   3.515   6.408  0.0053  0.0455  0.3642
  646POPC   C4B 7752   1.914   3.498   6.825 -0.0023 -0.1253  0.0907
  647POPC   NC3 7753  16.426  15.088   4.067  0.2136 -0.1900 -0.3655
  647POPC   PO4 7754  16.782  14.935   3.959 -0.1042 -0.0596 -0.0389
  647POPC   GL1 7755  16.920  14.891   4.259  0.1153  0.0580 -0.1443
  647POPC   GL2 7756  17.021  15.170   4.449  0.0122  0.0521  0.2978
  647POPC   C1A 7757  16.816  14.839   4.690 -0.3455  0.0294 -0.0941
  647POPC   D2A 7758  16.612  14.891   5.075 -0.0405 -0.1364  0.0878
  647POPC   C3A 7759  16.537  15.292   5.216 -0.0224 -0.3921 -0.2189
  647POPC   C4A 7760  16.499  15.341   5.662 -0.1278 -0.0006 -0.2706
  647POPC   C1B 7761  16.778  15.363   4.788 -0.2668  0.1224  0.2392
  647POPC   C2B 7762  16.827  15.725   5.044  0.1831  0.1114 -0.0446
  647POPC   C3B 7763  16.678  16.188   5.063 -0.0470  0.1209  0.1993
  647POPC   C4B 7764  16.766  16.548   4.755  0.0663  0.3560  0.2707
  648POPC   NC3 7765   2.995  14.678   3.533 -0.1878  0.2584 -0.0134
  648POPC   PO4 7766   3.113  14.669   3.903  0.0092 -0.0177  0.1624
  648POPC   GL1 7767   2.798  14.524   4.209  0.3130  0.0054 -0.3258
  648POPC   GL2 7768   2.857  14.768   4.354 -0.3459  0.0352  0.0019
  648POPC   C1A 7769   3.056  14.288   4.507  0.2153  0.1341  0.2829
  648POPC   D2A 7770   3.358  13.986   4.713  0.0597 -0.2263  0.1151
  648POPC   C3A 7771   3.309  13.964   5.206 -0.0869  0.0626 -0.0091
  648POPC   C4A 7772   3.221  14.046   5.662  0.0286 -0.0355  0.1807
  648POPC   C1B 7773   2.977  14.715   4.814 -0.1049  0.1881 -0.0900
  648POPC   C2B 7774   2.864  14.990   5.110  0.1751  0.0046 -0.2578
  648POPC   C3B 7775   2.600  15.127   5.484  0.0891 -0.0164  0.1482
  648POPC   C4B 7776   2.463  15.513   5.695  0.0170  0.1016  0.2313
  649POPC   NC3 7777   9.106   8.106   8.271  0.2089 -0.0559  0.3340
  649POPC   PO4 7778   8.821   7.955   8.132 -0.2212  0.2114  0.1297
  649POPC   GL1 7779   8.760   8.090   8.527  0.1682 -0.2001  0.0786
  649POPC   GL2 7780   8.518   7.898   8.692 -0.0605  0.0518 -0.1166
  649POPC   C1A 7781   8.864   8.516   8.632 -0.2662  0.3319  0.3049
  649POPC   D2A 7782   8.878   8.872   8.938  0.1276 -0.2897 -0.0652
  649POPC   C3A 7783   8.521   9.053   9.173 -0.2053 -0.4709  0.2615
  649POPC   C4A 7784   8.159   8.975   9.438 -0.0721 -0.0491 -0.0934
  649POPC   C1B 7785   8.525   8.115   9.089  0.0702  0.2494 -0.1416
  649POPC   C2B 7786   8.614   8.513   9.323 -0.1086 -0.0566  0.3394
  649POPC   C3B 7787   8.723   8.894   9.598 -0.0426 -0.0129  0.0686
  649POPC   C4B 7788   8.771   9.196   9.886 -0.2260 -0.0371 -0.0596
  650POPC   NC3 7789   8.385   5.728   9.615 -0.0718 -0.0579 -0.2049
  650POPC   PO4 7790   8.615   5.499   9.754  0.3379  0.0458 -0.2350
  650POPC   GL1 7791   8.483   5.123   9.590  0.2015 -0.1922 -0.0110
  650POPC   GL2 7792   8.252   5.294   9.426  0.0761 -0.0409 -0.2184
  650POPC   C1A 7793   8.515   4.675   9.691 -0.1233 -0.0481 -0.0533
  650POPC   D2A 7794   8.578   4.294   9.976  0.4281  0.2176  0.0494
  650POPC   C3A 7795   8.707   3.830   9.846 -0.1789 -0.1186 -0.2295
  650POPC   C4A 7796   8.508   3.753   9.475  0.2437  0.0597 -0.2697
  650POPC   C1B 7797   7.866   5.190   9.645 -0.1157 -0.0719 -0.1223
  650POPC   C2B 7798   7.480   4.961   9.598  0.2923 -0.1342 -0.3242
  650POPC   C3B 7799   7.194   4.697   9.838  0.0982 -0.1311 -0.3093
  650POPC   C4B 7800   7.014   4.625  10.274 -0.0681 -0.0037  0.0393
  651POPC   NC3 7801   4.773   2.002   4.966  0.1847 -0.1714  0.0314
  651POPC   PO4 7802   4.605   1.658   5.134 -0.2182 -0.1358  0.0538
  651POPC   GL1 7803   4.652   1.542   5.498  0.1368 -0.1555  0.1501
  651POPC   GL2 7804   4.950   1.442   5.526 -0.0482  0.4286 -0.0636
  651POPC   C1A 7805   4.745   1.761   5.931  0.2101  0.2914  0.1312
  651POPC   D2A 7806   4.693   2.013   6.278 -0.0272  0.0446  0.1474
  651POPC   C3A 7807   4.608   2.085   6.754 -0.1945 -0.1021  0.4215
  651POPC   C4A 7808   4.645   2.075   7.225  0.1066 -0.1132 -0.1261
  651POPC   C1B 7809   4.842   1.090   5.781  0.4496  0.1351  0.2513
  651POPC   C2B 7810   4.560   1.064   6.150  0.4120 -0.1024  0.0275
  651POPC   C3B 7811   4.366   1.024   6.576 -0.1720 -0.0042  0.0993
  651POPC   C4B 7812   4.118   1.220   6.908 -0.1900  0.0411  0.0544
  652POPC   NC3 7813   8.505   8.010   7.662 -0.1769  0.1577  0.1058
  652POPC   PO4 7814   8.776   8.267   7.729  0.1845 -0.3619  0.0758
  652POPC   GL1 7815   8.763   8.478   8.064  0.1723 -0.0089  0.2331
  652POPC   GL2 7816   8.466   8.325   8.100 -0.1643  0.1489 -0.1986
  652POPC   C1A 7817   8.557   8.802   8.343  0.0474 -0.2161  0.3318
  652POPC   D2A 7818   8.449   9.097   8.633 -0.1867 -0.0780 -0.0972
  652POPC   C3A 7819   8.130   9.505   8.697  0.0202 -0.0475  0.3105
  652POPC   C4A 7820   8.043  10.000   8.733 -0.0246  0.0654  0.3171
  652POPC   C1B 7821   8.361   8.341   8.565 -0.1910  0.0213  0.0471
  652POPC   C2B 7822   8.222   8.507   8.956 -0.2360 -0.2566  0.1129
  652POPC   C3B 7823   8.040   8.511   9.406 -0.0205 -0.0850 -0.1713
  652POPC   C4B 7824   7.834   8.715   9.769 -0.0706  0.1554 -0.0100
  653POPC   NC3 7825   8.087   7.050   8.691 -0.0387 -0.2182 -0.2290
  653POPC   PO4 7826   8.153   7.225   8.387  0.3434 -0.3225  0.1826
  653POPC   GL1 7827   8.063   7.542   8.648  0.1589 -0.2262 -0.0451
  653POPC   GL2 7828   7.839   7.615   8.517  0.1384 -0.0243 -0.0174
  653POPC   C1A 7829   7.810   7.502   9.048 -0.5581  0.0799 -0.1276
  653POPC   D2A 7830   7.410   7.522   9.154  0.2990 -0.0386 -0.2103
  653POPC   C3A 7831   7.125   7.861   9.200  0.1166 -0.0911  0.0157
  653POPC   C4A 7832   7.030   8.281   9.460 -0.0273 -0.3037  0.0617
  653POPC   C1B 7833   7.621   7.955   8.759  0.0123  0.1494 -0.1375
  653POPC   C2B 7834   7.375   8.269   8.992  0.0614 -0.0213 -0.0057
  653POPC   C3B 7835   7.112   8.604   9.113 -0.0038 -0.0719  0.1159
  653POPC   C4B 7836   7.084   8.934   9.426  0.0396  0.0628  0.0134
  654POPC   NC3 7837  12.862   0.711   4.778 -0.0261 -0.2561 -0.0252
  654POPC   PO4 7838  13.058   0.789   5.131  0.3081  0.2044  0.0294
  654POPC   GL1 7839  13.407   0.969   5.279  0.3086 -0.2748  0.1583
  654POPC   GL2 7840  13.358   1.248   5.412 -0.2921  0.0256  0.1309
  654POPC   C1A 7841  13.779   0.830   5.538 -0.0282 -0.3050  0.1763
  654POPC   D2A 7842  13.819   0.664   5.955  0.0162 -0.6306  0.1708
  654POPC   C3A 7843  14.106   0.945   6.206  0.0018  0.0089  0.2315
  654POPC   C4A 7844  14.270   1.063   6.638  0.1253  0.3805 -0.0352
  654POPC   C1B 7845  13.254   1.068   5.828  0.2749 -0.0976 -0.0550
  654POPC   C2B 7846  13.133   0.878   6.270  0.1483  0.0167 -0.2561
  654POPC   C3B 7847  13.403   0.927   6.669  0.0168  0.0622 -0.0673
  654POPC   C4B 7848  13.781   1.059   6.933  0.0563 -0.3275  0.0678
  655POPC   NC3 7849   3.802  14.724   4.254 -0.2282 -0.3406 -0.3903
  655POPC   PO4 7850   4.185  14.917   4.253  0.4058  0.0127  0.1329
  655POPC   GL1 7851   4.149  14.804   4.620 -0.4941  0.0654 -0.1326
  655POPC   GL2 7852   4.423  14.894   4.749 -0.0167  0.1103  0.0267
  655POPC   C1A 7853   4.270  14.586   5.055  0.0730 -0.0125 -0.0382
  655POPC   D2A 7854   4.497  14.323   5.283 -0.0441 -0.2540 -0.3124
  655POPC   C3A 7855   4.501  14.228   5.733 -0.2129  0.2012 -0.1209
  655POPC   C4A 7856   4.146  13.985   5.833  0.1402  0.1770 -0.1799
  655POPC   C1B 7857   4.253  15.151   5.124  0.0526 -0.1067 -0.1338
  655POPC   C2B 7858   4.052  15.107   5.528  0.0075  0.1275  0.0002
  655POPC   C3B 7859   4.168  14.772   5.808  0.2844 -0.1224  0.2855
  655POPC   C4B 7860   4.545  14.615   6.003  0.3461 -0.1453 -0.3864
  656POPC   NC3 7861  12.926   1.260   5.025  0.0886  0.5370  0.3905
  656POPC   PO4 7862  12.874   1.685   5.009  0.0844 -0.0928  0.0117
  656POPC   GL1 7863  12.817   1.504   5.383 -0.0567 -0.0883 -0.0861
  656POPC   GL2 7864  13.062   1.667   5.483  0.0517 -0.0597 -0.0043
  656POPC   C1A 7865  12.812   1.482   5.820  0.4403  0.2622  0.0320
  656POPC   D2A 7866  12.807   1.242   6.255 -0.2839 -0.1488 -0.1014
  656POPC   C3A 7867  12.800   0.942   6.602  0.2350  0.0760  0.0127
  656POPC   C4A 7868  12.969   0.796   6.970 -0.0699  0.1017  0.0497
  656POPC   C1B 7869  13.359   1.562   5.812  0.1911  0.0429  0.0032
  656POPC   C2B 7870  13.258   1.511   6.262 -0.2127 -0.0203 -0.0240
  656POPC   C3B 7871  13.044   1.383   6.646 -0.1333 -0.1622  0.3272
  656POPC   C4B 7872  12.783   1.305   6.979  0.1302 -0.0557 -0.1833
  657POPC   NC3 7873   1.021   8.233   4.971  0.3508  0.2376  0.3576
  657POPC   PO4 7874   1.213   7.877   5.039  0.1528 -0.0715  0.1176
  657POPC   GL1 7875   1.035   8.001   5.391 -0.2999 -0.0205  0.3760
  657POPC   GL2 7876   1.006   7.778   5.593 -0.0494  0.1159  0.0509
  657POPC   C1A 7877   0.892   8.325   5.623 -0.0306 -0.0589  0.1532
  657POPC   D2A 7878   1.140   8.616   5.903  0.0795  0.1918  0.3695
  657POPC   C3A 7879   1.080   8.683   6.348 -0.0754 -0.0392 -0.5427
  657POPC   C4A 7880   0.763   8.694   6.711  0.1175 -0.3963  0.1297
  657POPC   C1B 7881   1.381   8.081   5.813 -0.1865  0.2710  0.2402
  657POPC   C2B 7882   1.378   8.308   6.209  0.2177  0.0817  0.3257
  657POPC   C3B 7883   1.400   8.477   6.647  0.0420  0.0831 -0.0875
  657POPC   C4B 7884   1.692   8.696   6.970  0.1013  0.0790 -0.4710
  658POPC   NC3 7885  10.620   2.608   6.531 -0.2494 -0.1799 -0.1099
  658POPC   PO4 7886  10.673   2.349   6.200 -0.2637 -0.0288 -0.2379
  658POPC   GL1 7887  10.815   2.099   6.448 -0.0112 -0.1828  0.3346
  658POPC   GL2 7888  10.609   2.079   6.635 -0.1187 -0.2074 -0.3995
  658POPC   C1A 7889  10.893   1.669   6.624 -0.1906  0.0457 -0.1034
  658POPC   D2A 7890  11.214   1.289   6.758  0.0862  0.1261 -0.1470
  658POPC   C3A 7891  11.079   1.037   7.142 -0.0382 -0.2650  0.1140
  658POPC   C4A 7892  10.681   0.991   7.368  0.2639  0.1474  0.3099
  658POPC   C1B 7893  10.880   2.029   6.962  0.1409  0.2139 -0.2387
  658POPC   C2B 7894  11.019   2.005   7.396 -0.1083 -0.0839  0.3778
  658POPC   C3B 7895  10.994   1.797   7.792 -0.0605 -0.1093 -0.0124
  658POPC   C4B 7896  10.919   1.468   8.104  0.2697 -0.0021 -0.0152
  659POPC   NC3 7897   2.824   6.756   5.515  0.1060 -0.4420 -0.0559
  659POPC   PO4 7898   2.794   6.420   5.713 -0.2449 -0.0243  0.2896
  659POPC   GL1 7899   2.788   6.767   5.979 -0.2814  0.1440  0.0448
  659POPC   GL2 7900   2.836   6.575   6.210 -0.3526  0.0707 -0.2708
  659POPC   C1A 7901   2.594   7.127   6.226  0.0169 -0.1131 -0.1371
  659POPC   D2A 7902   2.303   7.159   6.613 -0.1170 -0.1095  0.5912
  659POPC   C3A 7903   2.177   7.526   6.819  0.2989 -0.1769  0.0440
  659POPC   C4A 7904   1.993   7.900   6.967 -0.1322  0.1556  0.3680
  659POPC   C1B 7905   2.698   6.784   6.578 -0.1994 -0.1792  0.0315
  659POPC   C2B 7906   2.768   7.014   6.983 -0.3368 -0.0029  0.2270
  659POPC   C3B 7907   2.502   7.375   7.136  0.1875 -0.1190  0.3968
  659POPC   C4B 7908   2.329   7.774   7.288  0.1249  0.1763 -0.1138
  660POPC   NC3 7909   3.545   7.156   5.362 -0.0509 -0.0567 -0.1587
  660POPC   PO4 7910   3.240   6.896   5.251 -0.0047 -0.2334  0.0034
  660POPC   GL1 7911   3.360   6.832   5.623  0.2050 -0.3292  0.4353
  660POPC   GL2 7912   3.224   6.617   5.888 -0.0165 -0.1106 -0.0423
  660POPC   C1A 7913   3.647   6.913   5.984  0.0483 -0.0775 -0.2050
  660POPC   D2A 7914   3.638   7.027   6.468  0.2501 -0.1458  0.1587
  660POPC   C3A 7915   3.654   7.416   6.741 -0.0482 -0.1159 -0.0110
  660POPC   C4A 7916   3.445   7.826   6.855  0.1632  0.2546  0.1295
  660POPC   C1B 7917   3.170   6.986   6.182  0.0371 -0.1736 -0.4526
  660POPC   C2B 7918   3.094   7.209   6.604  0.1074 -0.2713  0.1837
  660POPC   C3B 7919   3.041   7.525   6.928 -0.3328  0.2283 -0.2120
  660POPC   C4B 7920   2.889   7.774   7.280 -0.0589 -0.0320  0.0424
  661POPC   NC3 7921   9.752   9.114   7.267  0.0969  0.1536 -0.3199
  661POPC   PO4 7922   9.395   9.215   7.237 -0.0196  0.0782 -0.0622
  661POPC   GL1 7923   9.169   9.364   7.598 -0.3398 -0.0688  0.1800
  661POPC   GL2 7924   8.885   9.294   7.539 -0.2286  0.2063  0.0367
  661POPC   C1A 7925   9.232   9.353   8.098 -0.1303 -0.1763 -0.0160
  661POPC   D2A 7926   9.476   9.523   8.437 -0.0360 -0.0408  0.0042
  661POPC   C3A 7927   9.657   9.859   8.685 -0.1102  0.1170 -0.0179
  661POPC   C4A 7928  10.121   9.993   8.735  0.0990 -0.1243  0.0426
  661POPC   C1B 7929   8.853   9.640   7.797  0.1002 -0.3966 -0.0640
  661POPC   C2B 7930   8.921   9.781   8.226 -0.0325 -0.2948  0.0573
  661POPC   C3B 7931   8.894  10.116   8.535  0.1003  0.3164  0.0809
  661POPC   C4B 7932   8.872  10.047   9.007  0.0906 -0.3545 -0.2200
  662POPC   NC3 7933  11.652  11.353   5.465  0.2432  0.1308  0.0679
  662POPC   PO4 7934  11.865  11.018   5.540  0.0099  0.2802 -0.1723
  662POPC   GL1 7935  11.996  11.405   5.744  0.0250  0.1873 -0.2041
  662POPC   GL2 7936  12.281  11.383   5.748  0.1926 -0.1014  0.2000
  662POPC   C1A 7937  11.966  11.536   6.201 -0.2322  0.0070 -0.1377
  662POPC   D2A 7938  11.940  11.922   6.402 -0.3489 -0.1388  0.3033
  662POPC   C3A 7939  11.987  11.832   6.845  0.2084 -0.4622 -0.0181
  662POPC   C4A 7940  11.770  11.847   7.255  0.0699 -0.0630  0.2277
  662POPC   C1B 7941  12.636  11.656   5.599 -0.3478  0.1625 -0.0189
  662POPC   C2B 7942  13.005  11.831   5.839  0.2712 -0.1042  0.1465
  662POPC   C3B 7943  13.092  12.163   6.184 -0.0095 -0.0177 -0.1653
  662POPC   C4B 7944  12.898  12.481   6.414 -0.1509 -0.0014 -0.1301
  663POPC   NC3 7945  12.378  13.753   4.444  0.1401  0.2846  0.0142
  663POPC   PO4 7946  12.749  13.730   4.553 -0.1940  0.1035 -0.0340
  663POPC   GL1 7947  12.805  14.057   4.812  0.1918 -0.3556  0.1046
  663POPC   GL2 7948  13.038  14.201   4.910 -0.1018  0.0018  0.2571
  663POPC   C1A 7949  12.696  14.077   5.274 -0.1483  0.1528 -0.0798
  663POPC   D2A 7950  12.951  13.788   5.582  0.1565 -0.0747 -0.2932
  663POPC   C3A 7951  12.974  13.931   6.037 -0.3765 -0.0704  0.4761
  663POPC   C4A 7952  12.844  13.849   6.476 -0.1200 -0.1861  0.0987
  663POPC   C1B 7953  12.940  14.511   5.173 -0.1409 -0.2923  0.3895
  663POPC   C2B 7954  12.758  14.737   5.506  0.0370 -0.1403  0.0814
  663POPC   C3B 7955  12.525  14.710   5.923 -0.0963 -0.0544  0.1476
  663POPC   C4B 7956  12.318  14.610   6.289  0.3023 -0.0911  0.0226
  664POPC   NC3 7957   8.557   9.187   6.976  0.3857 -0.0080  0.1371
  664POPC   PO4 7958   8.403   8.927   7.259 -0.0267 -0.0679 -0.0316
  664POPC   GL1 7959   8.080   8.810   7.458  0.1865 -0.0227 -0.1543
  664POPC   GL2 7960   7.866   8.614   7.315  0.1298 -0.3083  0.2232
  664POPC   C1A 7961   7.845   8.979   7.803  0.6306  0.0588 -0.1796
  664POPC   D2A 7962   7.638   8.923   8.234  0.4435  0.0944  0.1371
  664POPC   C3A 7963   7.777   9.339   8.407  0.1280 -0.0275 -0.1270
  664POPC   C4A 7964   7.723   9.812   8.434  0.2015  0.0587 -0.1391
  664POPC   C1B 7965   7.389   8.570   7.262 -0.0578 -0.0746  0.0583
  664POPC   C2B 7966   6.957   8.710   7.306 -0.1540 -0.0022  0.0528
  664POPC   C3B 7967   6.557   8.889   7.464  0.1481 -0.0190  0.0192
  664POPC   C4B 7968   6.274   9.097   7.802 -0.2290 -0.1149 -0.0672
  665POPC   NC3 7969   8.651  15.593   4.969  0.1233 -0.1129  0.0953
  665POPC   PO4 7970   8.348  15.382   5.052  0.2420  0.0957 -0.1457
  665POPC   GL1 7971   8.322  15.490   5.460 -0.2533  0.2818  0.3254
  665POPC   GL2 7972   8.061  15.449   5.533  0.2584  0.1941 -0.1265
  665POPC   C1A 7973   8.694  15.448   5.726  0.0581  0.3195 -0.1837
  665POPC   D2A 7974   9.016  15.639   6.016  0.0904 -0.0676 -0.2809
  665POPC   C3A 7975   8.708  15.954   6.151  0.4729  0.2158  0.1123
  665POPC   C4A 7976   8.414  16.208   6.430 -0.0351  0.1350  0.0558
  665POPC   C1B 7977   8.264  15.534   5.942  0.1422 -0.2161 -0.1166
  665POPC   C2B 7978   8.207  15.360   6.387  0.0131  0.0042 -0.1239
  665POPC   C3B 7979   8.281  14.989   6.635 -0.0937 -0.0096  0.0459
  665POPC   C4B 7980   8.524  14.561   6.607  0.3766 -0.0947  0.1299
  666POPC   NC3 7981   0.537  10.655   3.943 -0.0888 -0.2177  0.0567
  666POPC   PO4 7982   0.349  10.687   4.290  0.2120  0.0588  0.1454
  666POPC   GL1 7983   0.080  10.904   4.629 -0.0324  0.4207 -0.0691
  666POPC   GL2 7984   0.390  11.008   4.712 -0.0836 -0.1244  0.1802
  666POPC   C1A 7985  -0.192  10.784   4.995 -0.4817  0.0992  0.3489
  666POPC   D2A 7986  -0.580  10.584   4.981  0.0023 -0.0686  0.0464
  666POPC   C3A 7987  -0.803  10.788   5.347  0.1776  0.0308  0.2641
  666POPC   C4A 7988  -1.186  10.709   5.573 -0.2734 -0.2198 -0.0877
  666POPC   C1B 7989   0.247  10.889   5.169  0.2796  0.2776  0.1604
  666POPC   C2B 7990   0.070  10.946   5.581  0.0685 -0.0802 -0.0744
  666POPC   C3B 7991  -0.222  11.204   5.838  0.2236  0.1759  0.2105
  666POPC   C4B 7992  -0.578  11.467   5.915 -0.2146 -0.0460 -0.1068
  667POPC   NC3 7993   7.145  13.539   4.771 -0.2325 -0.2211 -0.0330
  667POPC   PO4 7994   7.508  13.400   4.703 -0.0911  0.3227  0.2645
  667POPC   GL1 7995   7.528  13.529   5.091 -0.0037  0.3455 -0.3035
  667POPC   GL2 7996   7.280  13.373   5.252  0.1296  0.1702 -0.3770
  667POPC   C1A 7997   7.745  13.354   5.481  0.3802  0.0154 -0.0174
  667POPC   D2A 7998   7.697  13.069   5.844  0.0019 -0.0131 -0.2551
  667POPC   C3A 7999   7.395  13.213   6.141 -0.0278  0.2575 -0.1414
  667POPC   C4A 8000   7.255  13.338   6.554  0.1402  0.2802  0.2122
  667POPC   C1B 8001   7.197  13.447   5.728  0.2801  0.0791 -0.2365
  667POPC   C2B 8002   7.142  13.703   6.157  0.1197  0.0579  0.1164
  667POPC   C3B 8003   7.289  13.909   6.532  0.0779 -0.0659  0.0001
  667POPC   C4B 8004   7.368  14.246   6.794  0.0033  0.0285 -0.1252
  668POPC   NC3 8005  11.547   9.696   6.155  0.1469 -0.0522  0.1189
  668POPC   PO4 8006  11.474  10.079   6.139  0.0091  0.0821 -0.4673
  668POPC   GL1 8007  11.745  10.190   6.440 -0.1300  0.1719 -0.5515
  668POPC   GL2 8008  11.880   9.934   6.457  0.0158  0.1272  0.0113
  668POPC   C1A 8009  11.554  10.283   6.905 -0.1421  0.0156 -0.0860
  668POPC   D2A 8010  11.448  10.363   7.353  0.3426 -0.0589 -0.1537
  668POPC   C3A 8011  11.828  10.509   7.520 -0.0290 -0.2188 -0.0281
  668POPC   C4A 8012  12.100  10.163   7.743 -0.1593  0.2229  0.2500
  668POPC   C1B 8013  12.188  10.031   6.728  0.1598  0.1471  0.0698
  668POPC   C2B 8014  12.565  10.300   6.713 -0.3236  0.2386 -0.3117
  668POPC   C3B 8015  12.780  10.614   6.921  0.0300  0.2504 -0.2695
  668POPC   C4B 8016  12.721  10.860   7.241 -0.3453  0.2555  0.2093
  669POPC   NC3 8017  11.361   5.828   8.458  0.3261 -0.3208 -0.0275
  669POPC   PO4 8018  11.409   5.648   8.818 -0.1511  0.1134 -0.0534
  669POPC   GL1 8019  11.538   5.705   9.164 -0.0638  0.0252  0.0676
  669POPC   GL2 8020  11.567   5.468   9.230  0.0240 -0.2477  0.1386
  669POPC   C1A 8021  11.977   5.702   9.247 -0.0888  0.2163 -0.1804
  669POPC   D2A 8022  12.426   5.745   9.397  0.0938  0.3441 -0.0123
  669POPC   C3A 8023  12.593   5.509   9.742  0.0232  0.1342 -0.0764
  669POPC   C4A 8024  12.495   5.341  10.150 -0.0203  0.0700 -0.0596
  669POPC   C1B 8025  11.920   5.106   9.191  0.1507 -0.3148 -0.1060
  669POPC   C2B 8026  12.222   4.725   9.239 -0.0611 -0.1394 -0.2057
  669POPC   C3B 8027  12.329   4.443   9.627 -0.0531  0.2317  0.1329
  669POPC   C4B 8028  12.218   3.974   9.617 -0.3763  0.0111 -0.0959
  670POPC   NC3 8029   8.406   4.765   7.658  0.0557 -0.2197  0.2681
  670POPC   PO4 8030   8.293   4.450   7.409  0.1589  0.1370  0.1492
  670POPC   GL1 8031   8.316   4.212   7.696  0.1824 -0.0541  0.2938
  670POPC   GL2 8032   8.177   4.324   7.883  0.1263  0.2241  0.4162
  670POPC   C1A 8033   8.046   3.834   7.901  0.2240 -0.2041  0.3136
  670POPC   D2A 8034   7.946   3.635   8.314  0.0634  0.2536 -0.1656
  670POPC   C3A 8035   7.721   3.181   8.452 -0.0746 -0.2259 -0.3993
  670POPC   C4A 8036   7.379   2.892   8.579 -0.1362  0.1820  0.0411
  670POPC   C1B 8037   7.976   4.279   8.321  0.1325  0.0716  0.1371
  670POPC   C2B 8038   7.796   4.194   8.762 -0.0902  0.1104  0.1570
  670POPC   C3B 8039   7.499   3.900   9.056  0.3071 -0.2135 -0.1003
  670POPC   C4B 8040   7.501   3.433   9.205  0.0197 -0.2115  0.0481
  671POPC   NC3 8041  10.454   4.954   9.620  0.0063  0.1849  0.0881
  671POPC   PO4 8042  10.748   5.060   9.830 -0.1989  0.1291 -0.1255
  671POPC   GL1 8043  11.100   4.871   9.821 -0.2264 -0.2998  0.1926
  671POPC   GL2 8044  11.144   4.740   9.610  0.1302  0.1544 -0.1320
  671POPC   C1A 8045  11.273   4.615  10.158  0.2317 -0.0424 -0.1674
  671POPC   D2A 8046  11.436   4.356  10.407 -0.2522  0.0038  0.1350
  671POPC   C3A 8047  11.304   3.907  10.542 -0.2310  0.0122 -0.1021
  671POPC   C4A 8048  11.447   3.521  10.742 -0.1286  0.1314 -0.0222
  671POPC   C1B 8049  11.500   4.430   9.739 -0.1587 -0.0106  0.0431
  671POPC   C2B 8050  11.910   4.217   9.877 -0.1251 -0.1729 -0.0599
  671POPC   C3B 8051  11.989   4.101  10.314  0.2124 -0.1076 -0.2716
  671POPC   C4B 8052  12.006   3.744  10.620  0.1842  0.3321 -0.0597
  672POPC   NC3 8053   9.476   1.717   6.168  0.3301  0.1058  0.2923
  672POPC   PO4 8054   9.751   1.665   5.911 -0.0550 -0.1149  0.1434
  672POPC   GL1 8055  10.130   1.548   6.156  0.0582  0.0136 -0.0629
  672POPC   GL2 8056  10.076   1.753   6.331  0.0153 -0.0516 -0.1466
  672POPC   C1A 8057  10.290   1.220   6.505  0.0721 -0.2702  0.1997
  672POPC   D2A 8058  10.462   1.241   6.945 -0.2784  0.1639  0.2597
  672POPC   C3A 8059  10.135   1.066   7.260 -0.0455  0.1510 -0.0590
  672POPC   C4A 8060   9.987   0.823   7.657  0.1881  0.1883  0.1104
  672POPC   C1B 8061   9.760   1.427   6.548 -0.0327  0.0962  0.1187
  672POPC   C2B 8062   9.806   1.185   6.932  0.0853 -0.0039  0.2695
  672POPC   C3B 8063   9.626   1.205   7.378  0.0053 -0.2467  0.0474
  672POPC   C4B 8064   9.380   1.046   7.760 -0.0876 -0.0147  0.1871
  673POPC   NC3 8065   8.044   3.741   6.801  0.0922  0.1021 -0.0836
  673POPC   PO4 8066   8.138   3.497   7.080  0.0251 -0.0339 -0.2095
  673POPC   GL1 8067   7.967   3.160   7.258  0.0982  0.1974 -0.0406
  673POPC   GL2 8068   7.804   2.934   7.047 -0.1334 -0.2525  0.0670
  673POPC   C1A 8069   8.104   2.745   7.459  0.1354 -0.2607 -0.0372
  673POPC   D2A 8070   8.237   2.330   7.583 -0.0722  0.1248 -0.2504
  673POPC   C3A 8071   8.528   1.965   7.641  0.1267 -0.1715 -0.0087
  673POPC   C4A 8072   8.646   1.490   7.643 -0.1416 -0.1111 -0.1846
  673POPC   C1B 8073   7.645   2.988   7.500 -0.2465 -0.1667 -0.1519
  673POPC   C2B 8074   7.644   2.634   7.831  0.0741 -0.1468 -0.2388
  673POPC   C3B 8075   7.272   2.524   8.095  0.1791  0.0584 -0.3640
  673POPC   C4B 8076   6.935   2.629   8.388  0.4729 -0.2866  0.0086
  674POPC   NC3 8077  15.613   1.174   4.931 -0.4524  0.0243 -0.1578
  674POPC   PO4 8078  16.017   1.137   5.018  0.0132  0.3144  0.0232
  674POPC   GL1 8079  15.857   0.787   5.200  0.2190  0.1778 -0.2544
  674POPC   GL2 8080  16.070   0.573   5.048 -0.0383  0.0805 -0.3736
  674POPC   C1A 8081  15.821   0.497   5.610 -0.2777 -0.0047  0.0236
  674POPC   D2A 8082  16.162   0.204   5.764  0.0498  0.0991  0.2708
  674POPC   C3A 8083  16.565   0.434   5.854  0.0680 -0.0400  0.0623
  674POPC   C4A 8084  16.861   0.678   6.070  0.0283  0.1018  0.2404
  674POPC   C1B 8085  16.258   0.163   5.240  0.3759  0.3133  0.2037
  674POPC   C2B 8086  16.607  -0.009   5.462 -0.3339  0.1414 -0.2754
  674POPC   C3B 8087  16.608  -0.066   5.908  0.0410  0.0219 -0.1132
  674POPC   C4B 8088  16.693  -0.141   6.359  0.1887 -0.0525 -0.1002
  675POPC   NC3 8089  16.472  11.558   4.708 -0.0082 -0.1033  0.2878
  675POPC   PO4 8090  16.072  11.551   4.586 -0.1190  0.2248  0.0868
  675POPC   GL1 8091  16.125  11.636   4.998  0.1619  0.0023  0.0735
  675POPC   GL2 8092  15.882  11.787   5.103  0.1232  0.0914  0.2560
  675POPC   C1A 8093  16.273  11.961   5.303 -0.1191 -0.3633 -0.1145
  675POPC   D2A 8094  16.620  11.942   5.569  0.0234  0.0957  0.1758
  675POPC   C3A 8095  16.920  11.614   5.763 -0.2978 -0.1053  0.1319
  675POPC   C4A 8096  17.225  11.377   5.981 -0.2028 -0.1168  0.1131
  675POPC   C1B 8097  16.042  11.564   5.473 -0.1458  0.0393 -0.0657
  675POPC   C2B 8098  16.332  11.664   5.832  0.3370 -0.1825  0.0593
  675POPC   C3B 8099  16.508  11.625   6.260 -0.1451  0.0919 -0.3035
  675POPC   C4B 8100  16.429  11.286   6.512 -0.1307  0.2630  0.1284
  676POPC   NC3 8101   5.215   0.266   4.542  0.2110 -0.1512 -0.0417
  676POPC   PO4 8102   5.358   0.534   4.779 -0.2550  0.0125  0.1666
  676POPC   GL1 8103   5.399   0.503   5.143  0.1064  0.0036 -0.0180
  676POPC   GL2 8104   5.209   0.373   5.216 -0.2095  0.1387  0.1812
  676POPC   C1A 8105   5.608   0.451   5.587  0.2547 -0.2751  0.1965
  676POPC   D2A 8106   5.986   0.684   5.794  0.1862  0.0515 -0.2644
  676POPC   C3A 8107   6.150   0.440   6.112  0.4916 -0.0444 -0.1614
  676POPC   C4A 8108   6.098   0.247   6.508  0.0842 -0.2027  0.0258
  676POPC   C1B 8109   5.099   0.244   5.646 -0.0235  0.0575  0.4607
  676POPC   C2B 8110   5.001  -0.021   6.040  0.0111  0.0848 -0.0488
  676POPC   C3B 8111   4.950  -0.321   6.414 -0.0611 -0.0921 -0.0401
  676POPC   C4B 8112   5.014  -0.726   6.470  0.1236 -0.1967  0.1466
  677POPC   NC3 8113   1.187  11.961   4.234 -0.0134  0.0564 -0.3604
  677POPC   PO4 8114   1.450  11.737   4.092  0.0309  0.1230  0.0199
  677POPC   GL1 8115   1.635  11.697   4.431  0.2160 -0.1216 -0.1726
  677POPC   GL2 8116   1.458  11.768   4.637  0.4382  0.2398  0.2103
  677POPC   C1A 8117   1.999  11.733   4.700  0.0885  0.2081 -0.1172
  677POPC   D2A 8118   2.133  11.780   5.118 -0.0471  0.0377  0.1975
  677POPC   C3A 8119   1.853  12.058   5.401 -0.0935  0.1144 -0.2442
  677POPC   C4A 8120   1.549  12.360   5.611 -0.2756 -0.0003 -0.2511
  677POPC   C1B 8121   1.534  11.756   5.121  0.0037  0.0937 -0.0476
  677POPC   C2B 8122   1.476  11.817   5.565 -0.0067 -0.2061 -0.3206
  677POPC   C3B 8123   1.277  11.989   5.909 -0.1140  0.3603  0.0749
  677POPC   C4B 8124   0.823  12.061   6.108  0.0498 -0.1836  0.2104
  678POPC   NC3 8125   9.161   7.066   9.372  0.0211 -0.1615  0.0076
  678POPC   PO4 8126   9.359   7.220   9.683 -0.1057 -0.2838 -0.1100
  678POPC   GL1 8127   9.210   7.552   9.695  0.3645 -0.2713 -0.0550
  678POPC   GL2 8128   8.928   7.526   9.526 -0.0518 -0.0200  0.0688
  678POPC   C1A 8129   9.289   7.878  10.050  0.0853 -0.0325  0.0778
  678POPC   D2A 8130   9.377   8.309  10.339  0.0738 -0.0973  0.1054
  678POPC   C3A 8131   9.341   8.218  10.774  0.2689 -0.0738 -0.1994
  678POPC   C4A 8132   9.251   7.780  10.953  0.0864  0.2149  0.1668
  678POPC   C1B 8133   8.718   7.921   9.567  0.2957  0.0668 -0.0938
  678POPC   C2B 8134   8.419   8.226   9.634  0.2359 -0.0345  0.0823
  678POPC   C3B 8135   8.335   8.665   9.835 -0.0390 -0.0262 -0.0567
  678POPC   C4B 8136   8.298   9.078  10.023  0.0355  0.0260 -0.1628
  679POPC   NC3 8137   5.558   2.911   5.583  0.1278 -0.1738 -0.1320
  679POPC   PO4 8138   5.272   3.113   5.387  0.2668 -0.0759 -0.2018
  679POPC   GL1 8139   5.088   3.132   5.759  0.2230  0.0030  0.0612
  679POPC   GL2 8140   4.874   2.903   5.646  0.0905  0.2766 -0.2139
  679POPC   C1A 8141   5.109   3.207   6.218 -0.1589 -0.0673 -0.1646
  679POPC   D2A 8142   5.441   3.208   6.627 -0.4278  0.0187 -0.2555
  679POPC   C3A 8143   5.311   3.358   7.030  0.1768 -0.1948  0.1617
  679POPC   C4A 8144   5.118   3.499   7.405 -0.0091 -0.3583 -0.1045
  679POPC   C1B 8145   4.608   2.729   6.057 -0.0426  0.1470  0.0695
  679POPC   C2B 8146   4.416   2.392   6.337  0.0439 -0.2746  0.0471
  679POPC   C3B 8147   4.121   2.344   6.695  0.0087 -0.4492  0.3707
  679POPC   C4B 8148   3.702   2.169   6.785 -0.0124  0.0635 -0.0913
  680POPC   NC3 8149  13.275  10.341   5.534 -0.0478  0.1320 -0.0507
  680POPC   PO4 8150  12.996  10.077   5.462 -0.1059  0.0783  0.1100
  680POPC   GL1 8151  13.078  10.066   5.912 -0.4479  0.0942  0.0167
  680POPC   GL2 8152  12.827   9.988   6.088  0.0170  0.0364 -0.1595
  680POPC   C1A 8153  13.057  10.432   6.193 -0.2072  0.0491  0.2363
  680POPC   D2A 8154  13.198  10.693   6.556  0.2585  0.1405 -0.1538
  680POPC   C3A 8155  13.291  10.530   6.979  0.3255  0.1396 -0.0108
  680POPC   C4A 8156  13.140  10.472   7.373 -0.0406 -0.1054  0.0267
  680POPC   C1B 8157  12.678   9.834   6.527  0.0025  0.1608 -0.2415
  680POPC   C2B 8158  12.668   9.774   6.959  0.1561 -0.2830  0.4227
  680POPC   C3B 8159  12.679   9.806   7.394  0.1330 -0.0148  0.0593
  680POPC   C4B 8160  12.610   9.917   7.839  0.2004  0.1861  0.1034
  681POPC   NC3 8161   5.793  11.586   4.189  0.1257  0.0675  0.3849
  681POPC   PO4 8162   5.638  11.909   4.309  0.1511  0.0227 -0.1843
  681POPC   GL1 8163   5.435  12.030   4.637  0.0602  0.0568 -0.3640
  681POPC   GL2 8164   5.179  11.954   4.604  0.0376 -0.0673  0.0079
  681POPC   C1A 8165   5.355  12.090   5.076 -0.0692 -0.1632 -0.1472
  681POPC   D2A 8166   5.572  12.264   5.446  0.1015  0.1362 -0.2354
  681POPC   C3A 8167   5.456  12.252   5.955  0.2754 -0.1018  0.0480
  681POPC   C4A 8168   5.526  12.280   6.432 -0.2040 -0.1579  0.1454
  681POPC   C1B 8169   4.981  11.784   4.952 -0.4009  0.2277 -0.1055
  681POPC   C2B 8170   4.797  11.725   5.338  0.2693  0.2380 -0.3123
  681POPC   C3B 8171   4.702  11.704   5.826 -0.0863 -0.0575 -0.2042
  681POPC   C4B 8172   4.406  11.971   6.077 -0.0362  0.0543  0.1939
  682POPC   NC3 8173  15.003   9.950   5.666  0.2538  0.1637  0.0230
  682POPC   PO4 8174  15.162  10.070   5.316 -0.0521  0.0962 -0.3547
  682POPC   GL1 8175  15.330  10.294   5.566 -0.0643 -0.0173  0.3306
  682POPC   GL2 8176  15.567  10.129   5.653  0.0768  0.2352 -0.1334
  682POPC   C1A 8177  15.172  10.383   6.001  0.2723  0.1119 -0.0924
  682POPC   D2A 8178  15.090  10.511   6.433 -0.0251  0.2118  0.1885
  682POPC   C3A 8179  15.398  10.685   6.737  0.0881  0.0014 -0.2217
  682POPC   C4A 8180  15.589  11.104   6.830  0.0258 -0.3022  0.2579
  682POPC   C1B 8181  15.474   9.932   6.076 -0.0654  0.0761  0.0471
  682POPC   C2B 8182  15.426  10.015   6.517  0.0327  0.2678 -0.1704
  682POPC   C3B 8183  15.492  10.208   6.955 -0.3441  0.0662 -0.0887
  682POPC   C4B 8184  15.564  10.248   7.405 -0.0797 -0.0090  0.0289
  683POPC   NC3 8185  30.585   1.269   4.094 -0.1091  0.0482 -0.2144
  683POPC   PO4 8186  30.639   0.929   3.857 -0.2286  0.1796  0.2542
  683POPC   GL1 8187  30.706   0.833   4.285  0.2975 -0.1088  0.5125
  683POPC   GL2 8188  30.902   0.676   4.222 -0.7220 -0.0850  0.0847
  683POPC   C1A 8189  30.908   0.769   4.710  0.2326  0.1061 -0.1390
  683POPC   D2A 8190  31.070   0.672   5.113  0.0730  0.2228 -0.2762
  683POPC   C3A 8191  31.060   1.021   5.426 -0.0838 -0.1547  0.0587
  683POPC   C4A 8192  31.016   1.063   5.868 -0.0638 -0.1939  0.2002
  683POPC   C1B 8193  30.782   0.287   4.491  0.1639  0.2234  0.0485
  683POPC   C2B 8194  30.780  -0.173   4.573  0.0583 -0.4081 -0.1771
  683POPC   C3B 8195  30.862  -0.445   4.949  0.2674 -0.0982  0.1163
  683POPC   C4B 8196  30.707  -0.784   5.194 -0.2928  0.1134 -0.2534
  684POPC   NC3 8197   1.776   6.810   5.092  0.0449  0.1498  0.1325
  684POPC   PO4 8198   1.450   6.987   5.168 -0.2265 -0.1160 -0.0459
  684POPC   GL1 8199   1.598   7.214   5.580  0.2256  0.1279 -0.1553
  684POPC   GL2 8200   1.675   6.940   5.641 -0.0039 -0.0080 -0.1692
  684POPC   C1A 8201   1.477   7.082   6.037 -0.1645  0.0046 -0.0484
  684POPC   D2A 8202   1.480   6.741   6.335 -0.1451 -0.2328  0.0351
  684POPC   C3A 8203   1.378   6.637   6.823 -0.0517  0.1145 -0.1407
  684POPC   C4A 8204   1.397   6.605   7.268  0.2450  0.0138  0.0465
  684POPC   C1B 8205   1.906   6.798   5.959  0.1217 -0.0019 -0.0325
  684POPC   C2B 8206   2.253   6.768   6.301 -0.0737  0.0662 -0.0060
  684POPC   C3B 8207   2.297   6.714   6.788 -0.2326 -0.0934  0.0859
  684POPC   C4B 8208   2.422   6.298   6.984 -0.1443 -0.1795  0.0190
  685POPC   NC3 8209  14.641   5.092   5.877  0.1185 -0.2276 -0.0176
  685POPC   PO4 8210  14.303   5.051   5.689 -0.1542  0.0394  0.0903
  685POPC   GL1 8211  14.246   4.661   5.907  0.0458 -0.2692  0.1425
  685POPC   GL2 8212  14.531   4.599   5.815  0.1501 -0.2890  0.1676
  685POPC   C1A 8213  14.221   4.191   5.942  0.1381  0.2346 -0.1098
  685POPC   D2A 8214  14.074   3.811   6.231  0.0545  0.0301  0.1393
  685POPC   C3A 8215  14.178   3.948   6.661  0.1344  0.0185  0.0470
  685POPC   C4A 8216  14.394   4.253   6.894  0.0101 -0.2684  0.2714
  685POPC   C1B 8217  14.682   4.261   6.110  0.0237  0.1535 -0.1442
  685POPC   C2B 8218  14.932   4.131   6.476  0.1600  0.1437  0.2754
  685POPC   C3B 8219  15.124   4.021   6.933 -0.0756  0.2072 -0.0537
  685POPC   C4B 8220  14.949   3.775   7.301 -0.0451 -0.0046 -0.2066
  686POPC   NC3 8221  14.637  16.336   4.169 -0.1339  0.0668  0.0759
  686POPC   PO4 8222  14.300  16.114   4.267 -0.0196 -0.1751  0.1561
  686POPC   GL1 8223  14.308  16.071   4.641 -0.0892  0.4455 -0.0558
  686POPC   GL2 8224  14.159  15.849   4.659 -0.0070  0.1887 -0.2070
  686POPC   C1A 8225  14.549  15.996   4.963 -0.0129 -0.0364  0.2822
  686POPC   D2A 8226  14.759  15.817   5.326 -0.3695 -0.1177  0.1219
  686POPC   C3A 8227  14.691  15.994   5.805 -0.0512  0.0447 -0.0068
  686POPC   C4A 8228  14.535  15.983   6.237 -0.1215 -0.0431  0.0710
  686POPC   C1B 8229  14.052  15.781   5.110 -0.0255 -0.1851  0.0910
  686POPC   C2B 8230  14.199  15.776   5.531 -0.2375 -0.4335  0.0211
  686POPC   C3B 8231  14.271  15.651   5.908  0.0042  0.1827  0.3287
  686POPC   C4B 8232  14.413  15.391   6.244 -0.0497 -0.1721 -0.0659
  687POPC   NC3 8233  12.752  15.052   4.280  0.1681  0.2112 -0.0377
  687POPC   PO4 8234  12.811  14.940   4.636 -0.1645 -0.1730 -0.0448
  687POPC   GL1 8235  13.051  14.979   4.894 -0.1072 -0.1135 -0.0827
  687POPC   GL2 8236  12.823  15.003   5.107  0.1067  0.2067  0.2305
  687POPC   C1A 8237  13.404  15.040   5.146  0.2528  0.0922 -0.2205
  687POPC   D2A 8238  13.893  15.003   5.076  0.0853  0.0217  0.2989
  687POPC   C3A 8239  14.235  14.893   5.381 -0.1927 -0.1668 -0.0431
  687POPC   C4A 8240  14.652  14.744   5.583 -0.0575 -0.1610  0.1836
  687POPC   C1B 8241  13.072  15.091   5.502  0.1091 -0.4554 -0.0502
  687POPC   C2B 8242  13.296  15.299   5.875  0.2628 -0.2599 -0.1574
  687POPC   C3B 8243  13.449  15.393   6.260  0.1342  0.3789 -0.1409
  687POPC   C4B 8244  13.722  15.404   6.644 -0.5389 -0.0799  0.0146
  688POPC   NC3 8245  10.360   8.105   7.866 -0.3177  0.1709 -0.1164
  688POPC   PO4 8246  10.009   7.929   7.831 -0.1586  0.0421  0.2157
  688POPC   GL1 8247   9.696   8.206   8.040 -0.3646  0.0556  0.2797
  688POPC   GL2 8248   9.624   8.137   8.338  0.1558 -0.1676  0.1541
  688POPC   C1A 8249   9.709   8.611   8.243 -0.1598  0.1732 -0.0409
  688POPC   D2A 8250   9.811   9.059   8.327  0.1040 -0.2839 -0.0738
  688POPC   C3A 8251   9.746   9.236   8.762  0.0094 -0.2674  0.2068
  688POPC   C4A 8252   9.740   9.564   9.083 -0.0546 -0.4126 -0.0322
  688POPC   C1B 8253   9.422   8.405   8.627 -0.1921  0.0769  0.1928
  688POPC   C2B 8254   9.460   8.806   8.901  0.0728  0.2456 -0.0437
  688POPC   C3B 8255   9.580   9.126   9.192  0.1012 -0.0698  0.0480
  688POPC   C4B 8256   9.513   9.423   9.527  0.1685  0.2155 -0.0329
  689POPC   NC3 8257  12.191   2.099   5.393  0.1144  0.2050 -0.1384
  689POPC   PO4 8258  12.490   2.001   5.112  0.3846 -0.0351  0.1792
  689POPC   GL1 8259  12.327   1.650   5.239 -0.2859  0.2898 -0.0921
  689POPC   GL2 8260  12.266   1.386   5.165  0.0775 -0.1079  0.2477
  689POPC   C1A 8261  12.330   1.545   5.692  0.1958  0.1411  0.1088
  689POPC   D2A 8262  12.371   1.504   6.155  0.0260 -0.2596  0.1017
  689POPC   C3A 8263  12.473   1.527   6.645 -0.3342 -0.0153 -0.1267
  689POPC   C4A 8264  12.426   1.657   7.092 -0.4460 -0.2248  0.0780
  689POPC   C1B 8265  12.505   1.138   5.503  0.3261 -0.2010  0.0297
  689POPC   C2B 8266  12.752   0.904   5.854 -0.3224 -0.0328  0.1596
  689POPC   C3B 8267  12.543   0.732   6.212  0.3544  0.1019 -0.0574
  689POPC   C4B 8268  12.247   0.551   6.584 -0.0098  0.1233  0.0971
  690POPC   NC3 8269   5.781   7.385   6.324 -0.2605 -0.0792 -0.4022
  690POPC   PO4 8270   5.934   7.772   6.244  0.2403  0.0711 -0.1473
  690POPC   GL1 8271   5.676   7.932   6.599 -0.2619 -0.4544  0.3667
  690POPC   GL2 8272   5.631   7.665   6.755 -0.1156  0.0442  0.1892
  690POPC   C1A 8273   5.411   8.150   6.930 -0.1510 -0.0911  0.0298
  690POPC   D2A 8274   5.133   8.441   7.183  0.1879  0.1528 -0.0240
  690POPC   C3A 8275   4.685   8.509   7.135 -0.2025 -0.2935 -0.0749
  690POPC   C4A 8276   4.387   8.830   7.192  0.0578  0.1982 -0.1760
  690POPC   C1B 8277   5.712   7.639   7.237 -0.1543  0.1269  0.0286
  690POPC   C2B 8278   5.850   7.751   7.649 -0.1402 -0.0673 -0.1134
  690POPC   C3B 8279   5.925   7.766   8.127 -0.2465  0.0475 -0.0117
  690POPC   C4B 8280   5.905   8.011   8.523  0.3337  0.2085  0.2016
  691POPC   NC3 8281   8.410  11.477   5.547  0.2906  0.0280  0.2744
  691POPC   PO4 8282   8.496  11.823   5.447 -0.2221  0.1945 -0.3477
  691POPC   GL1 8283   8.205  11.976   5.766 -0.4051 -0.0998  0.2107
  691POPC   GL2 8284   8.284  11.707   5.950 -0.0273  0.0369  0.1112
  691POPC   C1A 8285   8.217  12.246   6.146 -0.1512 -0.2533 -0.1603
  691POPC   D2A 8286   8.458  12.475   6.449  0.6854 -0.3501  0.1727
  691POPC   C3A 8287   8.418  12.456   6.923 -0.0432  0.1935  0.1330
  691POPC   C4A 8288   8.747  12.517   7.249 -0.1010  0.0086 -0.1212
  691POPC   C1B 8289   8.630  11.759   6.266  0.1838 -0.0026 -0.0196
  691POPC   C2B 8290   8.934  11.869   6.542 -0.0035  0.1046 -0.2073
  691POPC   C3B 8291   9.167  12.180   6.792 -0.2205  0.0446  0.1110
  691POPC   C4B 8292   9.280  12.375   7.193  0.0695 -0.1757 -0.0979
  692POPC   NC3 8293  11.322   5.522  12.034 -0.0246  0.0359 -0.1190
  692POPC   PO4 8294  11.019   5.379  11.834 -0.1166 -0.2272  0.0976
  692POPC   GL1 8295  11.164   5.378  11.461 -0.0081  0.0357 -0.2544
  692POPC   GL2 8296  11.368   5.538  11.518  0.1778 -0.4722  0.1203
  692POPC   C1A 8297  11.414   5.004  11.347 -0.0780 -0.1257  0.0618
  692POPC   D2A 8298  11.804   4.978  11.173 -0.0956 -0.0585  0.1458
  692POPC   C3A 8299  11.904   4.507  11.175  0.0046 -0.1703 -0.0753
  692POPC   C4A 8300  11.912   4.267  10.799  0.1615 -0.0631  0.0946
  692POPC   C1B 8301  11.677   5.324  11.805 -0.2485 -0.0704  0.0532
  692POPC   C2B 8302  11.697   4.934  11.978 -0.1002  0.3791 -0.1857
  692POPC   C3B 8303  11.648   4.639  11.633 -0.2330 -0.0275 -0.1236
  692POPC   C4B 8304  11.391   4.374  11.343 -0.1593 -0.2731  0.1543
  693POPC   NC3 8305   5.432   7.787   6.191  0.1128 -0.0992 -0.0603
  693POPC   PO4 8306   5.112   7.781   5.929 -0.0185  0.0038 -0.0144
  693POPC   GL1 8307   4.837   7.745   6.294  0.0705 -0.0315 -0.0505
  693POPC   GL2 8308   4.814   8.038   6.309  0.0852  0.0642  0.0186
  693POPC   C1A 8309   4.364   7.696   6.356 -0.3550 -0.1066  0.1488
  693POPC   D2A 8310   4.005   7.465   6.297  0.0171  0.1377 -0.1343
  693POPC   C3A 8311   3.765   7.798   6.445  0.1668  0.1118  0.0825
  693POPC   C4A 8312   3.534   8.166   6.219 -0.1012  0.0214  0.4098
  693POPC   C1B 8313   4.492   8.367   6.333  0.1251  0.2664 -0.1275
  693POPC   C2B 8314   4.310   8.483   6.755 -0.1674 -0.0301  0.0583
  693POPC   C3B 8315   4.005   8.616   7.029 -0.2498 -0.0874 -0.0967
  693POPC   C4B 8316   3.605   8.777   7.166  0.3353 -0.2850  0.1087
  694POPC   NC3 8317   4.757   9.587   5.151  0.1505  0.1257 -0.3937
  694POPC   PO4 8318   4.483   9.546   4.845 -0.3191 -0.1369 -0.0326
  694POPC   GL1 8319   4.287   9.452   5.213  0.2462 -0.1603  0.1229
  694POPC   GL2 8320   4.349   9.723   5.360  0.1160 -0.2635  0.0049
  694POPC   C1A 8321   3.890   9.332   5.496 -0.2274  0.2465  0.2584
  694POPC   D2A 8322   3.597   8.929   5.627 -0.0262  0.0965 -0.0630
  694POPC   C3A 8323   3.245   9.187   5.756 -0.0216 -0.0414  0.0897
  694POPC   C4A 8324   3.037   9.518   5.814  0.2474  0.0845 -0.2479
  694POPC   C1B 8325   4.254   9.786   5.795 -0.0195 -0.1360  0.1554
  694POPC   C2B 8326   4.040   9.698   6.260 -0.0282 -0.1807  0.4382
  694POPC   C3B 8327   3.684   9.765   6.512 -0.0061 -0.0361 -0.1552
  694POPC   C4B 8328   3.444   9.529   6.809 -0.0485 -0.2080 -0.2175
  695POPC   NC3 8329   8.805   0.690   5.453 -0.4586  0.2254  0.3381
  695POPC   PO4 8330   8.867   0.316   5.537  0.1223  0.1163 -0.0425
  695POPC   GL1 8331   8.772   0.396   5.922  0.3490 -0.1244  0.1121
  695POPC   GL2 8332   8.549   0.670   5.884  0.2763  0.1483 -0.2337
  695POPC   C1A 8333   8.617   0.302   6.365 -0.0044  0.0878  0.1454
  695POPC   D2A 8334   8.339   0.016   6.644  0.1993 -0.0699 -0.1383
  695POPC   C3A 8335   8.568  -0.115   7.017 -0.0651  0.2251 -0.1815
  695POPC   C4A 8336   8.503  -0.358   7.414 -0.1543 -0.0622  0.5223
  695POPC   C1B 8337   8.436   0.777   6.314  0.4833 -0.1162  0.0317
  695POPC   C2B 8338   8.301   0.584   6.681 -0.2664  0.1989  0.3820
  695POPC   C3B 8339   8.029   0.656   7.060  0.0160 -0.0516  0.0764
  695POPC   C4B 8340   8.066   0.519   7.503  0.0423  0.2204  0.1116
  696POPC   NC3 8341   8.812   6.652   9.230  0.0370 -0.2399  0.0047
  696POPC   PO4 8342   8.766   6.821   9.565  0.0393 -0.2356  0.1048
  696POPC   GL1 8343   8.459   7.009   9.662  0.0863 -0.1144 -0.3046
  696POPC   GL2 8344   8.478   6.936   9.939 -0.0389  0.0215 -0.1220
  696POPC   C1A 8345   8.449   7.454   9.666 -0.1070 -0.1050 -0.0194
  696POPC   D2A 8346   8.259   7.737   9.970  0.1302  0.0336  0.0859
  696POPC   C3A 8347   8.127   7.674  10.409 -0.4483 -0.0148  0.1055
  696POPC   C4A 8348   8.122   7.810  10.852  0.0119  0.0420  0.1463
  696POPC   C1B 8349   8.139   7.182  10.141  0.1382 -0.0125  0.2246
  696POPC   C2B 8350   7.854   7.235  10.515 -0.1376  0.0387 -0.2160
  696POPC   C3B 8351   7.629   7.241  10.866 -0.2689 -0.3642  0.0247
  696POPC   C4B 8352   7.504   6.918  11.201  0.1020 -0.1333  0.0963
  697POPC   NC3 8353  14.227  11.393   4.808 -0.3280 -0.1422  0.2171
  697POPC   PO4 8354  13.866  11.475   4.662  0.1930 -0.0237 -0.1044
  697POPC   GL1 8355  13.958  11.762   4.884  0.0854 -0.0052 -0.0699
  697POPC   GL2 8356  14.286  11.800   5.011  0.1121  0.0699  0.1991
  697POPC   C1A 8357  13.957  11.706   5.363  0.0219  0.0283 -0.1381
  697POPC   D2A 8358  13.714  11.535   5.758 -0.1750 -0.1194  0.0939
  697POPC   C3A 8359  14.034  11.388   6.040 -0.1155  0.2048 -0.0491
  697POPC   C4A 8360  14.208  11.246   6.474 -0.2279 -0.1373  0.3056
  697POPC   C1B 8361  14.458  11.887   5.405 -0.2493 -0.1150  0.1322
  697POPC   C2B 8362  14.656  11.894   5.872 -0.0101 -0.2307 -0.0329
  697POPC   C3B 8363  14.672  12.038   6.343 -0.0111  0.0145 -0.0169
  697POPC   C4B 8364  14.446  12.196   6.700 -0.0981 -0.1558  0.0474
  698POPC   NC3 8365   9.696  12.321   4.993  0.1896  0.0721 -0.2854
  698POPC   PO4 8366   9.834  12.688   5.084  0.1075 -0.1943 -0.0870
  698POPC   GL1 8367   9.655  12.583   5.463  0.1139 -0.0925 -0.2987
  698POPC   GL2 8368   9.929  12.725   5.568  0.0381  0.0654 -0.2501
  698POPC   C1A 8369   9.485  12.696   5.840 -0.0355  0.0755  0.2611
  698POPC   D2A 8370   9.279  13.132   6.021  0.1786 -0.1773 -0.3157
  698POPC   C3A 8371   9.495  13.309   6.471  0.1574 -0.1200 -0.0298
  698POPC   C4A 8372   9.561  13.261   6.959  0.1833  0.5300 -0.1366
  698POPC   C1B 8373  10.243  12.819   5.832 -0.3047 -0.0104  0.0972
  698POPC   C2B 8374  10.305  12.947   6.260  0.1769  0.0968  0.0145
  698POPC   C3B 8375  10.590  12.968   6.654  0.2383 -0.2285  0.0094
  698POPC   C4B 8376  10.819  13.114   7.071  0.2824  0.0503  0.0070
  699POPC   NC3 8377  10.956   5.937  11.453  0.0782  0.0527 -0.0949
  699POPC   PO4 8378  11.051   5.907  11.840 -0.0611  0.3364 -0.2100
  699POPC   GL1 8379  11.416   6.012  12.011 -0.1505 -0.0614 -0.2303
  699POPC   GL2 8380  11.566   5.898  11.836  0.2905  0.1297 -0.3541
  699POPC   C1A 8381  11.626   6.411  12.136 -0.3912 -0.1635 -0.0058
  699POPC   D2A 8382  11.744   6.603  12.533  0.0315 -0.1798 -0.0865
  699POPC   C3A 8383  11.976   6.928  12.743 -0.0208  0.0173 -0.0441
  699POPC   C4A 8384  12.353   7.194  12.792 -0.0463  0.1092 -0.0689
  699POPC   C1B 8385  11.970   5.984  11.551 -0.0283 -0.0550 -0.1406
  699POPC   C2B 8386  12.298   5.807  11.256  0.2853 -0.0934  0.2315
  699POPC   C3B 8387  12.306   5.459  10.989  0.0232  0.1521 -0.4126
  699POPC   C4B 8388  11.987   5.258  10.735  0.1631 -0.0093  0.0254
  700POPC   NC3 8389  14.727   1.335   4.704 -0.0780 -0.2282  0.1181
  700POPC   PO4 8390  15.062   1.384   4.885  0.0461  0.2954  0.0209
  700POPC   GL1 8391  14.904   1.483   5.229 -0.2320  0.1916 -0.1604
  700POPC   GL2 8392  14.632   1.375   5.296  0.1673 -0.0493 -0.0498
  700POPC   C1A 8393  15.268   1.398   5.553 -0.0753  0.2566  0.1670
  700POPC   D2A 8394  15.265   1.191   5.992 -0.0332  0.3511  0.0439
  700POPC   C3A 8395  15.258   1.483   6.348 -0.0208  0.0226 -0.1807
  700POPC   C4A 8396  15.477   1.411   6.715 -0.0900  0.3814  0.1568
  700POPC   C1B 8397  14.781   1.492   5.712 -0.2923  0.0214  0.0228
  700POPC   C2B 8398  14.684   1.472   6.229  0.2688 -0.0191  0.2524
  700POPC   C3B 8399  14.655   1.399   6.693 -0.1340 -0.3039  0.0367
  700POPC   C4B 8400  14.460   1.308   7.082 -0.0244 -0.2119 -0.2475
  701POPC   NC3 8401  15.087   7.821   5.199  0.3756  0.0450  0.1887
  701POPC   PO4 8402  15.427   7.635   5.357 -0.1172  0.2507  0.2948
  701POPC   GL1 8403  15.381   7.498   5.735 -0.4394 -0.2930 -0.0689
  701POPC   GL2 8404  15.451   7.315   5.713  0.0217 -0.0180 -0.1827
  701POPC   C1A 8405  15.103   7.600   6.038 -0.0894  0.0752 -0.1636
  701POPC   D2A 8406  14.998   8.017   6.239 -0.1076  0.2159 -0.1728
  701POPC   C3A 8407  15.247   7.960   6.594 -0.1667  0.2618  0.0907
  701POPC   C4A 8408  15.483   7.708   6.904 -0.4840  0.1062  0.1703
  701POPC   C1B 8409  15.876   7.272   5.938  0.0862  0.1621  0.0209
  701POPC   C2B 8410  15.974   7.480   6.298 -0.0067  0.1250 -0.0727
  701POPC   C3B 8411  16.102   7.654   6.712  0.2174  0.0188 -0.1581
  701POPC   C4B 8412  16.330   7.851   7.134  0.2144  0.0536  0.0035
  702POPC   NC3 8413  32.605  12.646   4.040 -0.3557  0.1563  0.2863
  702POPC   PO4 8414  32.957  12.766   3.839 -0.1818 -0.0314  0.2127
  702POPC   GL1 8415  33.255  12.607   4.173  0.0592 -0.1207 -0.1272
  702POPC   GL2 8416  32.999  12.635   4.375  0.1674 -0.0105  0.2190
  702POPC   C1A 8417  33.435  12.844   4.511  0.0502 -0.2059 -0.1976
  702POPC   D2A 8418  33.503  13.270   4.683 -0.2598  0.0223 -0.1528
  702POPC   C3A 8419  33.733  13.146   5.045 -0.1126  0.2560  0.2128
  702POPC   C4A 8420  33.944  13.241   5.448 -0.1745 -0.0089 -0.2735
  702POPC   C1B 8421  33.015  12.805   4.772  0.2515 -0.0331  0.0008
  702POPC   C2B 8422  33.243  13.106   5.100 -0.0487  0.1057  0.0530
  702POPC   C3B 8423  33.418  13.330   5.443  0.0315 -0.1372 -0.0156
  702POPC   C4B 8424  33.318  13.701   5.705 -0.3535 -0.1005 -0.0197
  703POPC   NC3 8425   2.056  11.796   3.997 -0.0410  0.0775  0.0010
  703POPC   PO4 8426   1.993  12.187   3.996  0.2369 -0.0139  0.0643
  703POPC   GL1 8427   1.802  12.284   4.331  0.0687  0.1200  0.0285
  703POPC   GL2 8428   1.857  12.172   4.594 -0.0883 -0.2558 -0.0934
  703POPC   C1A 8429   1.396  12.472   4.506  0.2153 -0.1406  0.0423
  703POPC   D2A 8430   1.221  12.701   4.922  0.1035  0.1615 -0.0950
  703POPC   C3A 8431   1.167  12.566   5.336 -0.0856  0.2665  0.3208
  703POPC   C4A 8432   1.006  12.426   5.749  0.2718 -0.0511  0.0413
  703POPC   C1B 8433   2.149  12.368   4.877  0.4215 -0.1513 -0.1916
  703POPC   C2B 8434   2.212  12.404   5.345 -0.2965  0.2660 -0.1250
  703POPC   C3B 8435   2.473  12.313   5.660 -0.0685  0.0321 -0.0290
  703POPC   C4B 8436   2.642  12.547   5.991 -0.0752  0.3798  0.0171
  704POPC   NC3 8437  10.583  16.799   5.153 -0.2021 -0.4026  0.0498
  704POPC   PO4 8438  10.274  17.047   5.095  0.0538 -0.2413  0.4428
  704POPC   GL1 8439  10.320  17.029   5.538  0.1093  0.1307 -0.5572
  704POPC   GL2 8440  10.001  16.958   5.638 -0.0607 -0.2519  0.2675
  704POPC   C1A 8441  10.648  16.940   5.882  0.1344  0.1185  0.5223
  704POPC   D2A 8442  11.095  17.038   6.046 -0.1564 -0.0126  0.2931
  704POPC   C3A 8443  11.383  16.748   6.225 -0.2219 -0.0213 -0.1284
  704POPC   C4A 8444  11.603  16.541   6.529 -0.2332 -0.0643 -0.2966
  704POPC   C1B 8445  10.152  16.741   6.026 -0.0814  0.1433  0.1653
  704POPC   C2B 8446  10.358  16.494   6.354  0.0179 -0.3590 -0.0236
  704POPC   C3B 8447  10.403  16.172   6.749 -0.3983 -0.2014 -0.1319
  704POPC   C4B 8448  10.420  15.870   7.061  0.0202 -0.0211  0.0736
  705POPC   NC3 8449   4.682  10.445   5.184  0.1881 -0.0985  0.0304
  705POPC   PO4 8450   4.714  10.042   5.216  0.2383  0.0696  0.0775
  705POPC   GL1 8451   4.586  10.123   5.541  0.0228 -0.4083  0.1322
  705POPC   GL2 8452   4.766   9.879   5.699 -0.1697 -0.0719 -0.1797
  705POPC   C1A 8453   4.305  10.247   5.918 -0.1725 -0.0417 -0.0054
  705POPC   D2A 8454   4.023  10.272   6.269  0.1846 -0.1729  0.1861
  705POPC   C3A 8455   4.037  10.649   6.521 -0.1032 -0.1194  0.0563
  705POPC   C4A 8456   4.108  10.934   6.876 -0.0119  0.1878 -0.0914
  705POPC   C1B 8457   4.665  10.015   6.131  0.0058 -0.3535  0.0154
  705POPC   C2B 8458   4.445   9.895   6.453  0.3009  0.0374  0.1440
  705POPC   C3B 8459   4.263  10.107   6.832 -0.1620  0.2913  0.0862
  705POPC   C4B 8460   4.018  10.441   7.076 -0.3885 -0.0702  0.3133
  706POPC   NC3 8461  11.251   6.618   9.026  0.1312  0.0209 -0.3060
  706POPC   PO4 8462  11.275   6.783   8.656 -0.1658  0.2261 -0.0201
  706POPC   GL1 8463  11.566   6.998   8.636 -0.1110  0.2363  0.0236
  706POPC   GL2 8464  11.719   6.830   8.835  0.1631 -0.0095 -0.1001
  706POPC   C1A 8465  11.987   7.177   8.487 -0.0477 -0.1441  0.2568
  706POPC   D2A 8466  12.197   7.330   8.078  0.2381  0.1443  0.0550
  706POPC   C3A 8467  12.485   7.589   7.838  0.1724 -0.1520  0.1758
  706POPC   C4A 8468  12.805   7.892   7.704 -0.1556  0.3988  0.0328
  706POPC   C1B 8469  11.701   6.846   9.235  0.3327 -0.1128  0.1556
  706POPC   C2B 8470  12.003   6.576   9.477 -0.2478 -0.1902  0.1485
  706POPC   C3B 8471  12.220   6.327   9.709 -0.0383  0.0945 -0.3815
  706POPC   C4B 8472  12.334   5.896   9.903  0.3921 -0.0173 -0.2271
  707POPC   NC3 8473   4.474  10.942   3.864 -0.2323  0.0087  0.0193
  707POPC   PO4 8474   4.507  11.173   4.194  0.0653 -0.0006 -0.1553
  707POPC   GL1 8475   4.368  11.352   4.513  0.1324  0.3489  0.2299
  707POPC   GL2 8476   4.105  11.528   4.599  0.0934  0.1876  0.1156
  707POPC   C1A 8477   4.527  11.488   4.935  0.1668 -0.0392 -0.0738
  707POPC   D2A 8478   4.335  11.538   5.325 -0.2207 -0.0550 -0.0139
  707POPC   C3A 8479   4.384  11.255   5.748  0.0042 -0.1110  0.0934
  707POPC   C4A 8480   4.672  11.034   5.951  0.0245 -0.0533 -0.1483
  707POPC   C1B 8481   3.936  11.723   5.006  0.1175 -0.3798 -0.0591
  707POPC   C2B 8482   3.901  12.113   5.333  0.3202 -0.0986  0.0031
  707POPC   C3B 8483   3.629  12.488   5.277 -0.1053 -0.0753  0.0534
  707POPC   C4B 8484   3.504  12.822   5.542 -0.0049 -0.3259  0.2245
  708POPC   NC3 8485   8.835   5.803  12.722 -0.4861 -0.0279 -0.0247
  708POPC   PO4 8486   8.846   6.087  13.007 -0.0877  0.1258 -0.2259
  708POPC   GL1 8487   8.667   6.393  12.953  0.3114 -0.0578 -0.3854
  708POPC   GL2 8488   8.840   6.606  12.995  0.0613  0.1236  0.0866
  708POPC   C1A 8489   8.296   6.627  13.140  0.2426 -0.5111 -0.1792
  708POPC   D2A 8490   7.877   6.882  13.046 -0.1905  0.0463 -0.0033
  708POPC   C3A 8491   7.748   7.275  12.949 -0.0570  0.0814  0.0170
  708POPC   C4A 8492   7.425   7.597  12.839  0.0948 -0.0291  0.1354
  708POPC   C1B 8493   8.707   7.000  13.222 -0.3088 -0.2228  0.2091
  708POPC   C2B 8494   8.712   7.359  13.484 -0.0446 -0.2001 -0.0816
  708POPC   C3B 8495   8.618   7.608  13.883 -0.2751  0.0582 -0.1223
  708POPC   C4B 8496   8.298   7.594  14.231  0.0893 -0.0007 -0.1060
  709POPC   NC3 8497  11.554   3.791   6.517  0.1684  0.0042 -0.0996
  709POPC   PO4 8498  11.304   3.516   6.353 -0.3529  0.1707  0.0420
  709POPC   GL1 8499  11.243   3.250   6.742 -0.5837 -0.2760 -0.2170
  709POPC   GL2 8500  11.372   3.512   6.951  0.1229  0.2889 -0.2646
  709POPC   C1A 8501  11.489   2.915   6.988 -0.1829  0.0185  0.2801
  709POPC   D2A 8502  11.464   2.709   7.437 -0.3931  0.0271 -0.2445
  709POPC   C3A 8503  11.539   2.511   7.835  0.2577  0.0297  0.0519
  709POPC   C4A 8504  11.742   2.447   8.229 -0.1847  0.0583  0.2758
  709POPC   C1B 8505  11.297   3.281   7.378  0.2823  0.0608  0.0349
  709POPC   C2B 8506  11.449   3.069   7.732 -0.0727 -0.1294  0.3158
  709POPC   C3B 8507  11.659   3.169   8.092 -0.0846  0.3679 -0.1841
  709POPC   C4B 8508  11.807   3.252   8.505 -0.1341  0.0955  0.1615
  710POPC   NC3 8509   5.329   9.968   5.648  0.0437  0.1985 -0.0175
  710POPC   PO4 8510   5.188   9.808   5.356  0.1662 -0.0094  0.1968
  710POPC   GL1 8511   5.032  10.274   5.448 -0.1989  0.3278  0.1575
  710POPC   GL2 8512   5.186  10.533   5.533  0.1372 -0.0358  0.0498
  710POPC   C1A 8513   4.740  10.448   5.820 -0.0584  0.2418  0.0119
  710POPC   D2A 8514   4.565  10.460   6.312  0.0736  0.0692  0.1768
  710POPC   C3A 8515   4.497  10.861   6.454 -0.3016 -0.0613 -0.1731
  710POPC   C4A 8516   4.485  11.291   6.515  0.0419  0.1462 -0.0566
  710POPC   C1B 8517   5.193  10.712   5.961 -0.3067  0.0362 -0.0698
  710POPC   C2B 8518   5.027  10.658   6.382  0.0479 -0.1922 -0.2754
  710POPC   C3B 8519   4.863  10.776   6.785 -0.2151 -0.1170 -0.1631
  710POPC   C4B 8520   4.607  11.044   7.052  0.3212 -0.2662 -0.2193
  711POPC   NC3 8521   9.206   6.137  11.336 -0.1081 -0.0918  0.3927
  711POPC   PO4 8522   8.817   6.179  11.164 -0.2560  0.0258 -0.1119
  711POPC   GL1 8523   8.476   6.108  11.239  0.1134  0.0253 -0.4146
  711POPC   GL2 8524   8.369   6.110  11.006  0.2040 -0.0513  0.2824
  711POPC   C1A 8525   8.103   6.273  11.463  0.0252  0.0962 -0.0970
  711POPC   D2A 8526   7.803   6.457  11.190  0.2802 -0.1219  0.0275
  711POPC   C3A 8527   7.849   6.196  10.788  0.0809 -0.4646 -0.1265
  711POPC   C4A 8528   7.766   6.236  10.354 -0.2618  0.1568  0.0777
  711POPC   C1B 8529   8.195   6.520  10.917 -0.1590 -0.1893 -0.0364
  711POPC   C2B 8530   7.796   6.716  10.780 -0.3705 -0.1190  0.1324
  711POPC   C3B 8531   7.437   6.559  10.634  0.0683  0.3954  0.1788
  711POPC   C4B 8532   6.963   6.699  10.675  0.0165  0.0929 -0.4101
  712POPC   NC3 8533   9.673   2.836   7.199  0.2807  0.3950 -0.0534
  712POPC   PO4 8534   9.902   2.958   6.919 -0.4444 -0.0781 -0.0832
  712POPC   GL1 8535   9.985   2.604   6.911  0.2498  0.0177 -0.0492
  712POPC   GL2 8536   9.794   2.479   6.694 -0.0944 -0.1855  0.2716
  712POPC   C1A 8537  10.316   2.276   6.986 -0.2953  0.0898  0.2522
  712POPC   D2A 8538  10.419   1.834   7.129 -0.1595  0.1451  0.0736
  712POPC   C3A 8539  10.584   1.688   7.562 -0.3478 -0.0331 -0.0690
  712POPC   C4A 8540  10.541   1.262   7.763 -0.0712  0.0394  0.0085
  712POPC   C1B 8541   9.764   2.280   7.125 -0.0517 -0.0632 -0.1476
  712POPC   C2B 8542   9.668   2.304   7.586 -0.0227 -0.0499  0.1183
  712POPC   C3B 8543   9.460   2.211   7.951  0.1878 -0.0504 -0.1235
  712POPC   C4B 8544   9.263   1.864   8.193 -0.1695  0.0660 -0.0244
  713POPC   NC3 8545  15.269   9.217   4.504  0.0667 -0.2432  0.0670
  713POPC   PO4 8546  15.425   9.438   4.841  0.2101  0.0485 -0.0421
  713POPC   GL1 8547  15.727   9.533   5.147 -0.2047 -0.0264  0.0892
  713POPC   GL2 8548  15.523   9.649   5.298  0.1223 -0.0212  0.1795
  713POPC   C1A 8549  15.985   9.859   5.395 -0.2768  0.3493 -0.1563
  713POPC   D2A 8550  16.036  10.318   5.509 -0.1390  0.2008 -0.1581
  713POPC   C3A 8551  16.279  10.239   5.861  0.0610 -0.0570 -0.0118
  713POPC   C4A 8552  16.313  10.283   6.309 -0.3035 -0.1830 -0.0029
  713POPC   C1B 8553  15.659   9.470   5.684 -0.0679  0.1824 -0.2023
  713POPC   C2B 8554  15.534   9.445   6.114  0.0538 -0.1321  0.0137
  713POPC   C3B 8555  15.726   9.508   6.494 -0.2012  0.0443 -0.2104
  713POPC   C4B 8556  15.771   9.753   6.908 -0.5381  0.3885 -0.1810
  714POPC   NC3 8557   2.553   3.822   4.770  0.1269  0.2112 -0.0184
  714POPC   PO4 8558   2.615   4.053   5.111  0.0334 -0.1132  0.0718
  714POPC   GL1 8559   2.633   4.016   5.446  0.1461 -0.0121 -0.0915
  714POPC   GL2 8560   2.762   3.783   5.569  0.0521  0.1452 -0.0188
  714POPC   C1A 8561   2.331   4.095   5.829  0.2091  0.0366 -0.1860
  714POPC   D2A 8562   1.904   4.039   6.047 -0.0407 -0.1425 -0.1928
  714POPC   C3A 8563   1.434   3.910   6.206 -0.3051  0.2210  0.3851
  714POPC   C4A 8564   1.047   3.621   6.364 -0.0433  0.1414  0.1737
  714POPC   C1B 8565   3.080   3.566   5.878  0.0296  0.2575  0.1992
  714POPC   C2B 8566   2.975   3.243   6.242 -0.0057  0.0139  0.1995
  714POPC   C3B 8567   2.619   2.972   6.338 -0.3116  0.0639 -0.1466
  714POPC   C4B 8568   2.295   2.791   6.630 -0.0118  0.1135 -0.2272
  715POPC   NC3 8569  10.625   7.030  10.148 -0.2514 -0.3227 -0.0703
  715POPC   PO4 8570  10.787   6.758  10.394 -0.1539  0.2243  0.0200
  715POPC   GL1 8571  11.188   6.933  10.472 -0.1300  0.6535  0.2015
  715POPC   GL2 8572  11.275   7.149  10.258 -0.1570 -0.1106  0.0379
  715POPC   C1A 8573  11.478   6.830  10.864  0.0149  0.2355  0.1881
  715POPC   D2A 8574  11.805   6.768  11.187  0.1991  0.1784  0.0576
  715POPC   C3A 8575  11.875   6.289  11.142  0.0521  0.1101  0.0159
  715POPC   C4A 8576  11.921   5.917  10.939 -0.1924 -0.3364 -0.1258
  715POPC   C1B 8577  11.424   7.320  10.617  0.0880 -0.0955 -0.3150
  715POPC   C2B 8578  11.512   7.285  11.071  0.2404  0.3053 -0.1140
  715POPC   C3B 8579  11.429   7.598  11.440 -0.1951 -0.1455 -0.0805
  715POPC   C4B 8580  11.103   7.767  11.684  0.0268 -0.1718  0.1372
  716POPC   NC3 8581   5.802  14.796   4.154  0.0826  0.0936 -0.1514
  716POPC   PO4 8582   6.023  14.602   4.368  0.0026 -0.0105 -0.1623
  716POPC   GL1 8583   6.180  14.668   4.782  0.1269 -0.2208  0.2013
  716POPC   GL2 8584   6.455  14.769   4.887  0.2272 -0.3116  0.1644
  716POPC   C1A 8585   6.129  14.395   5.139  0.0622  0.2655  0.1796
  716POPC   D2A 8586   5.962  14.301   5.559 -0.0721 -0.1742  0.2464
  716POPC   C3A 8587   6.098  14.467   5.969  0.2877 -0.0320 -0.0731
  716POPC   C4A 8588   6.260  14.331   6.388 -0.1994  0.5070 -0.0650
  716POPC   C1B 8589   6.195  15.138   5.021  0.1655  0.0632 -0.2415
  716POPC   C2B 8590   5.768  15.193   5.146  0.0918  0.0819 -0.2140
  716POPC   C3B 8591   5.347  15.099   5.223  0.1670 -0.0615  0.1528
  716POPC   C4B 8592   5.027  15.271   5.553 -0.2897 -0.0698  0.1103
  717POPC   NC3 8593   5.398  15.672   4.472 -0.0326 -0.0089  0.0563
  717POPC   PO4 8594   5.007  15.788   4.513 -0.1323  0.0560  0.0823
  717POPC   GL1 8595   4.886  16.045   4.777  0.1695  0.1181  0.3218
  717POPC   GL2 8596   5.108  16.304   4.822  0.1085 -0.0583 -0.2152
  717POPC   C1A 8597   4.688  16.472   4.940 -0.2852 -0.1317 -0.0087
  717POPC   D2A 8598   4.467  16.785   5.092 -0.0029 -0.2830  0.0662
  717POPC   C3A 8599   4.488  16.877   5.550  0.1214  0.1857 -0.2452
  717POPC   C4A 8600   4.325  17.106   5.916  0.0773 -0.0977  0.2259
  717POPC   C1B 8601   5.068  16.094   5.255 -0.0553 -0.2663 -0.2121
  717POPC   C2B 8602   5.057  15.768   5.635  0.0920  0.1887 -0.0618
  717POPC   C3B 8603   4.947  15.675   6.101 -0.1297  0.2204  0.3138
  717POPC   C4B 8604   4.844  15.304   6.351  0.0145  0.3625 -0.1675
  718POPC   NC3 8605  15.607   8.215   5.603  0.0870 -0.2868  0.3020
  718POPC   PO4 8606  15.594   8.518   5.300  0.0530 -0.1977  0.2987
  718POPC   GL1 8607  15.886   8.585   5.429  0.1484 -0.6281  0.1270
  718POPC   GL2 8608  16.109   8.404   5.493 -0.0348 -0.0727  0.2405
  718POPC   C1A 8609  15.887   8.933   5.734 -0.1200  0.0918  0.2767
  718POPC   D2A 8610  15.930   9.175   6.153  0.3202 -0.1849  0.0942
  718POPC   C3A 8611  15.999   8.872   6.434 -0.2767  0.1300  0.0036
  718POPC   C4A 8612  16.008   8.675   6.811  0.0086 -0.1555  0.5945
  718POPC   C1B 8613  16.027   8.220   5.907 -0.1675 -0.2501  0.0839
  718POPC   C2B 8614  16.179   7.919   6.174 -0.0954 -0.0528  0.1002
  718POPC   C3B 8615  16.484   7.605   6.242  0.3212  0.1345 -0.1504
  718POPC   C4B 8616  16.438   7.303   6.606  0.1882  0.1493 -0.3267
  719POPC   NC3 8617   8.428  14.621   4.395 -0.2926  0.2963 -0.2340
  719POPC   PO4 8618   8.195  14.578   4.740  0.0042  0.0086 -0.1717
  719POPC   GL1 8619   8.181  14.686   5.171  0.0197  0.1773 -0.1359
  719POPC   GL2 8620   8.314  14.558   5.401  0.0703 -0.2758  0.0683
  719POPC   C1A 8621   7.795  14.641   5.532  0.4000 -0.1089 -0.2052
  719POPC   D2A 8622   7.746  14.607   6.017 -0.1802  0.1288  0.1077
  719POPC   C3A 8623   7.494  14.985   6.174 -0.2463  0.0452 -0.0871
  719POPC   C4A 8624   7.226  15.334   6.398  0.0079 -0.1697  0.1657
  719POPC   C1B 8625   8.659  14.585   5.705 -0.2474  0.0310  0.0679
  719POPC   C2B 8626   8.494  14.816   6.135 -0.3703  0.0417 -0.1600
  719POPC   C3B 8627   8.652  15.224   6.226 -0.1913 -0.1657 -0.1254
  719POPC   C4B 8628   8.656  15.529   6.601  0.0850 -0.1544 -0.1858
  720POPC   NC3 8629  11.554   4.568   7.636 -0.0144  0.0289  0.1297
  720POPC   PO4 8630  11.302   4.558   7.962  0.1066 -0.1625  0.1668
  720POPC   GL1 8631  11.488   4.434   8.199  0.0164 -0.0219  0.2564
  720POPC   GL2 8632  11.754   4.457   8.269  0.1332 -0.0617  0.2558
  720POPC   C1A 8633  11.293   4.088   8.449 -0.0217  0.1423  0.1367
  720POPC   D2A 8634  11.127   3.983   8.881 -0.3050 -0.1719 -0.2207
  720POPC   C3A 8635  11.157   3.613   9.192  0.1279 -0.0858  0.0218
  720POPC   C4A 8636  11.535   3.466   9.327 -0.1962 -0.1355  0.0362
  720POPC   C1B 8637  11.771   4.022   8.469  0.1444 -0.0593  0.0247
  720POPC   C2B 8638  12.092   3.667   8.424  0.0351  0.0359  0.1645
  720POPC   C3B 8639  12.544   3.666   8.495 -0.1895 -0.0124  0.2282
  720POPC   C4B 8640  12.942   3.938   8.428 -0.3839  0.1923 -0.1877
  721POPC   NC3 8641   1.847  11.358   4.182  0.1049 -0.0007 -0.1757
  721POPC   PO4 8642   2.153  11.242   4.322 -0.4700  0.0085 -0.0538
  721POPC   GL1 8643   2.096  11.137   4.592 -0.1454  0.3228 -0.1215
  721POPC   GL2 8644   1.817  11.265   4.718  0.0236  0.2269  0.2057
  721POPC   C1A 8645   2.407  11.219   4.963  0.1673  0.2186  0.0360
  721POPC   D2A 8646   2.338  11.376   5.392  0.1041  0.1524 -0.0216
  721POPC   C3A 8647   2.665  11.676   5.532 -0.0226 -0.1122  0.1651
  721POPC   C4A 8648   2.610  11.909   5.943 -0.0629  0.1650 -0.2449
  721POPC   C1B 8649   1.879  11.285   5.133  0.0108 -0.4924 -0.2914
  721POPC   C2B 8650   1.854  11.433   5.570 -0.1774 -0.2884 -0.2201
  721POPC   C3B 8651   1.526  11.269   5.830  0.0836 -0.2661  0.0278
  721POPC   C4B 8652   1.157  11.034   5.974  0.0269  0.1946 -0.3899
  722POPC   NC3 8653   0.478   2.995   4.554 -0.0597 -0.2651 -0.0112
  722POPC   PO4 8654   0.268   3.179   4.775  0.0850 -0.1108  0.6231
  722POPC   GL1 8655   0.162   2.943   5.090  0.0294  0.1588 -0.1210
  722POPC   GL2 8656  -0.077   2.839   5.158  0.4154  0.1883 -0.1005
  722POPC   C1A 8657   0.367   2.861   5.486  0.3323  0.3396 -0.0762
  722POPC   D2A 8658   0.707   2.924   5.835 -0.0058  0.0109  0.1809
  722POPC   C3A 8659   0.511   2.797   6.235 -0.1036 -0.0291 -0.4857
  722POPC   C4A 8660   0.298   2.591   6.558 -0.2145  0.1757  0.1594
  722POPC   C1B 8661  -0.209   2.934   5.626  0.2852  0.0877  0.2923
  722POPC   C2B 8662  -0.475   2.829   5.972  0.0717 -0.0812  0.0784
  722POPC   C3B 8663  -0.456   2.896   6.445  0.1442 -0.0301 -0.0691
  722POPC   C4B 8664  -0.223   2.757   6.760 -0.1004 -0.0813  0.0893
  723POPC   NC3 8665   3.088   1.553   4.841 -0.0987 -0.3046  0.4023
  723POPC   PO4 8666   3.029   1.935   4.887 -0.0341 -0.2606 -0.0047
  723POPC   GL1 8667   3.150   1.891   5.251 -0.1947  0.0440  0.3282
  723POPC   GL2 8668   3.401   1.920   5.351  0.0012 -0.1306 -0.0633
  723POPC   C1A 8669   2.829   1.907   5.568  0.0665 -0.1782  0.1840
  723POPC   D2A 8670   2.592   2.058   5.896 -0.4896 -0.2560 -0.1734
  723POPC   C3A 8671   2.163   2.068   6.043 -0.0274 -0.0681 -0.0568
  723POPC   C4A 8672   1.755   1.941   6.135 -0.1253 -0.1777  0.3100
  723POPC   C1B 8673   3.280   1.906   5.839 -0.2830 -0.0093  0.3925
  723POPC   C2B 8674   2.961   1.970   6.203 -0.1411 -0.0939  0.1981
  723POPC   C3B 8675   2.512   2.113   6.405 -0.1399  0.1856 -0.0568
  723POPC   C4B 8676   2.079   2.061   6.572  0.1303 -0.3185  0.1904
  724POPC   NC3 8677   1.572   2.629   4.650  0.1770 -0.2466 -0.0953
  724POPC   PO4 8678   1.286   2.468   4.834  0.0824 -0.1736 -0.2179
  724POPC   GL1 8679   1.390   2.626   5.149 -0.1236 -0.0692  0.1160
  724POPC   GL2 8680   1.577   2.868   5.103  0.1685  0.1636 -0.1020
  724POPC   C1A 8681   1.344   2.278   5.460 -0.0584 -0.0415  0.0012
  724POPC   D2A 8682   1.328   2.008   5.826  0.1337 -0.0901  0.1126
  724POPC   C3A 8683   1.351   2.203   6.185 -0.1586  0.1205  0.0394
  724POPC   C4A 8684   1.299   2.308   6.700 -0.0989  0.0172 -0.1338
  724POPC   C1B 8685   1.475   2.776   5.589  0.1976  0.1992  0.3243
  724POPC   C2B 8686   1.526   2.849   6.065  0.0191 -0.0998  0.4384
  724POPC   C3B 8687   1.482   2.751   6.530 -0.0656  0.0649 -0.1253
  724POPC   C4B 8688   1.727   2.631   6.900  0.1906  0.2321  0.0060
  725POPC   NC3 8689  14.917  12.719   4.148  0.2549 -0.3628  0.1340
  725POPC   PO4 8690  14.702  12.498   4.389  0.2515 -0.2998 -0.2522
  725POPC   GL1 8691  14.652  12.732   4.761 -0.3438 -0.0912 -0.0152
  725POPC   GL2 8692  14.375  12.648   4.807  0.1525 -0.1598 -0.4087
  725POPC   C1A 8693  14.727  12.900   5.166  0.1404 -0.2090  0.1115
  725POPC   D2A 8694  14.859  12.694   5.516  0.2007 -0.0579 -0.0952
  725POPC   C3A 8695  15.065  12.910   5.872 -0.0897  0.3587  0.0818
  725POPC   C4A 8696  15.376  13.250   5.956  0.1532 -0.1880 -0.0295
  725POPC   C1B 8697  14.447  12.326   5.162  0.2784 -0.2971 -0.0021
  725POPC   C2B 8698  14.378  12.360   5.625 -0.2697 -0.1025 -0.1299
  725POPC   C3B 8699  14.373  12.383   6.092 -0.1656  0.0642  0.1941
  725POPC   C4B 8700  14.603  12.567   6.420 -0.0650 -0.0116 -0.0788
  726POPC   NC3 8701   7.529   1.357   5.754 -0.2211 -0.0918  0.3756
  726POPC   PO4 8702   7.837   1.360   6.009  0.3590  0.2229  0.0052
  726POPC   GL1 8703   7.893   1.129   6.273 -0.0536 -0.0568 -0.3726
  726POPC   GL2 8704   7.648   1.227   6.480  0.2650  0.0273 -0.3216
  726POPC   C1A 8705   7.841   0.761   6.605 -0.0126  0.0754 -0.1456
  726POPC   D2A 8706   7.585   0.571   6.980  0.0043  0.1685 -0.2283
  726POPC   C3A 8707   7.262   0.742   7.270 -0.1072  0.0125  0.0378
  726POPC   C4A 8708   7.160   1.009   7.621  0.0942 -0.3018  0.1179
  726POPC   C1B 8709   7.757   1.099   6.934  0.0621 -0.3194 -0.1885
  726POPC   C2B 8710   7.737   0.950   7.422 -0.1248 -0.4315  0.2284
  726POPC   C3B 8711   7.593   0.780   7.814 -0.1705  0.1010 -0.2239
  726POPC   C4B 8712   7.428   0.695   8.241 -0.1851 -0.2169 -0.1006
  727POPC   NC3 8713  11.178  13.487   4.642  0.2575 -0.3989  0.5266
  727POPC   PO4 8714  10.781  13.483   4.730  0.1437  0.0176 -0.1097
  727POPC   GL1 8715  10.845  13.358   5.081  0.2517  0.2106  0.4462
  727POPC   GL2 8716  10.615  13.501   5.215 -0.0733 -0.0496  0.1727
  727POPC   C1A 8717  10.740  12.970   5.288  0.2603  0.1440 -0.3077
  727POPC   D2A 8718  10.797  12.847   5.749 -0.1464  0.2485 -0.2980
  727POPC   C3A 8719  11.114  13.069   5.963  0.0084 -0.1134  0.3405
  727POPC   C4A 8720  11.500  13.110   6.208  0.0494  0.2824  0.1789
  727POPC   C1B 8721  10.567  13.289   5.615 -0.4282 -0.1734 -0.2348
  727POPC   C2B 8722  10.689  13.241   6.082  0.0138  0.1115  0.2114
  727POPC   C3B 8723  10.711  13.472   6.423  0.1144 -0.2804 -0.2124
  727POPC   C4B 8724  10.460  13.837   6.425  0.2064  0.1493  0.1198
  728POPC   NC3 8725   2.719   8.727   4.940 -0.2660  0.0961 -0.1885
  728POPC   PO4 8726   2.405   8.950   4.903  0.2972 -0.0217 -0.1542
  728POPC   GL1 8727   2.185   8.953   5.225 -0.0053 -0.0769  0.1152
  728POPC   GL2 8728   2.383   9.124   5.363  0.0198 -0.0742  0.1962
  728POPC   C1A 8729   1.951   8.910   5.642 -0.1091  0.1026  0.5673
  728POPC   D2A 8730   1.871   9.193   6.011 -0.2040  0.0011 -0.2155
  728POPC   C3A 8731   1.831   9.594   6.185 -0.1284 -0.3255 -0.0520
  728POPC   C4A 8732   2.011   9.866   6.417  0.3854  0.1682 -0.3926
  728POPC   C1B 8733   2.350   9.186   5.826 -0.0665  0.2191 -0.1025
  728POPC   C2B 8734   2.687   9.279   6.144 -0.2892  0.1886  0.1832
  728POPC   C3B 8735   3.009   9.044   6.426  0.1558  0.1642  0.1432
  728POPC   C4B 8736   3.119   8.958   6.816  0.3148 -0.0862  0.1266
  729POPC   NC3 8737   8.592   6.600  11.360  0.0056 -0.1460 -0.0841
  729POPC   PO4 8738   8.899   6.521  11.537  0.0961 -0.4853 -0.2240
  729POPC   GL1 8739   8.647   6.165  11.612  0.1984 -0.0224 -0.2262
  729POPC   GL2 8740   8.684   5.808  11.498 -0.0830 -0.1431  0.0249
  729POPC   C1A 8741   8.260   6.111  11.966 -0.0581  0.0067  0.5200
  729POPC   D2A 8742   7.975   6.396  12.198  0.0201  0.0439  0.0204
  729POPC   C3A 8743   7.667   6.306  12.515  0.2977 -0.4092  0.1001
  729POPC   C4A 8744   7.351   6.025  12.707 -0.5023 -0.1554 -0.0614
  729POPC   C1B 8745   8.220   5.776  11.623  0.3267 -0.2275 -0.2614
  729POPC   C2B 8746   7.787   5.637  11.512 -0.0030 -0.1932 -0.3877
  729POPC   C3B 8747   7.415   5.706  11.627  0.0064  0.0755  0.0310
  729POPC   C4B 8748   6.956   5.636  11.870  0.0243 -0.0411  0.0177
  730POPC   NC3 8749  13.904   8.479   5.868  0.1890 -0.0639  0.1904
  730POPC   PO4 8750  13.622   8.446   6.118 -0.0281 -0.1788  0.0784
  730POPC   GL1 8751  13.881   8.506   6.341 -0.1146 -0.0245 -0.1772
  730POPC   GL2 8752  14.004   8.356   6.529  0.1816 -0.0936 -0.1066
  730POPC   C1A 8753  13.821   8.896   6.594 -0.1354  0.1375  0.1124
  730POPC   D2A 8754  13.585   9.288   6.687 -0.3742 -0.1734  0.3094
  730POPC   C3A 8755  13.654   9.491   7.090  0.2565 -0.3860  0.1691
  730POPC   C4A 8756  13.561   9.679   7.468  0.0423  0.0938  0.0423
  730POPC   C1B 8757  14.301   8.696   6.653  0.0353  0.2124 -0.0937
  730POPC   C2B 8758  14.617   8.846   6.902 -0.3269  0.2230  0.2783
  730POPC   C3B 8759  14.916   9.112   7.178  0.2718 -0.0687  0.0320
  730POPC   C4B 8760  15.003   9.495   7.434  0.0008  0.1042 -0.2458
  731POPC   NC3 8761   6.522  14.269   4.776  0.0705 -0.0688  0.2956
  731POPC   PO4 8762   6.778  13.978   4.672  0.3271  0.0284 -0.2162
  731POPC   GL1 8763   6.559  13.766   4.958  0.2516  0.0928 -0.4861
  731POPC   GL2 8764   6.789  13.748   5.150  0.1252  0.0269  0.1249
  731POPC   C1A 8765   6.427  13.955   5.378 -0.2374 -0.3821 -0.0178
  731POPC   D2A 8766   6.096  13.775   5.587  0.1330 -0.1822  0.2093
  731POPC   C3A 8767   6.334  13.482   5.878 -0.4075 -0.4150  0.2877
  731POPC   C4A 8768   6.136  13.471   6.319 -0.0798  0.1221 -0.1061
  731POPC   C1B 8769   7.175  13.806   5.354 -0.0618 -0.0357  0.0052
  731POPC   C2B 8770   7.458  13.868   5.721  0.1474  0.1493 -0.2415
  731POPC   C3B 8771   7.421  14.123   6.099 -0.2101  0.0947  0.1267
  731POPC   C4B 8772   7.701  14.309   6.429 -0.0403  0.0606 -0.0571
  732POPC   NC3 8773   6.672   4.704   6.387 -0.1469  0.1741 -0.1339
  732POPC   PO4 8774   7.052   4.642   6.385  0.3151 -0.2176 -0.1033
  732POPC   GL1 8775   7.018   4.489   6.739 -0.0007 -0.0295  0.1250
  732POPC   GL2 8776   6.862   4.624   6.920 -0.1007  0.0585 -0.2361
  732POPC   C1A 8777   7.064   4.170   7.057  0.0146  0.0308  0.2849
  732POPC   D2A 8778   7.347   4.101   7.427  0.0003 -0.1793  0.0290
  732POPC   C3A 8779   7.250   3.939   7.840  0.1037  0.1733 -0.0469
  732POPC   C4A 8780   7.064   3.657   8.186  0.3908 -0.1440 -0.1932
  732POPC   C1B 8781   6.622   4.673   7.318 -0.2482  0.3003 -0.0738
  732POPC   C2B 8782   6.335   4.542   7.706  0.1838 -0.0828  0.2206
  732POPC   C3B 8783   6.107   4.450   8.064 -0.3052  0.1394 -0.0529
  732POPC   C4B 8784   5.763   4.413   8.380 -0.1555  0.0294 -0.0688
  733POPC   NC3 8785  12.712   2.691   5.669  0.1115  0.0088  0.3649
  733POPC   PO4 8786  12.336   2.804   5.756  0.3733  0.2039 -0.2370
  733POPC   GL1 8787  12.416   2.635   6.137 -0.0646 -0.1420 -0.0924
  733POPC   GL2 8788  12.728   2.452   6.218 -0.0716 -0.0462 -0.0008
  733POPC   C1A 8789  12.333   2.551   6.592 -0.2216  0.0040 -0.2120
  733POPC   D2A 8790  12.524   2.580   6.973 -0.1774  0.0590  0.1237
  733POPC   C3A 8791  12.420   2.226   7.204  0.1092 -0.0040 -0.2143
  733POPC   C4A 8792  12.262   1.973   7.509  0.1741  0.0663 -0.0447
  733POPC   C1B 8793  12.724   2.233   6.646 -0.1089 -0.2164  0.0274
  733POPC   C2B 8794  12.964   2.299   7.028  0.1280 -0.0489 -0.1700
  733POPC   C3B 8795  13.350   2.107   7.260 -0.1431 -0.0574  0.2212
  733POPC   C4B 8796  13.726   2.155   7.155  0.2104 -0.0184 -0.2180
  734POPC   NC3 8797   4.927  12.853   4.239 -0.1235 -0.1343 -0.2462
  734POPC   PO4 8798   5.115  13.085   4.430 -0.0222 -0.2705  0.2859
  734POPC   GL1 8799   4.871  13.278   4.576  0.2190 -0.3444  0.2173
  734POPC   GL2 8800   4.667  13.107   4.750  0.3107  0.3026 -0.2629
  734POPC   C1A 8801   4.830  13.516   4.962  0.0027  0.3144 -0.0158
  734POPC   D2A 8802   4.883  13.428   5.428 -0.3343 -0.0457  0.1344
  734POPC   C3A 8803   4.553  13.237   5.678  0.0403 -0.2219 -0.0406
  734POPC   C4A 8804   4.297  13.417   6.036 -0.1132  0.0423 -0.2590
  734POPC   C1B 8805   4.525  13.186   5.151  0.1740 -0.0310 -0.1049
  734POPC   C2B 8806   4.240  13.457   5.326  0.0093 -0.1303  0.1596
  734POPC   C3B 8807   3.962  13.561   5.684  0.1014 -0.1939  0.0882
  734POPC   C4B 8808   3.836  13.648   6.144 -0.2468  0.1226  0.5949
  735POPC   NC3 8809   8.623   2.799   6.137  0.2551 -0.2245  0.2616
  735POPC   PO4 8810   8.474   2.434   6.214 -0.0624  0.0624 -0.0331
  735POPC   GL1 8811   8.344   2.171   6.577 -0.1198  0.1865  0.0958
  735POPC   GL2 8812   8.424   1.915   6.534 -0.3328  0.0043  0.1223
  735POPC   C1A 8813   8.065   1.993   6.892 -0.1940 -0.0338  0.1310
  735POPC   D2A 8814   7.955   2.028   7.316  0.1184  0.0517  0.1703
  735POPC   C3A 8815   8.073   1.711   7.673  0.0819  0.0333 -0.2080
  735POPC   C4A 8816   8.246   1.453   8.012  0.0640  0.1548  0.1254
  735POPC   C1B 8817   8.601   1.522   6.645  0.2126  0.0677 -0.3013
  735POPC   C2B 8818   8.695   1.135   6.556  0.1287  0.0675  0.0386
  735POPC   C3B 8819   8.851   0.800   6.787  0.0297 -0.1275  0.1310
  735POPC   C4B 8820   8.992   0.344   6.767  0.1403  0.3596  0.1736
  736POPC   NC3 8821  15.035  14.613   3.766  0.0862 -0.0299 -0.0472
  736POPC   PO4 8822  15.391  14.728   3.892 -0.2616  0.3740 -0.0861
  736POPC   GL1 8823  15.531  14.760   4.263 -0.1283  0.1241  0.4224
  736POPC   GL2 8824  15.299  14.805   4.409  0.0569 -0.1972 -0.0138
  736POPC   C1A 8825  15.798  14.861   4.629 -0.2856 -0.1661  0.0630
  736POPC   D2A 8826  16.099  14.827   4.980  0.2612 -0.1423  0.0494
  736POPC   C3A 8827  16.243  14.825   5.444  0.0896  0.0116 -0.0510
  736POPC   C4A 8828  16.569  14.865   5.668 -0.1369 -0.1530  0.3290
  736POPC   C1B 8829  15.138  14.465   4.708 -0.1690  0.1105 -0.1504
  736POPC   C2B 8830  15.256  14.229   5.057 -0.0088  0.3591 -0.0252
  736POPC   C3B 8831  15.335  14.186   5.498  0.1179 -0.1207 -0.2601
  736POPC   C4B 8832  15.579  14.312   5.914  0.1432 -0.0156  0.3676
  737POPC   NC3 8833   8.277   6.082   8.664 -0.0379  0.2782  0.3167
  737POPC   PO4 8834   8.196   6.407   8.417  0.0292 -0.2390 -0.2456
  737POPC   GL1 8835   8.019   6.525   8.732  0.1409  0.0610  0.0385
  737POPC   GL2 8836   7.805   6.277   8.799 -0.0428 -0.0388 -0.3968
  737POPC   C1A 8837   7.868   6.757   9.114 -0.0597 -0.2619 -0.0632
  737POPC   D2A 8838   7.623   7.117   9.320 -0.3429 -0.1641  0.3333
  737POPC   C3A 8839   7.196   7.090   9.404  0.2951  0.0402 -0.1315
  737POPC   C4A 8840   6.770   7.029   9.599  0.0170  0.2565  0.4420
  737POPC   C1B 8841   7.323   6.206   8.837 -0.1576 -0.1241  0.1227
  737POPC   C2B 8842   7.057   6.224   9.180  0.1969 -0.1910  0.1662
  737POPC   C3B 8843   6.765   5.983   9.395  0.0050  0.0363  0.1744
  737POPC   C4B 8844   6.480   5.659   9.448 -0.0105  0.1790 -0.2599
  738POPC   NC3 8845  13.229   6.274   6.768 -0.1219  0.2963  0.1257
  738POPC   PO4 8846  13.541   6.534   6.657  0.0133 -0.0856 -0.0083
  738POPC   GL1 8847  13.854   6.456   6.963 -0.2083 -0.3497  0.5076
  738POPC   GL2 8848  13.606   6.538   7.147 -0.0244 -0.0673 -0.1089
  738POPC   C1A 8849  14.256   6.515   7.216 -0.2955  0.0137 -0.0401
  738POPC   D2A 8850  14.333   6.398   7.626 -0.0152 -0.0424  0.2312
  738POPC   C3A 8851  14.718   6.169   7.732  0.2513 -0.0082 -0.1893
  738POPC   C4A 8852  15.029   6.113   8.027 -0.2778  0.0077  0.3980
  738POPC   C1B 8853  13.807   6.296   7.491  0.1139  0.1352 -0.1403
  738POPC   C2B 8854  14.032   5.993   7.742  0.0359 -0.0072 -0.0433
  738POPC   C3B 8855  14.307   5.915   8.081 -0.0594  0.1395  0.2023
  738POPC   C4B 8856  14.599   6.300   8.248 -0.1996 -0.1642  0.0014
  739POPC   NC3 8857   3.715   5.758   5.761 -0.1727  0.3565 -0.0497
  739POPC   PO4 8858   3.394   5.946   5.596 -0.2905  0.1608  0.0471
  739POPC   GL1 8859   3.380   6.166   5.898  0.0734 -0.0197 -0.1232
  739POPC   GL2 8860   3.056   6.112   5.945  0.0451 -0.0730  0.3014
  739POPC   C1A 8861   3.247   6.318   6.328 -0.0642 -0.0697  0.1184
  739POPC   D2A 8862   3.199   6.725   6.583 -0.0127 -0.1133  0.2565
  739POPC   C3A 8863   3.236   6.836   7.010 -0.0386 -0.0492 -0.0483
  739POPC   C4A 8864   3.372   7.231   7.255  0.3087  0.1115 -0.0950
  739POPC   C1B 8865   2.920   5.936   6.344  0.0044  0.1032 -0.1236
  739POPC   C2B 8866   3.201   5.898   6.707 -0.0308 -0.1916 -0.0560
  739POPC   C3B 8867   3.333   5.676   7.033 -0.0275 -0.3071  0.2168
  739POPC   C4B 8868   3.469   5.560   7.403  0.3535  0.0032  0.0578
  740POPC   NC3 8869   2.954   3.676   4.997  0.1544  0.1794  0.0188
  740POPC   PO4 8870   2.958   3.341   5.231  0.0803 -0.1474 -0.2084
  740POPC   GL1 8871   2.739   3.336   5.593  0.0801  0.0624  0.1143
  740POPC   GL2 8872   2.786   3.108   5.782 -0.2545  0.0094 -0.1514
  740POPC   C1A 8873   2.575   3.507   5.978  0.3165 -0.2936 -0.1822
  740POPC   D2A 8874   2.321   3.795   6.326 -0.0009 -0.1826  0.2091
  740POPC   C3A 8875   2.306   3.803   6.774 -0.2150  0.1902 -0.1672
  740POPC   C4A 8876   2.323   3.860   7.202  0.0886  0.2077 -0.0185
  740POPC   C1B 8877   3.077   2.820   5.998  0.1347 -0.0538  0.0457
  740POPC   C2B 8878   3.360   2.507   6.182  0.1613 -0.1150  0.2810
  740POPC   C3B 8879   3.501   2.089   6.281  0.3849 -0.0491 -0.2644
  740POPC   C4B 8880   3.793   1.764   6.527 -0.0440 -0.1472 -0.0448
  741POPC   NC3 8881  12.683   6.776   6.716 -0.2583  0.0428  0.0353
  741POPC   PO4 8882  12.717   6.405   6.772  0.1220 -0.2739  0.0634
  741POPC   GL1 8883  12.976   6.404   7.133  0.1350 -0.1118  0.1188
  741POPC   GL2 8884  12.744   6.276   7.298 -0.1849  0.3540  0.1171
  741POPC   C1A 8885  13.340   6.166   7.292  0.2508 -0.0133  0.0965
  741POPC   D2A 8886  13.428   5.986   7.739 -0.0482 -0.1086  0.1332
  741POPC   C3A 8887  13.614   5.807   8.107 -0.0075 -0.1222  0.1528
  741POPC   C4A 8888  13.958   5.883   8.473  0.3375  0.0924 -0.0606
  741POPC   C1B 8889  12.950   6.026   7.631 -0.0650  0.1197 -0.1509
  741POPC   C2B 8890  13.081   5.931   8.075  0.1107 -0.1470 -0.0003
  741POPC   C3B 8891  13.261   5.880   8.461 -0.0270  0.1652 -0.0778
  741POPC   C4B 8892  13.521   5.937   8.788 -0.2040 -0.0799  0.1131
  742POPC   NC3 8893   7.464  11.678   5.541  0.4086 -0.0595 -0.0868
  742POPC   PO4 8894   7.477  11.296   5.676 -0.2104 -0.2668  0.1546
  742POPC   GL1 8895   7.413  11.349   6.047 -0.2048  0.1664  0.5405
  742POPC   GL2 8896   7.578  11.182   6.268  0.0758  0.3575  0.2833
  742POPC   C1A 8897   7.333  11.696   6.293 -0.2234  0.0531  0.0220
  742POPC   D2A 8898   7.302  11.860   6.681 -0.1586 -0.1405 -0.1824
  742POPC   C3A 8899   7.469  12.323   6.650 -0.0553 -0.0802  0.2786
  742POPC   C4A 8900   7.605  12.714   6.562  0.1119  0.0437 -0.0500
  742POPC   C1B 8901   7.564  11.371   6.697  0.1691  0.1248 -0.1207
  742POPC   C2B 8902   7.588  11.687   7.035  0.1194 -0.1284  0.2468
  742POPC   C3B 8903   7.165  11.828   7.132 -0.1073 -0.1383  0.0384
  742POPC   C4B 8904   6.674  11.783   7.146  0.0931  0.1588  0.1059
  743POPC   NC3 8905  14.300   6.252   6.171 -0.0492 -0.0869 -0.1085
  743POPC   PO4 8906  14.014   6.396   5.912  0.1058 -0.3050  0.0670
  743POPC   GL1 8907  13.906   6.413   6.335 -0.1031 -0.2984  0.0518
  743POPC   GL2 8908  13.885   6.190   6.464 -0.3181 -0.0408  0.2017
  743POPC   C1A 8909  14.260   6.451   6.661  0.1582  0.0144  0.0660
  743POPC   D2A 8910  14.648   6.625   6.889 -0.0200 -0.2714 -0.3032
  743POPC   C3A 8911  15.032   6.420   6.878 -0.0464 -0.1747  0.0037
  743POPC   C4A 8912  15.013   5.973   6.908 -0.2000  0.0133 -0.1615
  743POPC   C1B 8913  14.238   5.958   6.667  0.0315  0.1806  0.1868
  743POPC   C2B 8914  14.430   5.567   6.920 -0.0982  0.2293 -0.0915
  743POPC   C3B 8915  14.558   5.394   7.328  0.0103 -0.1974  0.2265
  743POPC   C4B 8916  14.874   5.283   7.610 -0.1075 -0.3409 -0.1841
  744POPC   NC3 8917   6.346  13.414   5.345  0.0091 -0.2652  0.2023
  744POPC   PO4 8918   6.209  13.316   4.974 -0.0593  0.0601  0.1593
  744POPC   GL1 8919   6.109  13.058   5.264  0.1422 -0.1642 -0.0004
  744POPC   GL2 8920   6.362  12.886   5.270  0.0465  0.0996  0.2297
  744POPC   C1A 8921   5.921  13.111   5.683  0.0670  0.1155 -0.1839
  744POPC   D2A 8922   5.786  13.114   6.146  0.0464  0.1848  0.0585
  744POPC   C3A 8923   5.472  13.348   6.233  0.3210 -0.2462  0.1364
  744POPC   C4A 8924   5.138  13.656   6.415  0.1544 -0.0125  0.1952
  744POPC   C1B 8925   6.410  12.967   5.708  0.0149  0.1568  0.0955
  744POPC   C2B 8926   6.277  12.980   6.115  0.0367  0.0977 -0.1423
  744POPC   C3B 8927   6.528  13.046   6.477  0.1154  0.2118  0.2572
  744POPC   C4B 8928   6.787  12.807   6.816  0.3999 -0.4137  0.1134
  745POPC   NC3 8929   5.775   1.399   4.845  0.1005 -0.2486  0.0808
  745POPC   PO4 8930   5.858   1.356   5.210  0.1199  0.1105  0.1749
  745POPC   GL1 8931   5.783   1.338   5.589  0.1177  0.1727  0.1134
  745POPC   GL2 8932   5.698   1.028   5.608  0.0078 -0.1312 -0.1356
  745POPC   C1A 8933   5.350   1.302   5.777  0.2080  0.0787 -0.0634
  745POPC   D2A 8934   5.115   1.426   6.121 -0.2548 -0.0542  0.2716
  745POPC   C3A 8935   5.169   1.673   6.520 -0.0311  0.2305 -0.0777
  745POPC   C4A 8936   5.106   1.885   6.937 -0.1427 -0.3044 -0.0912
  745POPC   C1B 8937   5.580   0.893   6.052 -0.1671  0.2389 -0.1841
  745POPC   C2B 8938   5.715   0.569   6.322 -0.1512 -0.0552  0.1555
  745POPC   C3B 8939   5.603   0.476   6.850  0.1367 -0.0087 -0.3531
  745POPC   C4B 8940   5.335   0.426   7.256 -0.0451  0.0024 -0.1093
  746POPC   NC3 8941   3.408  12.707   4.298 -0.1198  0.2091  0.0155
  746POPC   PO4 8942   3.342  12.353   4.156  0.1265 -0.0458 -0.0267
  746POPC   GL1 8943   3.066  12.335   4.375  0.0107 -0.1361  0.0245
  746POPC   GL2 8944   3.058  12.050   4.458  0.2791 -0.0599 -0.3120
  746POPC   C1A 8945   2.725  12.308   4.689 -0.1035  0.1568 -0.2232
  746POPC   D2A 8946   2.690  12.138   5.133  0.0500  0.0106 -0.0759
  746POPC   C3A 8947   2.985  12.185   5.484  0.0268  0.0526  0.1830
  746POPC   C4A 8948   3.318  12.343   5.779 -0.1495  0.2630 -0.0208
  746POPC   C1B 8949   3.112  11.976   4.899 -0.1607  0.1297  0.0286
  746POPC   C2B 8950   3.464  11.880   5.179 -0.1139 -0.0960 -0.1433
  746POPC   C3B 8951   3.513  11.896   5.603 -0.3627  0.1678  0.2654
  746POPC   C4B 8952   3.467  11.719   6.059 -0.0512 -0.2503  0.2398
  747POPC   NC3 8953   2.945   4.306   5.376  0.0737  0.0155 -0.0536
  747POPC   PO4 8954   3.276   4.401   5.201 -0.1465  0.5256  0.2535
  747POPC   GL1 8955   3.220   4.488   5.683 -0.1442  0.1266 -0.4128
  747POPC   GL2 8956   3.078   4.744   5.577  0.0250 -0.1044 -0.0547
  747POPC   C1A 8957   3.049   4.723   6.110 -0.2316  0.1831 -0.2675
  747POPC   D2A 8958   3.301   5.013   6.417  0.2339 -0.1926  0.0450
  747POPC   C3A 8959   3.038   5.353   6.539 -0.2135  0.0015  0.0839
  747POPC   C4A 8960   2.744   5.559   6.755 -0.3379 -0.2142  0.0658
  747POPC   C1B 8961   3.051   5.159   5.864 -0.0964 -0.0062 -0.1451
  747POPC   C2B 8962   2.827   5.475   6.131 -0.2407 -0.1401  0.0306
  747POPC   C3B 8963   2.451   5.699   6.302  0.3444  0.0971  0.1251
  747POPC   C4B 8964   2.015   5.843   6.233  0.1675  0.0067  0.0626
  748POPC   NC3 8965   6.446   5.367   5.975  0.2728 -0.4272 -0.1137
  748POPC   PO4 8966   6.444   5.161   6.358  0.0119 -0.3846 -0.1236
  748POPC   GL1 8967   6.318   5.061   6.671 -0.3035  0.6491 -0.3631
  748POPC   GL2 8968   6.449   4.984   6.945 -0.1977  0.0241 -0.1392
  748POPC   C1A 8969   5.943   4.920   6.891 -0.0697 -0.1802 -0.1682
  748POPC   D2A 8970   5.666   4.773   7.257 -0.0371 -0.0016 -0.2010
  748POPC   C3A 8971   5.255   4.588   7.375 -0.3350  0.2181 -0.1198
  748POPC   C4A 8972   5.234   4.294   7.738 -0.0156 -0.1234  0.3838
  748POPC   C1B 8973   6.275   5.039   7.404  0.1517 -0.1302 -0.0355
  748POPC   C2B 8974   6.000   4.927   7.780  0.0994  0.1786  0.2344
  748POPC   C3B 8975   5.524   4.793   7.870 -0.1559 -0.3916  0.0226
  748POPC   C4B 8976   5.214   4.622   8.195  0.1482 -0.0528  0.2849
  749POPC   NC3 8977  15.965  12.880   4.321 -0.1182  0.3095  0.2495
  749POPC   PO4 8978  15.620  12.830   4.507  0.0357  0.3374 -0.1314
  749POPC   GL1 8979  15.583  12.789   4.864  0.2805 -0.0123 -0.4705
  749POPC   GL2 8980  15.779  12.790   5.057 -0.4798 -0.0683 -0.1902
  749POPC   C1A 8981  15.295  12.620   5.235  0.0438 -0.0322  0.0717
  749POPC   D2A 8982  15.286  12.438   5.678  0.2322  0.4180  0.1793
  749POPC   C3A 8983  15.580  12.742   5.925 -0.2041 -0.2484 -0.0839
  749POPC   C4A 8984  15.473  12.910   6.332  0.0534 -0.3964 -0.1458
  749POPC   C1B 8985  16.080  12.856   5.388  0.1238 -0.4056  0.0674
  749POPC   C2B 8986  16.087  12.705   5.833 -0.2952  0.1554  0.3299
  749POPC   C3B 8987  16.399  12.694   6.166  0.2051 -0.1181  0.0433
  749POPC   C4B 8988  16.694  12.545   6.471 -0.0656 -0.0114  0.0645
  750POPC   NC3 8989  16.199  10.750   4.771 -0.2369 -0.1607  0.1532
  750POPC   PO4 8990  16.419  11.119   4.674  0.2710 -0.2073  0.0556
  750POPC   GL1 8991  16.470  11.003   5.054 -0.2504 -0.0134  0.0423
  750POPC   GL2 8992  16.304  11.157   5.185  0.1472 -0.2612 -0.0867
  750POPC   C1A 8993  16.820  10.832   5.303 -0.1388  0.4281 -0.1976
  750POPC   D2A 8994  17.078  10.657   5.691 -0.2053 -0.0999  0.2174
  750POPC   C3A 8995  17.078  10.857   6.050  0.3149 -0.0020  0.0641
  750POPC   C4A 8996  16.839  11.146   6.323 -0.0981  0.0940 -0.1241
  750POPC   C1B 8997  16.527  11.490   5.344 -0.0162 -0.0691 -0.0042
  750POPC   C2B 8998  16.866  11.816   5.169 -0.0475  0.1936 -0.2288
  750POPC   C3B 8999  16.927  12.258   5.349  0.2267  0.2233 -0.2130
  750POPC   C4B 9000  17.008  12.685   5.488  0.0759 -0.0715 -0.2661
  751POPC   NC3 9001   7.238  15.226   4.787  0.2059 -0.4440 -0.0965
  751POPC   PO4 9002   7.269  14.856   4.644  0.1473  0.1730  0.0759
  751POPC   GL1 9003   7.029  14.853   5.034  0.2003 -0.1752 -0.0996
  751POPC   GL2 9004   6.926  14.546   5.045 -0.0625 -0.2129 -0.2416
  751POPC   C1A 9005   7.052  14.812   5.500  0.0720 -0.2611 -0.2651
  751POPC   D2A 9006   7.340  14.687   5.787  0.3659 -0.1891 -0.1735
  751POPC   C3A 9007   7.243  14.570   6.239  0.1352  0.2202  0.2721
  751POPC   C4A 9008   7.336  14.726   6.654 -0.2783  0.4102 -0.0555
  751POPC   C1B 9009   6.952  14.286   5.439 -0.3402  0.0028  0.4177
  751POPC   C2B 9010   6.947  14.132   5.852  0.2642 -0.2090  0.1761
  751POPC   C3B 9011   6.790  14.253   6.282  0.1253 -0.0268 -0.1221
  751POPC   C4B 9012   6.864  14.111   6.713  0.0754  0.0257 -0.1628
  752POPC   NC3 9013   0.149   8.337   5.024 -0.1681 -0.1382  0.0774
  752POPC   PO4 9014   0.517   8.566   5.093  0.1910 -0.0050 -0.0991
  752POPC   GL1 9015   0.499   8.927   5.295  0.0671 -0.2289  0.2244
  752POPC   GL2 9016   0.621   8.837   5.556 -0.0224  0.2102 -0.4225
  752POPC   C1A 9017   0.396   9.301   5.546 -0.0716 -0.2609 -0.0260
  752POPC   D2A 9018   0.435   9.737   5.791  0.3665  0.2645 -0.0526
  752POPC   C3A 9019   0.534   9.946   6.179  0.1308  0.0082 -0.0449
  752POPC   C4A 9020   0.423  10.311   6.480  0.2833 -0.2895  0.0784
  752POPC   C1B 9021   0.551   8.539   5.950 -0.0325  0.1220  0.2805
  752POPC   C2B 9022   0.416   8.240   6.382 -0.1489 -0.0693  0.3861
  752POPC   C3B 9023   0.419   7.907   6.745  0.0195  0.1804  0.1781
  752POPC   C4B 9024   0.625   7.620   7.088 -0.2609 -0.1573 -0.2474
  753POPC   NC3 9025   5.101   8.071   5.412  0.0309 -0.2784  0.0315
  753POPC   PO4 9026   4.858   8.321   5.127  0.0234  0.0792  0.1115
  753POPC   GL1 9027   4.737   8.411   5.489  0.0311  0.0793  0.1294
  753POPC   GL2 9028   4.775   8.680   5.528  0.1686 -0.0876 -0.1855
  753POPC   C1A 9029   4.821   8.432   5.946 -0.0567 -0.2620 -0.2567
  753POPC   D2A 9030   4.962   8.610   6.337  0.1688  0.1353 -0.0799
  753POPC   C3A 9031   4.740   8.808   6.688  0.0213  0.1091 -0.2683
  753POPC   C4A 9032   4.767   9.245   6.934  0.0795 -0.1174  0.2309
  753POPC   C1B 9033   4.699   8.952   5.817  0.0633  0.0946  0.0034
  753POPC   C2B 9034   4.603   9.043   6.235 -0.0174  0.2784  0.2591
  753POPC   C3B 9035   4.337   9.386   6.437  0.1340 -0.1558  0.2938
  753POPC   C4B 9036   4.136   9.611   6.796 -0.0635  0.0276 -0.1049
  754POPC   NC3 9037  14.064   3.662   5.727 -0.2140 -0.1975  0.3367
  754POPC   PO4 9038  13.773   3.874   5.557 -0.0138  0.0161 -0.1742
  754POPC   GL1 9039  13.640   3.637   5.948  0.3234 -0.1791  0.2994
  754POPC   GL2 9040  13.582   3.720   6.277  0.1872 -0.1886 -0.1570
  754POPC   C1A 9041  13.948   3.314   6.128 -0.2855 -0.2175 -0.2145
  754POPC   D2A 9042  14.083   2.963   6.333  0.0310  0.2166  0.0030
  754POPC   C3A 9043  14.146   2.987   6.804 -0.1430  0.2791 -0.1401
  754POPC   C4A 9044  14.192   2.751   7.174  0.0470  0.4365 -0.3030
  754POPC   C1B 9045  13.749   3.502   6.677  0.0858  0.0198 -0.1389
  754POPC   C2B 9046  13.925   3.651   7.043 -0.0806 -0.1645 -0.2600
  754POPC   C3B 9047  13.979   3.787   7.492  0.1163 -0.0674  0.1056
  754POPC   C4B 9048  13.788   3.987   7.889 -0.1678  0.3341  0.3878
  755POPC   NC3 9049   8.776   4.174   7.532 -0.1139  0.3030 -0.0079
  755POPC   PO4 9050   8.662   4.000   7.897 -0.1236  0.1614  0.0541
  755POPC   GL1 9051   8.439   3.848   8.170 -0.0675 -0.1548  0.0862
  755POPC   GL2 9052   8.428   3.570   8.076  0.1795  0.0839  0.2218
  755POPC   C1A 9053   8.342   3.926   8.627  0.0006 -0.0324  0.0119
  755POPC   D2A 9054   8.293   4.072   9.040  0.0677  0.0108  0.1421
  755POPC   C3A 9055   7.983   3.868   9.312  0.2393 -0.2835 -0.0433
  755POPC   C4A 9056   7.838   3.561   9.610  0.0968 -0.1701  0.1345
  755POPC   C1B 9057   8.247   3.222   8.316  0.0343  0.3123  0.0590
  755POPC   C2B 9058   8.156   2.990   8.731 -0.0903  0.0938  0.0610
  755POPC   C3B 9059   7.933   2.997   9.103  0.0160 -0.0985 -0.1522
  755POPC   C4B 9060   7.725   2.636   9.288 -0.2399 -0.1193  0.0921
  756POPC   NC3 9061   2.011   4.225   5.462 -0.3465  0.1630 -0.0944
  756POPC   PO4 9062   1.741   4.422   5.252  0.0859 -0.0014  0.0432
  756POPC   GL1 9063   1.836   4.640   5.627 -0.0901 -0.1649 -0.0819
  756POPC   GL2 9064   1.611   4.524   5.782 -0.1586  0.0277  0.1288
  756POPC   C1A 9065   2.143   4.547   5.954 -0.3414 -0.1637 -0.2607
  756POPC   D2A 9066   2.118   4.351   6.403  0.2302 -0.1239 -0.2664
  756POPC   C3A 9067   1.902   3.977   6.564 -0.0231  0.1458 -0.0779
  756POPC   C4A 9068   1.456   3.905   6.757 -0.1289  0.1975 -0.0076
  756POPC   C1B 9069   1.686   4.778   6.201 -0.0600 -0.0386  0.1658
  756POPC   C2B 9070   1.518   4.863   6.596  0.1721  0.0458  0.0394
  756POPC   C3B 9071   1.281   4.878   7.014 -0.0205  0.2584 -0.1696
  756POPC   C4B 9072   1.056   4.942   7.375  0.0725 -0.0608 -0.0699
  757POPC   NC3 9073  11.197   6.844   8.143  0.1574  0.1025  0.0227
  757POPC   PO4 9074  11.292   7.248   8.198 -0.2801 -0.2860  0.1384
  757POPC   GL1 9075  11.308   7.527   8.489  0.1585 -0.2571  0.0661
  757POPC   GL2 9076  11.197   7.361   8.724  0.0695 -0.1063  0.0328
  757POPC   C1A 9077  11.649   7.699   8.769 -0.2414  0.1969  0.1443
  757POPC   D2A 9078  11.852   7.774   9.163 -0.0224 -0.0930 -0.2937
  757POPC   C3A 9079  12.218   8.064   9.159 -0.2543  0.3628 -0.1849
  757POPC   C4A 9080  12.321   8.506   9.317  0.0809  0.2304 -0.1290
  757POPC   C1B 9081  11.174   7.837   8.940  0.0200  0.0454  0.0479
  757POPC   C2B 9082  11.183   8.262   9.098 -0.0194 -0.1437 -0.2667
  757POPC   C3B 9083  11.069   8.637   9.349 -0.5296  0.2381  0.1205
  757POPC   C4B 9084  10.879   9.099   9.475 -0.1006 -0.0871  0.3259
  758POPC   NC3 9085   9.703   7.867   7.513  0.1086  0.0771  0.2554
  758POPC   PO4 9086   9.633   8.244   7.461 -0.1002  0.0853 -0.3538
  758POPC   GL1 9087   9.585   8.520   7.768  0.6814 -0.0452 -0.0275
  758POPC   GL2 9088   9.276   8.414   7.896 -0.1257 -0.1847  0.1079
  758POPC   C1A 9089   9.476   8.965   7.779 -0.0139  0.0904 -0.0071
  758POPC   D2A 9090   9.651   9.380   7.691 -0.3258 -0.2434 -0.1267
  758POPC   C3A 9091   9.861   9.585   8.071  0.2243  0.1882  0.0753
  758POPC   C4A 9092  10.038   9.539   8.467  0.0161  0.0359 -0.1918
  758POPC   C1B 9093   9.204   8.708   8.234  0.1503 -0.0380  0.1449
  758POPC   C2B 9094   9.124   9.042   8.566 -0.0964  0.0128  0.1226
  758POPC   C3B 9095   9.195   9.374   8.877  0.0985 -0.0304 -0.0438
  758POPC   C4B 9096   9.317   9.777   9.067  0.0002 -0.1678  0.1704
  759POPC   NC3 9097  13.679   6.060   6.028  0.3705 -0.0415 -0.1556
  759POPC   PO4 9098  13.462   5.987   6.373 -0.2107 -0.0294  0.0183
  759POPC   GL1 9099  13.612   5.759   6.704  0.1890  0.0779 -0.3164
  759POPC   GL2 9100  13.689   6.053   6.843  0.0389  0.0111 -0.2687
  759POPC   C1A 9101  13.924   5.467   6.847 -0.0574 -0.3089 -0.1988
  759POPC   D2A 9102  14.109   5.211   7.187  0.5104  0.1835 -0.1943
  759POPC   C3A 9103  14.223   5.182   7.603 -0.0587 -0.3051 -0.1297
  759POPC   C4A 9104  14.451   5.432   7.911  0.2919 -0.2289  0.0631
  759POPC   C1B 9105  14.061   6.032   7.165 -0.0116 -0.1193 -0.0513
  759POPC   C2B 9106  14.455   5.863   7.319 -0.1968  0.2561  0.0162
  759POPC   C3B 9107  14.853   5.754   7.467  0.1616  0.1033 -0.4959
  759POPC   C4B 9108  15.258   5.969   7.404  0.4244 -0.0422  0.1090
  760POPC   NC3 9109  16.448   0.209   4.157 -0.0284 -0.2882 -0.1908
  760POPC   PO4 9110  16.240  -0.140   4.236 -0.0879  0.4161 -0.1890
  760POPC   GL1 9111  16.186  -0.229   4.631  0.1797  0.4068 -0.0511
  760POPC   GL2 9112  16.117  -0.077   4.792 -0.0051 -0.2073  0.0044
  760POPC   C1A 9113  15.886  -0.581   4.817 -0.1193  0.3481  0.3347
  760POPC   D2A 9114  15.588  -0.587   5.187  0.1463 -0.1691  0.0031
  760POPC   C3A 9115  15.753  -0.706   5.608 -0.1748  0.0022 -0.1536
  760POPC   C4A 9116  15.855  -0.489   5.999  0.1266  0.3999 -0.5846
  760POPC   C1B 9117  16.468  -0.244   5.047  0.1505  0.0757  0.1728
  760POPC   C2B 9118  16.702  -0.538   5.317 -0.0371 -0.0667  0.1571
  760POPC   C3B 9119  16.778  -0.594   5.755 -0.0574  0.1032 -0.0698
  760POPC   C4B 9120  16.793  -0.671   6.194  0.5015  0.0802  0.0229
  761POPC   NC3 9121   3.622  15.402   3.705 -0.2254  0.3956  0.1711
  761POPC   PO4 9122   3.574  15.082   3.926 -0.2419  0.1116  0.1031
  761POPC   GL1 9123   3.436  14.953   4.187  0.6109  0.1504 -0.0507
  761POPC   GL2 9124   3.211  15.118   4.362 -0.1425  0.0580  0.2300
  761POPC   C1A 9125   3.413  14.689   4.548 -0.2079 -0.1372 -0.1318
  761POPC   D2A 9126   3.465  14.539   4.974 -0.3729 -0.2444  0.1462
  761POPC   C3A 9127   3.851  14.289   5.038 -0.0764  0.1778 -0.3607
  761POPC   C4A 9128   4.209  14.077   4.840  0.2881  0.2910 -0.0777
  761POPC   C1B 9129   3.305  15.206   4.827 -0.2388  0.0916 -0.0693
  761POPC   C2B 9130   3.345  15.011   5.236 -0.1868 -0.4197  0.1961
  761POPC   C3B 9131   3.520  14.892   5.622 -0.0367  0.0060 -0.2181
  761POPC   C4B 9132   3.804  15.075   5.935  0.2819 -0.1414  0.2843
  762POPC   NC3 9133   9.315   9.477   6.476 -0.2014 -0.1178  0.3553
  762POPC   PO4 9134   9.037   9.456   6.712  0.0985 -0.0223 -0.1980
  762POPC   GL1 9135   8.901   9.550   7.070  0.3136  0.0834 -0.2174
  762POPC   GL2 9136   9.033   9.719   7.263  0.1889  0.0349  0.2944
  762POPC   C1A 9137   8.550   9.656   7.299  0.1090 -0.1254 -0.0742
  762POPC   D2A 9138   8.155   9.836   7.317  0.0163  0.2574  0.0757
  762POPC   C3A 9139   7.782   9.747   7.541  0.2565  0.0836 -0.1831
  762POPC   C4A 9140   7.846   9.602   8.004 -0.2786 -0.2595  0.0523
  762POPC   C1B 9141   9.046  10.033   7.612  0.1606  0.3241 -0.1821
  762POPC   C2B 9142   8.817  10.277   7.979  0.1144 -0.0634  0.4215
  762POPC   C3B 9143   8.639  10.543   8.328  0.1495  0.1126 -0.5271
  762POPC   C4B 9144   8.769  10.926   8.546 -0.0089  0.2568 -0.2696
  763POPC   NC3 9145   9.687   0.680   5.516 -0.0804 -0.2924  0.1807
  763POPC   PO4 9146   9.928   0.442   5.331 -0.0340 -0.0644  0.0122
  763POPC   GL1 9147  10.071   0.351   5.618 -0.1114  0.3220 -0.0041
  763POPC   GL2 9148  10.352   0.418   5.732 -0.3648 -0.1683  0.1740
  763POPC   C1A 9149   9.806   0.347   6.004 -0.0925  0.0990 -0.1411
  763POPC   D2A 9150   9.561   0.128   6.237  0.0205 -0.0332  0.2441
  763POPC   C3A 9151   9.113   0.291   6.269 -0.2326 -0.1053  0.3271
  763POPC   C4A 9152   8.971   0.714   6.319 -0.1812 -0.1550 -0.3039
  763POPC   C1B 9153  10.233   0.147   6.103  0.0880  0.2029  0.0636
  763POPC   C2B 9154  10.011  -0.110   6.467 -0.0433 -0.2730 -0.1329
  763POPC   C3B 9155  10.002  -0.438   6.788  0.0179 -0.4368  0.1827
  763POPC   C4B 9156   9.899  -0.838   7.083  0.4169  0.0049  0.0475
  764POPC   NC3 9157   0.359   7.346   4.954  0.1117  0.0145 -0.0325
  764POPC   PO4 9158   0.283   7.675   5.172  0.1064 -0.2061  0.1772
  764POPC   GL1 9159   0.525   7.694   5.511 -0.1132  0.2294  0.3234
  764POPC   GL2 9160   0.325   7.641   5.680  0.0177  0.1195 -0.0931
  764POPC   C1A 9161   0.664   7.987   5.890  0.1500  0.2899  0.3060
  764POPC   D2A 9162   0.889   8.268   6.165  0.2047  0.0694 -0.2402
  764POPC   C3A 9163   0.964   8.083   6.598 -0.0288 -0.3597 -0.0642
  764POPC   C4A 9164   0.932   8.132   7.085  0.2302  0.0408  0.0670
  764POPC   C1B 9165   0.719   7.428   5.885  0.3334 -0.0251 -0.2934
  764POPC   C2B 9166   0.990   7.288   6.265  0.1385  0.2404 -0.0241
  764POPC   C3B 9167   1.366   7.419   6.420 -0.1247 -0.1613 -0.0160
  764POPC   C4B 9168   1.686   7.470   6.762  0.0954  0.2010  0.1064
  765POPC   NC3 9169  13.073   8.238   6.753  0.2403 -0.1678  0.1284
  765POPC   PO4 9170  13.153   8.225   6.348  0.2186 -0.0107 -0.3705
  765POPC   GL1 9171  13.447   8.509   6.545  0.0821 -0.0524 -0.0929
  765POPC   GL2 9172  13.394   8.733   6.717  0.0541  0.0805  0.0281
  765POPC   C1A 9173  13.743   8.423   6.926  0.1329  0.0677 -0.1430
  765POPC   D2A 9174  14.077   8.692   7.087 -0.3221  0.1278  0.1978
  765POPC   C3A 9175  14.466   8.441   7.081 -0.0801 -0.0658 -0.2074
  765POPC   C4A 9176  14.731   8.220   7.380  0.2252  0.3565 -0.2729
  765POPC   C1B 9177  13.671   8.956   7.045 -0.0980  0.3699  0.0573
  765POPC   C2B 9178  13.726   9.179   7.471 -0.0414 -0.0179  0.0899
  765POPC   C3B 9179  14.045   9.501   7.640  0.2576 -0.0470  0.0187
  765POPC   C4B 9180  14.483   9.757   7.695  0.1842  0.0994 -0.0301
  766POPC   NC3 9181   9.786  16.826   5.177 -0.2333 -0.0603 -0.1093
  766POPC   PO4 9182   9.743  16.450   5.110 -0.2345  0.0081  0.1286
  766POPC   GL1 9183   9.685  16.378   5.506 -0.0128 -0.2025 -0.1444
  766POPC   GL2 9184   9.703  16.558   5.661  0.0069 -0.2271  0.1025
  766POPC   C1A 9185   9.742  16.039   5.856 -0.0818 -0.0818  0.0109
  766POPC   D2A 9186   9.517  15.698   6.107 -0.1390 -0.0663 -0.0568
  766POPC   C3A 9187   9.306  15.673   6.460  0.1356  0.0702 -0.0372
  766POPC   C4A 9188   9.106  15.900   6.801 -0.0629  0.2385 -0.1412
  766POPC   C1B 9189   9.277  16.449   5.742 -0.1300 -0.0229  0.0656
  766POPC   C2B 9190   9.033  16.526   6.137  0.0206  0.6950 -0.1372
  766POPC   C3B 9191   8.909  16.287   6.549 -0.3213 -0.1004  0.1369
  766POPC   C4B 9192   8.623  16.051   6.909  0.0565  0.2063  0.1349
  767POPC   NC3 9193  15.166   3.573   5.313  0.1264 -0.3070 -0.3691
  767POPC   PO4 9194  15.003   3.294   5.106  0.0118  0.1009  0.0143
  767POPC   GL1 9195  15.013   2.964   5.456  0.0702  0.0011 -0.1571
  767POPC   GL2 9196  14.858   3.179   5.592 -0.2194  0.2289 -0.0208
  767POPC   C1A 9197  15.424   2.736   5.607  0.0694  0.1584 -0.1810
  767POPC   D2A 9198  15.577   2.323   5.796 -0.1744 -0.1025  0.2506
  767POPC   C3A 9199  15.488   2.040   6.151  0.0746  0.4042  0.1082
  767POPC   C4A 9200  15.547   1.881   6.534 -0.1640 -0.4215  0.2410
  767POPC   C1B 9201  15.338   3.231   5.735  0.1808  0.2177 -0.0900
  767POPC   C2B 9202  15.443   2.987   6.118 -0.1955 -0.2458  0.4605
  767POPC   C3B 9203  15.679   2.778   6.464 -0.0612  0.0423 -0.1806
  767POPC   C4B 9204  16.109   2.586   6.649  0.0381 -0.0155  0.3259
  768POPC   NC3 9205   9.632   7.157  10.469 -0.0562 -0.0173  0.0334
  768POPC   PO4 9206   9.364   7.069  10.219 -0.0525  0.1646 -0.1645
  768POPC   GL1 9207   9.427   7.491  10.291 -0.0722 -0.1768 -0.2035
  768POPC   GL2 9208   9.229   7.600  10.466  0.0842 -0.3575  0.0746
  768POPC   C1A 9209   9.633   7.905  10.478  0.1225 -0.1144  0.0656
  768POPC   D2A 9210   9.841   8.297  10.579  0.1661 -0.0063 -0.0414
  768POPC   C3A 9211  10.309   8.423  10.508 -0.2827 -0.4001  0.2246
  768POPC   C4A 9212  10.628   8.574  10.232  0.0674  0.0593 -0.1369
  768POPC   C1B 9213   9.051   7.966  10.519  0.1242  0.3192  0.1441
  768POPC   C2B 9214   8.893   8.395  10.524 -0.2844  0.1966 -0.2619
  768POPC   C3B 9215   9.170   8.687  10.772 -0.1558 -0.3130  0.0914
  768POPC   C4B 9216   9.632   8.822  10.760  0.1255 -0.2475  0.2218
  769POPC   NC3 9217   8.328   3.026   6.900 -0.0918  0.0296  0.2968
  769POPC   PO4 9218   8.686   2.962   6.924  0.0879  0.1026  0.0777
  769POPC   GL1 9219   8.909   2.652   7.019  0.2058  0.1663  0.0366
  769POPC   GL2 9220   9.149   2.900   7.111  0.1050  0.1353  0.1186
  769POPC   C1A 9221   8.969   2.359   7.373  0.2589 -0.0990  0.0333
  769POPC   D2A 9222   8.977   2.086   7.758 -0.0969  0.0500  0.0658
  769POPC   C3A 9223   8.737   1.822   8.042  0.0474 -0.0843  0.1542
  769POPC   C4A 9224   8.477   1.620   8.425 -0.0230 -0.2211 -0.1915
  769POPC   C1B 9225   9.057   2.860   7.550  0.2345 -0.1710  0.0023
  769POPC   C2B 9226   9.092   2.542   7.895  0.0145 -0.0932 -0.0321
  769POPC   C3B 9227   8.987   2.376   8.359  0.1913  0.2546 -0.0135
  769POPC   C4B 9228   8.694   2.149   8.573 -0.1549  0.2551 -0.0314
  770POPC   NC3 9229   2.347  13.938   4.021  0.1633  0.2244 -0.0715
  770POPC   PO4 9230   2.704  13.831   3.877 -0.2955  0.1338  0.3264
  770POPC   GL1 9231   2.727  13.829   4.226 -0.2272 -0.1546  0.1929
  770POPC   GL2 9232   2.963  13.834   4.435 -0.2506  0.1054  0.2385
  770POPC   C1A 9233   2.612  14.131   4.543 -0.2030  0.1479  0.0621
  770POPC   D2A 9234   2.690  14.318   4.948 -0.1119  0.1417 -0.0455
  770POPC   C3A 9235   2.999  14.357   5.282 -0.3553 -0.2099  0.2377
  770POPC   C4A 9236   3.419  14.429   5.453 -0.0623 -0.1106  0.1517
  770POPC   C1B 9237   2.819  13.781   4.869 -0.0550  0.2523 -0.0959
  770POPC   C2B 9238   2.899  13.677   5.304 -0.5165 -0.2367  0.0368
  770POPC   C3B 9239   2.737  13.731   5.722 -0.4399  0.1573  0.3286
  770POPC   C4B 9240   2.880  13.870   6.147  0.0211 -0.2098 -0.1665
  771POPC   NC3 9241  13.774   0.891   4.988  0.1127  0.1208  0.0878
  771POPC   PO4 9242  13.788   1.275   5.053  0.2040  0.1770  0.0269
  771POPC   GL1 9243  13.892   1.195   5.375  0.2510  0.0238  0.2033
  771POPC   GL2 9244  14.194   1.140   5.355 -0.0450 -0.0396  0.1753
  771POPC   C1A 9245  13.796   1.248   5.826 -0.0940  0.1782  0.1464
  771POPC   D2A 9246  13.649   1.108   6.229  0.0543 -0.1418 -0.0925
  771POPC   C3A 9247  13.620   1.449   6.581  0.0547  0.2725 -0.2146
  771POPC   C4A 9248  13.641   1.645   7.012 -0.0165  0.0462 -0.3705
  771POPC   C1B 9249  14.318   0.791   5.595  0.0512  0.1048 -0.0468
  771POPC   C2B 9250  14.658   0.503   5.612  0.2010  0.0864 -0.1017
  771POPC   C3B 9251  15.015   0.549   5.916  0.1454 -0.1245 -0.1231
  771POPC   C4B 9252  15.187   0.361   6.287 -0.1076  0.1347 -0.0237
  772POPC   NC3 9253   3.918   9.790   4.999 -0.1033 -0.1279  0.2339
  772POPC   PO4 9254   4.251  10.003   4.902 -0.2242 -0.2552 -0.0709
  772POPC   GL1 9255   4.276  10.253   5.246 -0.1911 -0.5050  0.0317
  772POPC   GL2 9256   4.090  10.165   5.433 -0.0414  0.3271 -0.1278
  772POPC   C1A 9257   4.289  10.612   5.548  0.0996  0.0966 -0.0937
  772POPC   D2A 9258   4.307  10.751   5.986 -0.2726 -0.1903  0.0267
  772POPC   C3A 9259   4.025  11.080   6.192 -0.4078  0.0682  0.1689
  772POPC   C4A 9260   3.679  11.356   6.374 -0.3356  0.2547 -0.3716
  772POPC   C1B 9261   3.801   9.945   5.807 -0.0976  0.2701  0.0306
  772POPC   C2B 9262   3.638   9.535   5.959 -0.0800  0.1931  0.0568
  772POPC   C3B 9263   3.310   9.468   6.272 -0.0151  0.4344 -0.3341
  772POPC   C4B 9264   3.485   9.141   6.535 -0.1334 -0.1429 -0.0487
  773POPC   NC3 9265   9.264  15.115   5.144 -0.0535  0.0235  0.0578
  773POPC   PO4 9266   8.934  15.200   4.957 -0.0650 -0.3790  0.0420
  773POPC   GL1 9267   8.804  15.287   5.300  0.2058  0.0910  0.0682
  773POPC   GL2 9268   8.627  15.047   5.387 -0.1850 -0.0510 -0.3771
  773POPC   C1A 9269   9.087  15.151   5.638 -0.2267 -0.2093 -0.2964
  773POPC   D2A 9270   8.962  14.842   5.959  0.0013 -0.3344  0.1845
  773POPC   C3A 9271   8.897  14.868   6.413 -0.0753 -0.1629 -0.2341
  773POPC   C4A 9272   8.775  15.006   6.835 -0.0790  0.1873  0.1568
  773POPC   C1B 9273   8.275  14.996   5.679 -0.0014  0.0739  0.0286
  773POPC   C2B 9274   7.992  15.029   6.112  0.0938 -0.0416 -0.0653
  773POPC   C3B 9275   7.800  15.002   6.597 -0.0624  0.2024  0.3684
  773POPC   C4B 9276   7.487  15.238   6.854 -0.0681 -0.2008  0.1546
  774POPC   NC3 9277   8.739   6.367  10.700  0.3314 -0.2699 -0.0562
  774POPC   PO4 9278   8.854   6.761  10.700  0.0955  0.3668  0.1451
  774POPC   GL1 9279   8.623   6.836  10.937 -0.0802 -0.1367 -0.2792
  774POPC   GL2 9280   8.822   7.011  11.136  0.1702 -0.0886 -0.0499
  774POPC   C1A 9281   8.219   6.985  11.068  0.3096 -0.2257  0.3175
  774POPC   D2A 9282   7.954   7.003  11.482  0.0962  0.2400  0.1622
  774POPC   C3A 9283   7.895   6.641  11.718  0.1888 -0.1923  0.1411
  774POPC   C4A 9284   7.767   6.157  11.788  0.2835 -0.1194 -0.0285
  774POPC   C1B 9285   8.551   7.094  11.430 -0.1897 -0.0859  0.2047
  774POPC   C2B 9286   8.257   7.287  11.696 -0.1249  0.1238  0.0528
  774POPC   C3B 9287   7.892   7.255  12.005  0.3921  0.1638  0.0543
  774POPC   C4B 9288   7.728   7.485  12.342  0.2836 -0.2701  0.0117
  775POPC   NC3 9289   7.505   0.956   6.045 -0.0595  0.0238 -0.1328
  775POPC   PO4 9290   7.296   0.956   5.680 -0.3740 -0.1121 -0.3478
  775POPC   GL1 9291   7.130   1.188   6.044  0.2978  0.1359  0.2561
  775POPC   GL2 9292   7.146   1.427   6.076 -0.2173 -0.0300 -0.4023
  775POPC   C1A 9293   7.105   0.853   6.374  0.1935  0.2372  0.2924
  775POPC   D2A 9294   7.265   0.517   6.652  0.0426 -0.0589  0.0930
  775POPC   C3A 9295   6.949   0.196   6.705  0.1563 -0.0082  0.2011
  775POPC   C4A 9296   6.844  -0.128   6.939 -0.1364  0.0312 -0.0619
  775POPC   C1B 9297   7.161   1.375   6.541 -0.1858  0.2210  0.0818
  775POPC   C2B 9298   7.197   0.990   6.803  0.0162 -0.0188 -0.1632
  775POPC   C3B 9299   6.897   0.695   6.933 -0.0138 -0.0724 -0.2525
  775POPC   C4B 9300   6.743   0.302   7.150 -0.0552 -0.1771 -0.1516
  776POPC   NC3 9301   2.030   6.137   4.799 -0.1324 -0.2792 -0.0630
  776POPC   PO4 9302   1.814   6.300   5.100 -0.1562 -0.0749  0.0080
  776POPC   GL1 9303   1.681   6.274   5.377  0.2515 -0.5501 -0.0753
  776POPC   GL2 9304   1.502   6.516   5.449 -0.0170 -0.0416 -0.2338
  776POPC   C1A 9305   1.886   6.303   5.812 -0.0159 -0.3694  0.0034
  776POPC   D2A 9306   1.958   6.358   6.271  0.4618 -0.4210 -0.1534
  776POPC   C3A 9307   2.055   6.099   6.648  0.0745 -0.2120  0.2522
  776POPC   C4A 9308   2.358   5.801   6.813 -0.0625 -0.2766 -0.2683
  776POPC   C1B 9309   1.482   6.559   5.851  0.2024  0.0886  0.1441
  776POPC   C2B 9310   1.458   6.293   6.180 -0.1755 -0.0073 -0.1570
  776POPC   C3B 9311   1.542   6.214   6.620 -0.2284  0.1166  0.1399
  776POPC   C4B 9312   1.565   6.177   7.046  0.2340  0.1575  0.3193
  777POPC   NC3 9313  13.561   2.397   5.395  0.1349 -0.0610 -0.0475
  777POPC   PO4 9314  13.809   2.077   5.376 -0.1184 -0.1090 -0.1473
  777POPC   GL1 9315  13.617   1.962   5.750  0.1076 -0.1307  0.2082
  777POPC   GL2 9316  13.369   2.068   5.719 -0.3066  0.3201 -0.0212
  777POPC   C1A 9317  13.755   1.726   6.108 -0.0879 -0.0494  0.3110
  777POPC   D2A 9318  14.076   1.505   6.407 -0.0779 -0.1932 -0.1342
  777POPC   C3A 9319  14.069   1.683   6.837 -0.2330  0.0286 -0.0377
  777POPC   C4A 9320  13.945   1.693   7.336 -0.0052  0.2105 -0.0514
  777POPC   C1B 9321  12.961   1.976   6.019 -0.1617  0.0162 -0.1485
  777POPC   C2B 9322  12.765   1.825   6.385 -0.1094 -0.0412  0.1209
  777POPC   C3B 9323  12.865   1.787   6.850 -0.0218 -0.1120 -0.2002
  777POPC   C4B 9324  13.146   1.635   7.192 -0.1876  0.4269 -0.2307
  778POPC   NC3 9325  16.003   3.945   5.067  0.0958  0.0964  0.8435
  778POPC   PO4 9326  15.610   3.987   4.914 -0.0738  0.2060  0.0675
  778POPC   GL1 9327  15.694   4.062   5.354 -0.0281  0.0714  0.4541
  778POPC   GL2 9328  15.674   4.386   5.388  0.1743  0.1601  0.1627
  778POPC   C1A 9329  15.503   3.715   5.647 -0.0383 -0.5035 -0.1695
  778POPC   D2A 9330  15.185   3.702   5.932 -0.0902  0.3184 -0.2411
  778POPC   C3A 9331  15.052   3.674   6.397 -0.0483  0.0875  0.1623
  778POPC   C4A 9332  14.867   3.347   6.595  0.1944 -0.1095  0.0340
  778POPC   C1B 9333  16.052   4.284   5.533 -0.2567 -0.1136 -0.1020
  778POPC   C2B 9334  16.319   4.173   5.868 -0.1640  0.2486 -0.2700
  778POPC   C3B 9335  16.470   4.227   6.330 -0.1060 -0.1940  0.2596
  778POPC   C4B 9336  16.522   4.400   6.802 -0.0388  0.0792  0.2960
  779POPC   NC3 9337   0.245   3.858   5.247 -0.0710 -0.3086 -0.0277
  779POPC   PO4 9338   0.579   3.679   5.429 -0.0249  0.3530  0.1878
  779POPC   GL1 9339   0.502   3.687   5.807  0.0307 -0.2619 -0.0533
  779POPC   GL2 9340   0.741   3.582   5.935 -0.1364  0.0532  0.1020
  779POPC   C1A 9341   0.484   3.830   6.294  0.0190 -0.0774 -0.2129
  779POPC   D2A 9342   0.425   3.684   6.723  0.1095  0.1325 -0.0497
  779POPC   C3A 9343   0.058   3.503   6.887  0.2143  0.0255 -0.0190
  779POPC   C4A 9344  -0.317   3.291   6.751 -0.0109 -0.2606  0.1122
  779POPC   C1B 9345   0.661   3.310   6.280  0.3480  0.1179  0.2450
  779POPC   C2B 9346   0.827   3.373   6.736 -0.1766 -0.1221  0.4554
  779POPC   C3B 9347   0.994   3.215   7.170  0.1162 -0.0670 -0.0075
  779POPC   C4B 9348   1.230   2.950   7.416 -0.1612 -0.4927 -0.0044
  780POPC   NC3 9349  14.808   5.950   5.450 -0.0455 -0.1957 -0.0325
  780POPC   PO4 9350  14.529   6.097   5.695 -0.0918 -0.2659  0.0941
  780POPC   GL1 9351  14.756   6.184   6.059 -0.1933 -0.2374 -0.2205
  780POPC   GL2 9352  14.752   5.970   6.146 -0.1120  0.2922  0.1727
  780POPC   C1A 9353  14.744   6.239   6.532  0.1818 -0.1724  0.0822
  780POPC   D2A 9354  14.553   6.180   6.984  0.0832  0.2110  0.3378
  780POPC   C3A 9355  14.800   6.388   7.307  0.0194 -0.1031 -0.1068
  780POPC   C4A 9356  14.877   6.717   7.681  0.0391  0.1030 -0.0377
  780POPC   C1B 9357  14.706   5.763   6.560  0.0291  0.2156  0.0625
  780POPC   C2B 9358  14.888   5.480   6.899 -0.0680  0.1437  0.1162
  780POPC   C3B 9359  15.223   5.353   7.142 -0.2718 -0.0257  0.1952
  780POPC   C4B 9360  15.443   5.384   7.566  0.1644  0.1184  0.0062
  781POPC   NC3 9361  11.145   5.485  10.600  0.2132  0.1401  0.1231
  781POPC   PO4 9362  11.243   5.849  10.496  0.3552 -0.1290  0.2198
  781POPC   GL1 9363  11.621   6.045  10.473 -0.2221  0.2783  0.0680
  781POPC   GL2 9364  11.576   6.005  10.155  0.4174 -0.0951 -0.1164
  781POPC   C1A 9365  11.984   6.356  10.598  0.0351  0.0980  0.1447
  781POPC   D2A 9366  12.206   6.628  10.932  0.0841  0.0812 -0.3389
  781POPC   C3A 9367  11.982   7.009  10.836  0.1315  0.0719 -0.1445
  781POPC   C4A 9368  11.911   7.446  10.731 -0.4642  0.2163  0.1033
  781POPC   C1B 9369  12.027   6.163  10.194  0.0199  0.2624 -0.1028
  781POPC   C2B 9370  12.421   6.272  10.325  0.0334  0.2588 -0.1505
  781POPC   C3B 9371  12.743   5.953  10.398 -0.2815 -0.0157  0.1301
  781POPC   C4B 9372  12.825   5.487  10.468  0.0601  0.0691  0.0660
  782POPC   NC3 9373  15.073   4.608   5.733  0.2980  0.2561  0.0608
  782POPC   PO4 9374  15.179   4.659   5.369  0.1702  0.1592  0.0453
  782POPC   GL1 9375  15.478   4.738   5.691 -0.0909  0.3249 -0.1145
  782POPC   GL2 9376  15.542   4.417   5.830 -0.0719 -0.0907  0.0607
  782POPC   C1A 9377  15.646   4.865   6.115  0.1159  0.0293  0.1090
  782POPC   D2A 9378  15.574   4.836   6.559 -0.0021  0.1948  0.0717
  782POPC   C3A 9379  15.564   5.284   6.761 -0.0053  0.0816 -0.2679
  782POPC   C4A 9380  15.461   5.727   6.897  0.3718 -0.1305 -0.4075
  782POPC   C1B 9381  15.778   4.041   5.887 -0.1789 -0.4183  0.1628
  782POPC   C2B 9382  15.677   3.608   6.136 -0.1807 -0.1396  0.2316
  782POPC   C3B 9383  15.446   3.364   6.478 -0.4260 -0.1586  0.3078
  782POPC   C4B 9384  15.287   3.571   6.867  0.2761 -0.1184 -0.4553
  783POPC   NC3 9385  16.476  12.309   4.038  0.1669  0.3277  0.1162
  783POPC   PO4 9386  16.231  12.333   4.380 -0.1749 -0.1781 -0.1346
  783POPC   GL1 9387  16.055  12.479   4.752 -0.1618  0.1041 -0.0655
  783POPC   GL2 9388  16.251  12.490   4.964  0.2090 -0.2697 -0.0094
  783POPC   C1A 9389  15.868  12.292   5.150  0.0107 -0.2528 -0.1175
  783POPC   D2A 9390  15.733  12.455   5.574 -0.2031  0.1987 -0.4577
  783POPC   C3A 9391  15.612  12.158   5.929 -0.0437  0.0236 -0.1951
  783POPC   C4A 9392  15.579  11.905   6.317 -0.2451 -0.1079  0.5174
  783POPC   C1B 9393  16.485  12.436   5.384 -0.0632  0.1102  0.0647
  783POPC   C2B 9394  16.660  12.521   5.777 -0.0348  0.0732 -0.1556
  783POPC   C3B 9395  16.890  12.865   5.964 -0.3308  0.2192 -0.0640
  783POPC   C4B 9396  17.070  13.251   6.064  0.1204  0.0600  0.0266
  784POPC   NC3 9397  13.683   6.824   5.880 -0.4625 -0.1132 -0.0097
  784POPC   PO4 9398  13.861   7.166   5.970 -0.1613  0.1911  0.2006
  784POPC   GL1 9399  14.191   7.152   6.200 -0.0917  0.2543  0.1289
  784POPC   GL2 9400  14.234   6.780   6.145 -0.0200 -0.3018  0.1190
  784POPC   C1A 9401  14.208   7.006   6.653 -0.0733  0.0249 -0.0594
  784POPC   D2A 9402  14.066   6.960   7.090 -0.2487  0.5744 -0.0966
  784POPC   C3A 9403  14.479   6.983   7.318  0.1063  0.1739 -0.1215
  784POPC   C4A 9404  14.928   6.897   7.251 -0.0803 -0.3164  0.0522
  784POPC   C1B 9405  14.636   6.700   6.288 -0.2760  0.1318  0.3283
  784POPC   C2B 9406  15.037   6.721   6.445  0.3301 -0.2820  0.0189
  784POPC   C3B 9407  15.410   6.675   6.708 -0.0657  0.0548  0.0142
  784POPC   C4B 9408  15.787   6.778   6.966  0.0160 -0.2069 -0.2048
  785POPC   NC3 9409  12.200   3.266   5.750  0.1149 -0.3004 -0.0178
  785POPC   PO4 9410  12.616   3.265   5.726  0.0088 -0.3311 -0.0501
  785POPC   GL1 9411  12.657   3.082   6.116  0.1018  0.1211 -0.0971
  785POPC   GL2 9412  12.893   2.960   6.085 -0.2707  0.3753  0.0586
  785POPC   C1A 9413  12.673   3.033   6.568 -0.2412  0.0901  0.1565
  785POPC   D2A 9414  12.715   3.219   6.958  0.1697 -0.0037 -0.0488
  785POPC   C3A 9415  12.832   2.875   7.263  0.1498 -0.0824 -0.1678
  785POPC   C4A 9416  12.714   2.528   7.569  0.0837  0.1133  0.0979
  785POPC   C1B 9417  13.173   2.875   6.464  0.0948 -0.1645 -0.1272
  785POPC   C2B 9418  13.151   2.756   6.859 -0.0994 -0.2650  0.5499
  785POPC   C3B 9419  13.407   2.637   7.188  0.1356 -0.0591 -0.3368
  785POPC   C4B 9420  13.791   2.668   7.477 -0.2057  0.1884  0.0862
  786POPC   NC3 9421  15.214  32.460   4.639  0.2033 -0.1424 -0.2559
  786POPC   PO4 9422  15.215  32.062   4.523 -0.0511 -0.1898 -0.0118
  786POPC   GL1 9423  15.060  31.843   4.866  0.2930 -0.2165 -0.0433
  786POPC   GL2 9424  15.300  31.864   5.000  0.2717 -0.0333  0.0905
  786POPC   C1A 9425  14.911  32.052   5.270 -0.3742 -0.1943  0.0857
  786POPC   D2A 9426  15.030  32.084   5.726  0.5053 -0.1008 -0.2319
  786POPC   C3A 9427  15.327  32.306   6.012  0.0075  0.3644  0.5335
  786POPC   C4A 9428  15.539  32.613   6.262  0.1156  0.2336 -0.3016
  786POPC   C1B 9429  15.391  31.869   5.476  0.2641  0.3572  0.1120
  786POPC   C2B 9430  15.662  31.712   5.832 -0.0280  0.0852  0.1153
  786POPC   C3B 9431  16.059  31.827   6.014  0.1036  0.0112 -0.0642
  786POPC   C4B 9432  16.156  32.020   6.403 -0.0779  0.2910  0.0201
  787POPC   NC3 9433   6.291   3.290   6.125  0.2417  0.2721  0.0313
  787POPC   PO4 9434   6.573   3.152   6.388 -0.2142  0.1070 -0.3691
  787POPC   GL1 9435   6.444   2.801   6.524  0.1705 -0.0828  0.1224
  787POPC   GL2 9436   6.198   2.682   6.452 -0.2067 -0.1075 -0.1159
  787POPC   C1A 9437   6.490   2.379   6.724  0.1811  0.0832 -0.2055
  787POPC   D2A 9438   6.789   2.024   6.809  0.1009  0.1785 -0.0238
  787POPC   C3A 9439   6.942   2.043   7.278 -0.0403 -0.1611  0.0265
  787POPC   C4A 9440   7.074   1.950   7.726 -0.1860  0.2174 -0.1916
  787POPC   C1B 9441   6.149   2.705   6.919  0.0788  0.0748 -0.1472
  787POPC   C2B 9442   5.890   2.717   7.279  0.2024 -0.0544  0.1562
  787POPC   C3B 9443   5.577   2.769   7.642  0.1217  0.1694 -0.0306
  787POPC   C4B 9444   5.182   2.898   7.847 -0.1126 -0.0520  0.2012
  788POPC   NC3 9445   2.866   4.864   5.021  0.0019  0.0909 -0.0020
  788POPC   PO4 9446   2.501   4.914   5.107  0.1446  0.2234 -0.0197
  788POPC   GL1 9447   2.640   4.652   5.401  0.0205  0.3402  0.1148
  788POPC   GL2 9448   2.502   4.453   5.430  0.0585  0.1653  0.1931
  788POPC   C1A 9449   2.611   4.893   5.790 -0.2118 -0.1979 -0.1589
  788POPC   D2A 9450   2.670   5.051   6.287 -0.2135  0.3654 -0.0355
  788POPC   C3A 9451   2.385   5.289   6.532 -0.3102 -0.0188  0.1087
  788POPC   C4A 9452   1.952   5.261   6.465 -0.0692 -0.2642 -0.0501
  788POPC   C1B 9453   2.729   4.390   5.833 -0.1691  0.1233 -0.3074
  788POPC   C2B 9454   2.571   4.470   6.295  0.2157 -0.0262  0.2381
  788POPC   C3B 9455   2.510   4.727   6.711  0.2665 -0.1075 -0.2940
  788POPC   C4B 9456   2.538   5.070   6.986 -0.0054 -0.2667  0.3135
  789POPC   NC3 9457  10.908  10.241   5.962 -0.0269 -0.0035  0.2939
  789POPC   PO4 9458  10.690  10.476   6.178 -0.1393 -0.0888  0.0735
  789POPC   GL1 9459  10.634  10.555   6.531  0.2488  0.1043 -0.3056
  789POPC   GL2 9460  10.854  10.670   6.621 -0.2453 -0.1155  0.0688
  789POPC   C1A 9461  10.502  10.612   6.951  0.0682  0.0430 -0.2509
  789POPC   D2A 9462  10.765  10.495   7.317  0.0411  0.0572  0.0671
  789POPC   C3A 9463  11.033  10.844   7.461  0.2419 -0.0089 -0.2878
  789POPC   C4A 9464  11.220  11.160   7.777  0.0867  0.2011  0.1907
  789POPC   C1B 9465  10.831  11.114   6.622 -0.1932 -0.2094  0.2214
  789POPC   C2B 9466  10.762  11.479   6.952  0.3133  0.2174  0.0897
  789POPC   C3B 9467  10.463  11.591   7.244 -0.0182  0.1162 -0.1314
  789POPC   C4B 9468  10.234  11.403   7.675 -0.1623 -0.0661 -0.2382
  790POPC   NC3 9469   2.335  15.696   4.002  0.0848 -0.0654  0.3006
  790POPC   PO4 9470   2.663  15.781   3.864 -0.3570  0.2355 -0.0024
  790POPC   GL1 9471   2.804  15.549   4.127  0.0064  0.0347 -0.1474
  790POPC   GL2 9472   2.744  15.208   4.169 -0.2036  0.1156 -0.1066
  790POPC   C1A 9473   2.667  15.763   4.530 -0.0266 -0.2655  0.2145
  790POPC   D2A 9474   2.570  16.174   4.700 -0.1736 -0.0040 -0.0460
  790POPC   C3A 9475   2.558  16.184   5.130  0.2254 -0.1662 -0.0117
  790POPC   C4A 9476   2.517  16.509   5.408  0.2952 -0.1224  0.0455
  790POPC   C1B 9477   2.806  15.201   4.630 -0.1130  0.0255 -0.3236
  790POPC   C2B 9478   2.808  15.462   5.000  0.0023 -0.1907 -0.1130
  790POPC   C3B 9479   2.609  15.751   5.305  0.4496  0.1449  0.2424
  790POPC   C4B 9480   2.470  16.057   5.642  0.2727 -0.1454 -0.1627
  791POPC   NC3 9481  10.839   1.339   5.624 -0.1878 -0.1564  0.0210
  791POPC   PO4 9482  10.461   1.252   5.504 -0.1067 -0.0311 -0.1282
  791POPC   GL1 9483  10.367   1.058   5.918 -0.0064  0.2275 -0.0411
  791POPC   GL2 9484  10.631   1.097   5.961 -0.0319 -0.2846  0.2381
  791POPC   C1A 9485  10.121   0.713   6.193 -0.0514  0.3247 -0.0693
  791POPC   D2A 9486   9.951   0.406   6.459  0.1201  0.1335  0.0180
  791POPC   C3A 9487   9.856   0.525   6.898  0.2292 -0.1442  0.2571
  791POPC   C4A 9488   9.643   0.656   7.299  0.1775 -0.0822 -0.1525
  791POPC   C1B 9489  10.591   0.780   6.277 -0.2344 -0.1996  0.0021
  791POPC   C2B 9490  10.460   0.461   6.497  0.0289  0.0298  0.2722
  791POPC   C3B 9491  10.196   0.181   6.827  0.1682  0.0254  0.3207
  791POPC   C4B 9492   9.835  -0.021   6.921 -0.0603  0.2663  0.0804
  792POPC   NC3 9493  12.390   1.242   4.593  0.0224 -0.1303 -0.2924
  792POPC   PO4 9494  12.546   1.048   4.872  0.0707 -0.0625 -0.2210
  792POPC   GL1 9495  12.543   0.768   5.138  0.0262  0.0299  0.2099
  792POPC   GL2 9496  12.332   0.578   4.945 -0.0633  0.1261 -0.1204
  792POPC   C1A 9497  12.468   0.660   5.587  0.0248  0.3326 -0.2813
  792POPC   D2A 9498  12.344   0.409   5.927 -0.2625 -0.0652  0.2373
  792POPC   C3A 9499  12.020   0.277   6.198 -0.0823  0.0277  0.0608
  792POPC   C4A 9500  11.799   0.008   6.552 -0.1022 -0.2396  0.2502
  792POPC   C1B 9501  12.276   0.294   5.304 -0.1517  0.6348 -0.2544
  792POPC   C2B 9502  12.365   0.025   5.638  0.0801  0.1996 -0.0436
  792POPC   C3B 9503  12.744  -0.154   5.949  0.1015 -0.1863 -0.0854
  792POPC   C4B 9504  13.121  -0.043   6.055 -0.0605  0.2273  0.0422
  793POPC   NC3 9505   4.380  13.137   4.328  0.0351 -0.0138 -0.0217
  793POPC   PO4 9506   4.440  12.804   4.139 -0.0256 -0.2892  0.0215
  793POPC   GL1 9507   4.563  12.617   4.518  0.0444  0.2084  0.0849
  793POPC   GL2 9508   4.720  12.345   4.574 -0.3216  0.0524 -0.1559
  793POPC   C1A 9509   4.524  12.690   4.983  0.0821  0.3229  0.4599
  793POPC   D2A 9510   4.435  12.725   5.431 -0.2227 -0.3700 -0.0968
  793POPC   C3A 9511   4.080  12.489   5.568  0.1251  0.1773  0.1156
  793POPC   C4A 9512   3.762  12.528   5.886  0.0857 -0.2579 -0.2116
  793POPC   C1B 9513   4.865  12.235   4.976  0.2669 -0.0894 -0.1982
  793POPC   C2B 9514   4.716  12.303   5.405  0.2065 -0.1241  0.1932
  793POPC   C3B 9515   4.550  12.365   5.828  0.1877  0.0504  0.0296
  793POPC   C4B 9516   4.501  12.475   6.288 -0.0385 -0.2080  0.1222
  794POPC   NC3 9517   5.428   6.851   5.997 -0.0799  0.1535  0.0284
  794POPC   PO4 9518   5.483   6.946   6.330 -0.0691  0.2544  0.1673
  794POPC   GL1 9519   5.142   6.646   6.299  0.1058 -0.4903  0.1766
  794POPC   GL2 9520   5.146   6.689   6.652 -0.1188  0.1148 -0.1346
  794POPC   C1A 9521   4.690   6.818   6.394 -0.0451  0.1230  0.1980
  794POPC   D2A 9522   4.628   6.965   6.831 -0.2605 -0.3887 -0.1247
  794POPC   C3A 9523   4.473   7.120   7.225  0.0266  0.0938  0.2317
  794POPC   C4A 9524   4.290   7.477   7.469 -0.1181  0.0747  0.1574
  794POPC   C1B 9525   5.087   6.900   7.038  0.1276  0.0548  0.0426
  794POPC   C2B 9526   4.967   7.225   7.411  0.0559 -0.0976  0.0254
  794POPC   C3B 9527   4.795   7.655   7.495  0.1478  0.1112 -0.1957
  794POPC   C4B 9528   4.443   7.954   7.629  0.2381  0.2048 -0.2297
  795POPC   NC3 9529  15.537  13.611   4.234  0.3034  0.1205  0.1259
  795POPC   PO4 9530  15.151  13.569   4.182 -0.0366 -0.0736  0.1335
  795POPC   GL1 9531  15.083  13.548   4.628 -0.1644 -0.1090 -0.1191
  795POPC   GL2 9532  15.338  13.381   4.616  0.1185  0.1065 -0.2164
  795POPC   C1A 9533  14.956  13.335   5.012  0.0855 -0.2564  0.2487
  795POPC   D2A 9534  14.855  13.245   5.502 -0.3166  0.2010  0.2428
  795POPC   C3A 9535  15.016  13.532   5.820  0.1310 -0.0293  0.0522
  795POPC   C4A 9536  15.216  13.951   5.910 -0.3670  0.2374 -0.0312
  795POPC   C1B 9537  15.533  13.349   4.986 -0.1535 -0.2994 -0.2289
  795POPC   C2B 9538  15.845  13.297   5.290  0.0560 -0.2276 -0.0255
  795POPC   C3B 9539  15.773  13.140   5.740 -0.1109 -0.0252 -0.2508
  795POPC   C4B 9540  15.991  13.083   6.204 -0.0856  0.0297 -0.2926
  796POPC   NC3 9541  14.108   7.369   5.631  0.3172 -0.1153  0.0620
  796POPC   PO4 9542  14.071   7.698   5.864 -0.1338 -0.2974  0.1336
  796POPC   GL1 9543  14.392   7.533   6.185 -0.3162  0.0851  0.1005
  796POPC   GL2 9544  14.606   7.652   6.211 -0.1732  0.1996 -0.2061
  796POPC   C1A 9545  14.401   7.591   6.653 -0.0547  0.0252 -0.0959
  796POPC   D2A 9546  14.630   7.800   7.000 -0.2655 -0.1403  0.1475
  796POPC   C3A 9547  15.065   7.773   7.229 -0.1337  0.0534 -0.2380
  796POPC   C4A 9548  15.431   7.669   7.479 -0.0428 -0.0711  0.2515
  796POPC   C1B 9549  14.924   7.550   6.584  0.2000  0.0071  0.1325
  796POPC   C2B 9550  15.217   7.212   6.678 -0.1619  0.0150 -0.0210
  796POPC   C3B 9551  15.382   7.090   7.081  0.2130 -0.0661  0.1458
  796POPC   C4B 9552  15.434   6.861   7.460 -0.2223 -0.0515  0.1030
  797POPC   NC3 9553   0.420  15.149   4.214  0.1285 -0.1168  0.2103
  797POPC   PO4 9554   0.092  14.921   4.175  0.0709 -0.0646 -0.2101
  797POPC   GL1 9555   0.114  14.924   4.554 -0.0507  0.1356  0.0679
  797POPC   GL2 9556   0.073  15.189   4.671 -0.0577 -0.1771  0.4155
  797POPC   C1A 9557   0.398  14.751   4.864 -0.0300 -0.0019  0.6569
  797POPC   D2A 9558   0.681  14.618   5.186 -0.1926  0.4234  0.2616
  797POPC   C3A 9559   0.382  14.427   5.537 -0.0816  0.1106  0.0668
  797POPC   C4A 9560   0.106  14.120   5.746 -0.1950  0.0518 -0.2179
  797POPC   C1B 9561  -0.157  15.483   4.951  0.1662 -0.0151  0.0968
  797POPC   C2B 9562  -0.202  15.369   5.416 -0.0713 -0.0185  0.1390
  797POPC   C3B 9563  -0.337  15.526   5.790 -0.5047 -0.2718 -0.1244
  797POPC   C4B 9564  -0.465  15.518   6.236 -0.0995 -0.0616  0.2680
  798POPC   NC3 9565   7.712   5.564   8.005  0.3511  0.1014  0.0251
  798POPC   PO4 9566   7.554   5.946   7.917 -0.2548  0.2510 -0.0541
  798POPC   GL1 9567   7.290   5.810   8.136 -0.0386 -0.1392  0.0179
  798POPC   GL2 9568   7.052   6.041   8.115  0.3401 -0.4398 -0.1150
  798POPC   C1A 9569   7.287   5.772   8.607  0.0236 -0.4916 -0.2864
  798POPC   D2A 9570   7.001   5.856   8.918  0.0182 -0.1890 -0.1059
  798POPC   C3A 9571   6.928   5.545   9.234  0.0370  0.0301 -0.1462
  798POPC   C4A 9572   6.954   5.151   9.462 -0.0894 -0.0078 -0.1841
  798POPC   C1B 9573   6.891   5.638   8.286  0.2594  0.0391 -0.0042
  798POPC   C2B 9574   6.489   5.528   8.418  0.1660  0.2608 -0.0620
  798POPC   C3B 9575   6.119   5.452   8.644  0.0324 -0.0604 -0.2633
  798POPC   C4B 9576   5.754   5.252   8.871 -0.1306 -0.0609 -0.3012
  799POPC   NC3 9577  12.959  10.620   5.201  0.1023 -0.0330  0.0035
  799POPC   PO4 9578  13.084  10.802   5.526  0.1211 -0.0132 -0.1627
  799POPC   GL1 9579  13.245  10.789   5.821 -0.1424  0.1660 -0.3684
  799POPC   GL2 9580  13.091  10.878   6.049  0.3855  0.1462  0.2004
  799POPC   C1A 9581  13.522  10.602   6.157 -0.0292  0.3074  0.0801
  799POPC   D2A 9582  13.602  10.403   6.585 -0.2718  0.2434  0.1550
  799POPC   C3A 9583  13.796  10.726   6.945  0.2403 -0.1793  0.4686
  799POPC   C4A 9584  13.556  11.032   7.199  0.1326 -0.0459  0.0049
  799POPC   C1B 9585  13.493  11.075   6.008 -0.3330  0.1066 -0.1833
  799POPC   C2B 9586  13.589  11.394   6.287  0.0658 -0.2807  0.1158
  799POPC   C3B 9587  13.739  11.730   6.586  0.0146  0.1765 -0.2438
  799POPC   C4B 9588  13.436  12.068   6.705  0.3097  0.2465  0.0141
  800POPC   NC3 9589  10.871   9.176   7.148  0.1677 -0.0185  0.0863
  800POPC   PO4 9590  10.679   8.877   7.266 -0.0221  0.4566  0.1036
  800POPC   GL1 9591  10.772   9.090   7.646 -0.0563 -0.1838 -0.3176
  800POPC   GL2 9592  11.037   9.050   7.595  0.2002  0.0342 -0.1691
  800POPC   C1A 9593  10.887   9.372   7.970 -0.0730  0.0777  0.0837
  800POPC   D2A 9594  11.173   9.566   8.236  0.0470 -0.3375  0.0226
  800POPC   C3A 9595  11.135  10.001   8.402  0.1209 -0.1455 -0.2718
  800POPC   C4A 9596  11.160  10.477   8.278 -0.1240 -0.0117 -0.1010
  800POPC   C1B 9597  11.485   9.251   7.753 -0.2698 -0.6874 -0.1661
  800POPC   C2B 9598  11.755   8.983   7.953  0.0754 -0.0920  0.0938
  800POPC   C3B 9599  12.012   8.846   8.301  0.0460 -0.0761  0.2407
  800POPC   C4B 9600  12.322   8.900   8.649 -0.1261  0.4182 -0.1736
  801POPC   NC3 9601   5.540  13.878   4.290 -0.0161  0.0608 -0.3870
  801POPC   PO4 9602   5.784  13.789   4.591 -0.0692  0.5135 -0.1332
  801POPC   GL1 9603   5.514  13.833   4.848 -0.0388 -0.2290  0.1264
  801POPC   GL2 9604   5.316  14.061   4.776  0.1146 -0.5073  0.0429
  801POPC   C1A 9605   5.630  13.860   5.324 -0.1851 -0.0502 -0.0759
  801POPC   D2A 9606   5.575  14.002   5.721  0.0056  0.0949 -0.1333
  801POPC   C3A 9607   5.291  13.758   5.966  0.0073  0.1219  0.0065
  801POPC   C4A 9608   4.985  13.385   5.928  0.1846 -0.1615 -0.1802
  801POPC   C1B 9609   5.187  13.802   5.136  0.2222 -0.0791 -0.1694
  801POPC   C2B 9610   5.326  13.368   5.127  0.3480 -0.2466  0.0630
  801POPC   C3B 9611   5.598  13.004   5.226 -0.2700  0.2490 -0.0825
  801POPC   C4B 9612   5.614  12.535   5.042 -0.2334 -0.1017 -0.0491
  802POPC   NC3 9613   4.391   4.839   5.181 -0.2030  0.0642  0.1345
  802POPC   PO4 9614   4.421   4.479   5.342  0.4105 -0.0691  0.0253
  802POPC   GL1 9615   4.326   4.384   5.738  0.3007 -0.4571  0.2635
  802POPC   GL2 9616   4.130   4.115   5.685 -0.1334  0.0256  0.4268
  802POPC   C1A 9617   4.557   4.454   6.122  0.0721 -0.2163  0.0877
  802POPC   D2A 9618   4.800   4.341   6.490 -0.0402  0.0408  0.1807
  802POPC   C3A 9619   4.899   3.970   6.564  0.2674  0.3065 -0.0274
  802POPC   C4A 9620   5.179   3.652   6.390  0.0362  0.0570  0.2740
  802POPC   C1B 9621   4.311   3.994   6.052  0.2672  0.2926  0.1413
  802POPC   C2B 9622   4.375   4.093   6.435 -0.1651  0.2010 -0.1652
  802POPC   C3B 9623   4.346   4.051   6.854 -0.1589 -0.2380 -0.2473
  802POPC   C4B 9624   4.227   3.801   7.192 -0.2704  0.3408 -0.2467
  803POPC   NC3 9625  13.165   9.652   5.741 -0.0215  0.0338  0.0761
  803POPC   PO4 9626  13.156   9.276   5.696 -0.2175 -0.1818 -0.1032
  803POPC   GL1 9627  13.287   9.254   6.066  0.0079 -0.3684 -0.2108
  803POPC   GL2 9628  13.309   9.483   6.270  0.1625 -0.0233 -0.1861
  803POPC   C1A 9629  13.726   9.179   6.152  0.0448 -0.1179  0.1274
  803POPC   D2A 9630  14.084   9.279   6.456  0.0556 -0.2034 -0.2333
  803POPC   C3A 9631  14.223   9.168   6.921  0.0107 -0.0934  0.1257
  803POPC   C4A 9632  14.374   9.374   7.289 -0.2314 -0.1031  0.1060
  803POPC   C1B 9633  13.096   9.612   6.667 -0.0965  0.1539 -0.1275
  803POPC   C2B 9634  13.191   9.719   7.048 -0.2723 -0.2878  0.0719
  803POPC   C3B 9635  13.180   9.981   7.479 -0.1262  0.1580 -0.1408
  803POPC   C4B 9636  13.005  10.233   7.831 -0.2036  0.2127 -0.1377
  804POPC   NC3 9637   6.042  12.863   4.846  0.0833  0.3813 -0.2057
  804POPC   PO4 9638   6.183  12.525   4.689  0.0650 -0.0883  0.1960
  804POPC   GL1 9639   6.162  12.360   5.110  0.0284  0.2018 -0.0295
  804POPC   GL2 9640   6.021  12.161   5.265  0.0670  0.0224 -0.1048
  804POPC   C1A 9641   5.957  12.612   5.482 -0.0156  0.1039 -0.1745
  804POPC   D2A 9642   5.559  12.727   5.705  0.0777 -0.2251  0.0307
  804POPC   C3A 9643   5.293  12.967   6.015  0.1042  0.1242  0.1933
  804POPC   C4A 9644   5.069  13.089   6.394 -0.1444  0.1736 -0.2201
  804POPC   C1B 9645   6.012  12.095   5.717 -0.5007 -0.0182 -0.0184
  804POPC   C2B 9646   5.902  12.123   6.198 -0.1955 -0.2821  0.2261
  804POPC   C3B 9647   5.998  12.155   6.680 -0.4055 -0.1008 -0.2756
  804POPC   C4B 9648   6.329  12.163   6.960 -0.0492  0.1425 -0.0543
  805POPC   NC3 9649  11.727   4.988   7.947  0.3453  0.1485  0.0663
  805POPC   PO4 9650  11.995   5.277   8.052  0.0409 -0.1358  0.1836
  805POPC   GL1 9651  12.235   5.077   8.269  0.0657  0.1469  0.0506
  805POPC   GL2 9652  12.298   5.283   8.511 -0.0583  0.1286 -0.4602
  805POPC   C1A 9653  12.172   4.631   8.452 -0.0746 -0.1498 -0.3995
  805POPC   D2A 9654  12.278   4.232   8.602  0.0608  0.2868 -0.1880
  805POPC   C3A 9655  12.094   3.875   8.842  0.2289 -0.1823  0.0898
  805POPC   C4A 9656  11.931   3.521   8.966  0.2990  0.4314 -0.1751
  805POPC   C1B 9657  12.694   5.065   8.434  0.3728  0.0778 -0.2292
  805POPC   C2B 9658  12.949   4.888   8.770 -0.0878  0.0490  0.1783
  805POPC   C3B 9659  13.287   4.772   9.041 -0.2356 -0.0904 -0.0463
  805POPC   C4B 9660  13.666   4.532   8.791  0.0135  0.0736  0.0500
  806POPC   NC3 9661  10.589   5.025  10.623  0.0180  0.2054 -0.1572
  806POPC   PO4 9662  10.751   5.291  10.397  0.3272 -0.3324 -0.0005
  806POPC   GL1 9663  11.068   5.053  10.437  0.4178  0.0270  0.2148
  806POPC   GL2 9664  11.219   5.115  10.187  0.0789  0.0597  0.0666
  806POPC   C1A 9665  11.022   4.682  10.740  0.1375 -0.0277 -0.0690
  806POPC   D2A 9666  11.130   4.279  10.898 -0.1624  0.0582 -0.2692
  806POPC   C3A 9667  11.513   4.033  11.019  0.0553 -0.0397  0.0343
  806POPC   C4A 9668  11.542   3.939  11.486 -0.0409  0.1731  0.0858
  806POPC   C1B 9669  11.696   4.981  10.089 -0.3001 -0.0606 -0.0361
  806POPC   C2B 9670  12.164   4.998  10.303 -0.4238  0.0877 -0.1298
  806POPC   C3B 9671  12.494   5.121  10.661  0.0671 -0.0304 -0.0895
  806POPC   C4B 9672  12.747   5.247  11.042 -0.2509  0.0858 -0.0806
  807POPC   NC3 9673   9.216  13.992   4.904  0.2136  0.1478 -0.0180
  807POPC   PO4 9674   9.407  14.358   4.872  0.0029 -0.2217  0.0900
  807POPC   GL1 9675   9.232  14.289   5.255  0.3792 -0.0007  0.0156
  807POPC   GL2 9676   8.964  14.463   5.254  0.0713 -0.1263  0.1949
  807POPC   C1A 9677   9.421  14.143   5.633 -0.1487  0.1425 -0.4911
  807POPC   D2A 9678   9.742  14.120   5.969 -0.2126  0.0454 -0.1190
  807POPC   C3A 9679   9.523  14.245   6.383 -0.2108  0.0805 -0.1122
  807POPC   C4A 9680   9.438  14.295   6.848 -0.3183 -0.1281 -0.1153
  807POPC   C1B 9681   9.226  14.640   5.597  0.0517  0.0762 -0.0576
  807POPC   C2B 9682   9.481  14.740   6.037  0.1308  0.3542 -0.1084
  807POPC   C3B 9683   9.360  14.747   6.542 -0.1312  0.2772  0.1837
  807POPC   C4B 9684   9.367  14.822   6.955 -0.0664 -0.1928  0.0293
  808POPC   NC3 9685   4.800   7.419   5.974 -0.1972 -0.0757  0.0907
  808POPC   PO4 9686   5.091   7.255   5.776 -0.3738 -0.2177 -0.1662
  808POPC   GL1 9687   5.083   7.141   6.220  0.1805 -0.2077  0.0014
  808POPC   GL2 9688   5.138   7.391   6.371 -0.1874 -0.0774 -0.0457
  808POPC   C1A 9689   4.666   7.314   6.452  0.0401 -0.1327  0.0135
  808POPC   D2A 9690   4.295   7.342   6.806  0.1281 -0.0118  0.0260
  808POPC   C3A 9691   4.101   7.734   6.981 -0.2035  0.2156 -0.2808
  808POPC   C4A 9692   3.882   8.175   6.909 -0.0950  0.0137  0.0365
  808POPC   C1B 9693   5.172   7.717   6.637 -0.1370  0.0194 -0.0944
  808POPC   C2B 9694   5.165   7.715   7.107 -0.3924 -0.1088  0.0646
  808POPC   C3B 9695   5.311   7.926   7.476  0.0485 -0.1806 -0.1625
  808POPC   C4B 9696   5.479   7.987   7.925  0.1797  0.0243 -0.1537
  809POPC   NC3 9697   8.003   8.990   7.035 -0.0715 -0.0932  0.1956
  809POPC   PO4 9698   7.923   8.678   6.770  0.2227  0.0157  0.0442
  809POPC   GL1 9699   7.530   8.879   6.873  0.2375 -0.1404  0.1850
  809POPC   GL2 9700   7.274   8.984   6.718 -0.1719 -0.2158  0.0886
  809POPC   C1A 9701   7.392   9.046   7.308  0.2687 -0.0125  0.4028
  809POPC   D2A 9702   7.287   9.078   7.764  0.3867 -0.1645  0.3879
  809POPC   C3A 9703   7.238   9.212   8.210  0.0727  0.0899 -0.0723
  809POPC   C4A 9704   7.271   9.429   8.626 -0.1553  0.0958  0.0454
  809POPC   C1B 9705   6.936   9.149   7.016 -0.2670 -0.3052 -0.0378
  809POPC   C2B 9706   6.958   9.325   7.443 -0.0289  0.1518  0.3395
  809POPC   C3B 9707   6.946   9.559   7.878 -0.1507  0.3560  0.5297
  809POPC   C4B 9708   6.825   9.700   8.256 -0.1877 -0.2155 -0.1681
  810POPC   NC3 9709  12.064  11.858   5.047 -0.0120 -0.0443 -0.1781
  810POPC   PO4 9710  11.953  11.704   5.400 -0.1100  0.0601 -0.1223
  810POPC   GL1 9711  11.994  11.854   5.850  0.2284  0.1824 -0.0580
  810POPC   GL2 9712  11.724  11.760   5.837 -0.1002 -0.2510  0.0410
  810POPC   C1A 9713  12.452  11.804   6.032  0.0186 -0.1071 -0.1585
  810POPC   D2A 9714  12.829  11.795   6.257 -0.0215  0.4601 -0.3462
  810POPC   C3A 9715  12.811  12.043   6.607 -0.0480 -0.0885 -0.0810
  810POPC   C4A 9716  13.019  12.305   6.932 -0.4800 -0.2955  0.0672
  810POPC   C1B 9717  11.487  11.657   6.193  0.3495 -0.1692 -0.0766
  810POPC   C2B 9718  11.582  11.528   6.643  0.1061 -0.1805 -0.0131
  810POPC   C3B 9719  11.688  11.381   7.038 -0.0270 -0.0295 -0.1029
  810POPC   C4B 9720  11.512  11.011   7.223 -0.0517  0.1775 -0.1930
  811POPC   NC3 9721  12.388  12.601   4.634  0.3075 -0.0519 -0.0726
  811POPC   PO4 9722  12.256  12.982   4.532 -0.0601  0.3296  0.1028
  811POPC   GL1 9723  12.000  13.000   4.878 -0.0657 -0.0141 -0.2032
  811POPC   GL2 9724  12.231  12.958   5.058 -0.2950  0.0014 -0.1611
  811POPC   C1A 9725  11.631  13.102   5.089 -0.0832 -0.3085 -0.0778
  811POPC   D2A 9726  11.268  13.176   5.367  0.1113  0.2579 -0.1936
  811POPC   C3A 9727  11.178  13.478   5.667  0.0361  0.1688  0.2606
  811POPC   C4A 9728  10.896  13.860   5.573 -0.1650  0.1653 -0.0989
  811POPC   C1B 9729  12.605  13.171   5.252  0.3280  0.0256  0.5391
  811POPC   C2B 9730  12.626  13.375   5.611 -0.2255  0.0536  0.1340
  811POPC   C3B 9731  12.578  13.422   6.081 -0.1935  0.1185  0.1456
  811POPC   C4B 9732  12.389  13.470   6.517  0.2354 -0.2791  0.1778
  812POPC   NC3 9733  10.333   4.878  12.235 -0.0981 -0.0033 -0.3373
  812POPC   PO4 9734  10.113   5.160  12.062  0.3101  0.0380 -0.2081
  812POPC   GL1 9735  10.190   4.841  11.829 -0.4672 -0.0047  0.2256
  812POPC   GL2 9736  10.049   4.600  11.896 -0.1119 -0.0173  0.0191
  812POPC   C1A 9737  10.587   4.524  11.824  0.2268  0.5125 -0.0557
  812POPC   D2A 9738  10.888   4.222  11.964  0.0905  0.3679  0.2815
  812POPC   C3A 9739  10.602   3.936  12.179 -0.2562 -0.0023  0.3816
  812POPC   C4A 9740  10.235   3.686  11.989  0.1213 -0.1865 -0.0527
  812POPC   C1B 9741  10.211   4.275  12.272  0.2560  0.2968 -0.2478
  812POPC   C2B 9742  10.555   4.226  12.576 -0.2184  0.3600 -0.0227
  812POPC   C3B 9743  10.941   3.936  12.778 -0.0480  0.0471 -0.0333
  812POPC   C4B 9744  11.090   3.699  13.169  0.0388 -0.0619  0.1061
  813POPC   NC3 9745  14.930   6.575   4.924 -0.1028 -0.1188  0.1050
  813POPC   PO4 9746  14.936   6.475   5.288 -0.0252  0.0242 -0.2707
  813POPC   GL1 9747  15.233   6.419   5.559 -0.1003 -0.4147  0.1077
  813POPC   GL2 9748  15.114   6.177   5.817 -0.2000 -0.0403  0.2162
  813POPC   C1A 9749  15.624   6.342   5.875 -0.2559 -0.0183 -0.0730
  813POPC   D2A 9750  15.868   6.237   6.284 -0.2475  0.3086  0.0974
  813POPC   C3A 9751  15.890   6.409   6.674  0.1861 -0.2009 -0.0268
  813POPC   C4A 9752  16.074   6.393   7.063 -0.0531  0.2301 -0.0638
  813POPC   C1B 9753  15.242   6.305   6.184 -0.1995 -0.2528  0.1037
  813POPC   C2B 9754  15.381   6.200   6.578  0.0910  0.2072  0.0219
  813POPC   C3B 9755  15.462   6.268   7.036  0.0657 -0.2675 -0.1383
  813POPC   C4B 9756  15.746   6.391   7.445  0.0681 -0.0859  0.0777
  814POPC   NC3 9757   4.803  11.100   4.651  0.0126  0.0959  0.1370
  814POPC   PO4 9758   5.192  11.058   4.671  0.2110  0.0279 -0.0073
  814POPC   GL1 9759   5.263  11.340   4.953  0.2324  0.0354  0.1137
  814POPC   GL2 9760   5.094  11.224   5.146 -0.1053  0.0690  0.2483
  814POPC   C1A 9761   5.289  11.656   5.298  0.2772 -0.2620  0.0861
  814POPC   D2A 9762   5.103  11.990   5.631  0.0690 -0.0844 -0.0021
  814POPC   C3A 9763   4.930  12.129   6.012  0.0028 -0.0488 -0.0553
  814POPC   C4A 9764   5.044  12.497   6.282 -0.0619 -0.2264 -0.2591
  814POPC   C1B 9765   5.144  11.259   5.612 -0.0125  0.1432 -0.0225
  814POPC   C2B 9766   5.037  11.385   6.030  0.1593 -0.0736  0.0021
  814POPC   C3B 9767   4.807  11.664   6.315  0.1496  0.0838  0.1944
  814POPC   C4B 9768   4.633  11.650   6.758 -0.1128  0.0742  0.2213
  815POPC   NC3 9769   5.453   2.189   5.748  0.0393 -0.1558  0.2083
  815POPC   PO4 9770   5.740   2.475   5.745  0.0797  0.1693  0.2675
  815POPC   GL1 9771   5.551   2.553   5.987 -0.1236  0.1611  0.0068
  815POPC   GL2 9772   5.290   2.680   5.971 -0.0190 -0.0100 -0.1926
  815POPC   C1A 9773   5.609   2.686   6.406 -0.0960  0.0951 -0.1150
  815POPC   D2A 9774   5.685   2.745   6.796  0.1069 -0.0126 -0.0253
  815POPC   C3A 9775   5.413   2.824   7.138 -0.1145  0.0088  0.2727
  815POPC   C4A 9776   4.937   2.884   7.268 -0.3324 -0.0155  0.1779
  815POPC   C1B 9777   5.137   2.741   6.415 -0.0545  0.2028 -0.1709
  815POPC   C2B 9778   5.002   2.986   6.772 -0.1637 -0.1238  0.1696
  815POPC   C3B 9779   4.917   3.436   6.760 -0.0425 -0.1237  0.0048
  815POPC   C4B 9780   4.771   3.855   6.989 -0.0531 -0.0319 -0.0631
  816POPC   NC3 9781  11.753  10.290   5.813 -0.0103  0.3997  0.0018
  816POPC   PO4 9782  11.923   9.940   5.891 -0.2377 -0.0440  0.0745
  816POPC   GL1 9783  12.104  10.160   6.178  0.2297  0.5877  0.4513
  816POPC   GL2 9784  12.348  10.109   6.311  0.2160 -0.0826 -0.2146
  816POPC   C1A 9785  12.057  10.544   6.422  0.0624  0.1439  0.2015
  816POPC   D2A 9786  12.229  10.848   6.720  0.1561  0.1861  0.0585
  816POPC   C3A 9787  12.578  11.096   6.795 -0.2761  0.0762  0.2032
  816POPC   C4A 9788  13.046  11.052   6.857  0.0167 -0.0131  0.0260
  816POPC   C1B 9789  12.604  10.491   6.264 -0.2096  0.0663  0.1222
  816POPC   C2B 9790  12.723  10.916   6.389  0.0767  0.0732  0.1401
  816POPC   C3B 9791  13.007  11.290   6.445 -0.2434  0.0472  0.0911
  816POPC   C4B 9792  13.249  11.648   6.546 -0.2048 -0.0319  0.0154
  817POPC   NC3 9793  10.464   3.810   7.882 -0.2058 -0.1777 -0.0027
  817POPC   PO4 9794  10.697   3.893   7.571 -0.0209 -0.2560  0.1789
  817POPC   GL1 9795  10.841   3.604   7.813 -0.1996  0.0266  0.0835
  817POPC   GL2 9796  11.188   3.623   7.722  0.1243 -0.1248 -0.1835
  817POPC   C1A 9797  10.996   3.174   7.947  0.1521 -0.0203 -0.0785
  817POPC   D2A 9798  11.294   2.851   8.178  0.0354  0.0217 -0.0938
  817POPC   C3A 9799  11.588   2.729   8.547 -0.1834 -0.1792 -0.4799
  817POPC   C4A 9800  11.981   2.531   8.680 -0.0691  0.0446 -0.3222
  817POPC   C1B 9801  11.649   3.533   7.704  0.1630 -0.0678  0.1638
  817POPC   C2B 9802  12.034   3.323   7.804 -0.2706  0.1093 -0.1745
  817POPC   C3B 9803  12.381   3.306   8.177 -0.1097  0.0584  0.1029
  817POPC   C4B 9804  12.354   3.240   8.620  0.3229  0.2115 -0.0543
  818POPC   NC3 9805   8.495  14.337   5.013 -0.0205 -0.0930  0.2046
  818POPC   PO4 9806   8.269  14.012   5.022  0.1451 -0.2907  0.2161
  818POPC   GL1 9807   8.136  13.781   5.251 -0.2162  0.0093  0.0055
  818POPC   GL2 9808   7.822  13.846   5.226  0.1436 -0.0978 -0.1148
  818POPC   C1A 9809   8.087  13.684   5.707  0.0956 -0.0880  0.3258
  818POPC   D2A 9810   7.768  13.534   6.021 -0.0601  0.0216  0.0051
  818POPC   C3A 9811   7.818  13.846   6.371 -0.0789  0.1811  0.1228
  818POPC   C4A 9812   8.062  14.070   6.745 -0.0301  0.0182  0.0610
  818POPC   C1B 9813   7.835  14.170   5.543  0.2621 -0.0162  0.1478
  818POPC   C2B 9814   7.894  14.107   5.948  0.0347  0.3001  0.0139
  818POPC   C3B 9815   8.238  14.144   6.281  0.0128  0.4481  0.2471
  818POPC   C4B 9816   8.628  14.042   6.556  0.0849 -0.2966 -0.0587
  819POPC   NC3 9817  14.515   9.827   5.551  0.0112  0.0407  0.0181
  819POPC   PO4 9818  14.593   9.431   5.654 -0.0738 -0.0253  0.6283
  819POPC   GL1 9819  14.651   9.690   6.030 -0.1150 -0.3445  0.0698
  819POPC   GL2 9820  14.796   9.462   6.140 -0.2443 -0.0027 -0.1296
  819POPC   C1A 9821  14.426   9.650   6.437 -0.1290  0.0926  0.0132
  819POPC   D2A 9822  14.102   9.712   6.823 -0.3166 -0.3862 -0.1299
  819POPC   C3A 9823  14.266   9.900   7.224  0.2906  0.1014  0.2898
  819POPC   C4A 9824  14.452  10.277   7.442  0.0477  0.1793 -0.0871
  819POPC   C1B 9825  14.980   9.847   6.384  0.0343  0.3238 -0.0293
  819POPC   C2B 9826  15.016  10.038   6.749 -0.0466 -0.0015 -0.1794
  819POPC   C3B 9827  15.061  10.454   6.990  0.3444  0.3576 -0.1171
  819POPC   C4B 9828  15.398  10.724   7.238  0.0487  0.2999  0.0916
  820POPC   NC3 9829   2.994   5.688   5.705 -0.0756 -0.2421  0.0488
  820POPC   PO4 9830   3.084   5.540   5.358 -0.0457  0.4314  0.1644
  820POPC   GL1 9831   3.367   5.417   5.591 -0.0074  0.0529 -0.2402
  820POPC   GL2 9832   3.368   5.148   5.448  0.0163  0.2231  0.2119
  820POPC   C1A 9833   3.374   5.456   6.047 -0.0623  0.1325 -0.0468
  820POPC   D2A 9834   3.516   5.685   6.411  0.1603  0.2553 -0.2690
  820POPC   C3A 9835   3.718   5.582   6.777 -0.1297  0.1348 -0.1457
  820POPC   C4A 9836   3.827   5.785   7.147  0.3878  0.1438  0.2022
  820POPC   C1B 9837   3.537   4.996   5.871  0.1121 -0.0123 -0.1042
  820POPC   C2B 9838   3.755   4.898   6.318 -0.0757 -0.3761  0.1220
  820POPC   C3B 9839   3.938   5.125   6.696  0.0061  0.0692 -0.2240
  820POPC   C4B 9840   4.208   5.428   6.931  0.1597 -0.0418 -0.0336
  821POPC   NC3 9841  14.427  32.541   4.587  0.0215  0.0362  0.0639
  821POPC   PO4 9842  14.728  32.781   4.479  0.0203 -0.2040  0.0749
  821POPC   GL1 9843  14.899  32.730   4.831  0.0622  0.1951 -0.1550
  821POPC   GL2 9844  14.728  32.639   5.075  0.0759 -0.1831  0.1537
  821POPC   C1A 9845  15.187  32.557   5.174  0.3992 -0.0813  0.0269
  821POPC   D2A 9846  15.307  32.593   5.582  0.0570  0.0920 -0.0600
  821POPC   C3A 9847  15.162  32.787   5.993  0.1418 -0.2012 -0.0142
  821POPC   C4A 9848  14.736  32.968   6.128  0.3993  0.1594 -0.0535
  821POPC   C1B 9849  14.466  32.918   5.398 -0.1249 -0.1128  0.0910
  821POPC   C2B 9850  14.251  32.751   5.802  0.2103 -0.0567  0.0865
  821POPC   C3B 9851  14.064  32.796   6.267 -0.1551 -0.0649  0.2405
  821POPC   C4B 9852  13.811  33.068   6.484  0.0053  0.1633  0.2658
  822POPC   NC3 9853  15.934   2.387   4.640 -0.0443 -0.3304 -0.0219
  822POPC   PO4 9854  16.119   2.732   4.675 -0.1785  0.3704  0.2928
  822POPC   GL1 9855  16.317   2.782   4.971 -0.1006 -0.2899 -0.0988
  822POPC   GL2 9856  16.301   3.048   5.136 -0.2457  0.1601 -0.1468
  822POPC   C1A 9857  16.385   2.666   5.383 -0.0205 -0.2974 -0.1173
  822POPC   D2A 9858  16.386   2.665   5.813  0.0100  0.0105  0.1206
  822POPC   C3A 9859  16.262   2.941   6.109  0.0876  0.0184  0.4035
  822POPC   C4A 9860  16.348   3.266   6.389 -0.2658  0.3184 -0.0148
  822POPC   C1B 9861  16.315   3.168   5.628  0.0879  0.0834 -0.0934
  822POPC   C2B 9862  16.696   3.221   5.951  0.2752  0.0299  0.0500
  822POPC   C3B 9863  16.903   3.097   6.388 -0.2236 -0.0871  0.2506
  822POPC   C4B 9864  16.872   2.911   6.799 -0.3747  0.0849 -0.0069
  823POPC   NC3 9865   6.582   6.817   6.498 -0.1203 -0.0732 -0.1863
  823POPC   PO4 9866   6.344   6.541   6.612 -0.0508  0.4031 -0.1148
  823POPC   GL1 9867   6.132   6.657   6.883 -0.0752 -0.3814  0.1184
  823POPC   GL2 9868   6.151   6.935   6.971 -0.1877 -0.0159 -0.0553
  823POPC   C1A 9869   5.820   6.556   7.226  0.2400  0.0366  0.0166
  823POPC   D2A 9870   5.419   6.647   7.247 -0.0086 -0.1409 -0.0467
  823POPC   C3A 9871   5.073   6.739   7.519  0.0372 -0.0521  0.0180
  823POPC   C4A 9872   4.648   6.836   7.617  0.3227 -0.0397  0.0836
  823POPC   C1B 9873   6.066   7.028   7.414 -0.1869  0.1179 -0.0632
  823POPC   C2B 9874   6.094   7.137   7.854  0.1276  0.0869  0.1942
  823POPC   C3B 9875   5.922   7.302   8.245 -0.1620  0.5781 -0.0437
  823POPC   C4B 9876   5.744   7.237   8.675 -0.0908  0.3154  0.1977
  824POPC   NC3 9877  32.722   9.859   4.593 -0.0884  0.0025 -0.0707
  824POPC   PO4 9878  33.021  10.037   4.414 -0.0871 -0.1950  0.0665
  824POPC   GL1 9879  33.209  10.173   4.701 -0.2275  0.3493  0.0695
  824POPC   GL2 9880  33.079  10.011   4.911 -0.1426  0.2318 -0.2742
  824POPC   C1A 9881  33.367  10.554   4.924  0.0031  0.1707  0.0513
  824POPC   D2A 9882  33.692  10.866   4.890  0.0236 -0.2349 -0.0242
  824POPC   C3A 9883  33.933  11.059   5.263  0.2466 -0.2046  0.0383
  824POPC   C4A 9884  34.213  11.375   5.403 -0.0060 -0.2680 -0.0870
  824POPC   C1B 9885  32.947  10.383   5.159  0.0673  0.0808  0.2794
  824POPC   C2B 9886  33.222  10.547   5.488  0.2281 -0.3057  0.2597
  824POPC   C3B 9887  33.512  10.843   5.440  0.1885 -0.0476  0.1758
  824POPC   C4B 9888  33.481  11.329   5.419 -0.0030  0.1670 -0.0592
  825POPC   NC3 9889  16.508   2.415   4.704 -0.0576 -0.3032 -0.3916
  825POPC   PO4 9890  16.731   2.707   4.818 -0.0362  0.0029 -0.1518
  825POPC   GL1 9891  16.618   2.354   5.147  0.0369  0.2581  0.1309
  825POPC   GL2 9892  16.826   2.410   5.233 -0.0393 -0.0167 -0.1946
  825POPC   C1A 9893  16.437   2.093   5.470  0.0719  0.0392  0.0655
  825POPC   D2A 9894  16.519   1.952   5.930  0.1031 -0.2640 -0.0927
  825POPC   C3A 9895  16.562   2.295   6.202 -0.0904 -0.1461 -0.0036
  825POPC   C4A 9896  16.603   2.728   6.431  0.1675  0.1054 -0.0261
  825POPC   C1B 9897  16.810   2.351   5.700  0.1593  0.1511 -0.2622
  825POPC   C2B 9898  17.040   2.135   6.061  0.2598  0.0539 -0.0974
  825POPC   C3B 9899  17.014   1.862   6.469  0.1680  0.3893 -0.1925
  825POPC   C4B 9900  16.942   2.000   6.904 -0.0014 -0.1284 -0.0801
  826POPC   NC3 9901  15.111  11.601   4.771  0.1814  0.1039 -0.2131
  826POPC   PO4 9902  14.763  11.514   4.721  0.3663  0.2309 -0.0242
  826POPC   GL1 9903  14.721  11.786   5.038 -0.1918 -0.1695  0.1213
  826POPC   GL2 9904  15.000  11.927   5.062 -0.1943 -0.0998  0.0452
  826POPC   C1A 9905  14.918  11.634   5.425  0.2287  0.2440  0.2407
  826POPC   D2A 9906  15.192  11.848   5.749 -0.2024  0.2460 -0.1458
  826POPC   C3A 9907  15.125  11.810   6.156  0.2400 -0.1114  0.1212
  826POPC   C4A 9908  15.067  11.871   6.591 -0.4050  0.1565  0.0785
  826POPC   C1B 9909  14.860  12.174   5.481 -0.0857  0.2579 -0.0764
  826POPC   C2B 9910  14.829  12.375   5.935  0.1608  0.1055  0.1215
  826POPC   C3B 9911  15.127  12.383   6.269 -0.0664 -0.0900 -0.2546
  826POPC   C4B 9912  15.487  12.352   6.580  0.0800 -0.0136  0.2562
  827POPC   NC3 9913   4.377  16.958   4.161  0.1916  0.1735 -0.1298
  827POPC   PO4 9914   4.184  16.622   4.283  0.2458  0.2602  0.2572
  827POPC   GL1 9915   4.249  16.370   4.629  0.1028  0.1028  0.1165
  827POPC   GL2 9916   4.121  16.509   4.859  0.2260  0.2827 -0.1281
  827POPC   C1A 9917   4.348  16.081   4.959 -0.2069  0.1950  0.0871
  827POPC   D2A 9918   4.191  15.644   5.069  0.1059 -0.0020  0.1534
  827POPC   C3A 9919   4.020  15.657   5.477  0.0816  0.0968  0.1428
  827POPC   C4A 9920   3.927  15.551   5.881 -0.4122 -0.0298  0.2499
  827POPC   C1B 9921   3.706  16.457   5.054 -0.1254 -0.0855  0.0849
  827POPC   C2B 9922   3.443  16.498   5.454 -0.1025  0.0038 -0.0797
  827POPC   C3B 9923   3.276  16.387   5.871 -0.0169 -0.3246 -0.0121
  827POPC   C4B 9924   3.189  16.259   6.310  0.3119 -0.0306 -0.1686
  828POPC   NC3 9925  13.844   4.940   5.789  0.1771 -0.1539  0.0742
  828POPC   PO4 9926  13.552   5.135   5.956  0.2127 -0.2888 -0.0152
  828POPC   GL1 9927  13.766   5.206   6.257  0.4043  0.2594 -0.1398
  828POPC   GL2 9928  13.535   5.344   6.498  0.0818 -0.0178 -0.0310
  828POPC   C1A 9929  13.825   5.003   6.651 -0.0749 -0.2051  0.0766
  828POPC   D2A 9930  13.746   4.842   7.081  0.1818  0.2663  0.0621
  828POPC   C3A 9931  13.886   4.574   7.479 -0.4329 -0.0394 -0.0968
  828POPC   C4A 9932  14.005   4.561   7.927  0.4124  0.2943  0.2784
  828POPC   C1B 9933  13.507   5.329   6.974 -0.0889  0.2165 -0.2227
  828POPC   C2B 9934  13.469   5.114   7.404  0.0308  0.4408 -0.1874
  828POPC   C3B 9935  13.610   5.048   7.830  0.4323  0.0317 -0.0480
  828POPC   C4B 9936  13.720   4.972   8.224  0.0031  0.0807 -0.2398
  829POPC   NC3 9937   1.883   8.645   5.104 -0.1460  0.2042  0.0983
  829POPC   PO4 9938   1.902   8.828   4.761 -0.1593  0.1116  0.2139
  829POPC   GL1 9939   1.693   9.038   5.059  0.0164 -0.1571 -0.0135
  829POPC   GL2 9940   1.411   9.186   5.097  0.0674 -0.2071 -0.3435
  829POPC   C1A 9941   1.814   9.306   5.418 -0.2531 -0.0407  0.1228
  829POPC   D2A 9942   2.001   9.582   5.747 -0.0103  0.0751  0.2489
  829POPC   C3A 9943   2.032   9.954   5.938 -0.1322 -0.0688  0.1000
  829POPC   C4A 9944   2.366  10.192   6.182 -0.1039 -0.0952  0.0945
  829POPC   C1B 9945   1.370   9.566   5.325 -0.1951 -0.1611 -0.1335
  829POPC   C2B 9946   1.566   9.903   5.700 -0.4025  0.2761  0.4008
  829POPC   C3B 9947   1.608  10.061   6.169  0.1706 -0.1582 -0.0713
  829POPC   C4B 9948   1.590  10.403   6.513  0.0235  0.0139  0.0574
  830POPC   NC3 9949  12.412   9.506   6.083 -0.0692 -0.0632  0.1036
  830POPC   PO4 9950  12.464   9.209   6.326  0.5137 -0.1890 -0.0994
  830POPC   GL1 9951  12.508   9.416   6.643  0.0179  0.0951 -0.3867
  830POPC   GL2 9952  12.280   9.573   6.645 -0.1421  0.1203  0.0338
  830POPC   C1A 9953  12.824   9.293   6.975  0.0760 -0.3193 -0.0726
  830POPC   D2A 9954  13.237   9.149   7.091 -0.0477 -0.0708 -0.4455
  830POPC   C3A 9955  13.307   9.264   7.508  0.1834 -0.0407 -0.3324
  830POPC   C4A 9956  13.514   9.369   7.896  0.0101 -0.1321  0.1857
  830POPC   C1B 9957  12.222   9.653   7.121  0.1211 -0.0724 -0.1805
  830POPC   C2B 9958  12.268   9.549   7.597  0.2370  0.1671  0.1747
  830POPC   C3B 9959  12.206   9.713   8.013  0.1034  0.1643 -0.1697
  830POPC   C4B 9960  12.246   9.938   8.413  0.5057  0.4418 -0.0688
  831POPC   NC3 9961   9.494   3.620   7.649 -0.2386  0.2627 -0.0276
  831POPC   PO4 9962   9.444   3.688   8.004 -0.3484 -0.0538 -0.1309
  831POPC   GL1 9963   9.441   3.301   8.297 -0.0422 -0.0820 -0.3353
  831POPC   GL2 9964   9.254   3.101   8.256  0.1037  0.0193 -0.0256
  831POPC   C1A 9965   9.161   3.303   8.674  0.2162  0.1357  0.0472
  831POPC   D2A 9966   9.203   3.245   9.152  0.3234 -0.0192  0.0700
  831POPC   C3A 9967   9.416   2.876   9.407 -0.4167 -0.1182 -0.0479
  831POPC   C4A 9968   9.546   2.486   9.692 -0.2300 -0.1724 -0.0211
  831POPC   C1B 9969   9.026   2.826   8.531  0.0252  0.0058  0.0487
  831POPC   C2B 9970   8.688   2.663   8.733  0.1618 -0.1371  0.1951
  831POPC   C3B 9971   8.633   2.377   9.064 -0.2052 -0.1447 -0.2296
  831POPC   C4B 9972   8.470   2.105   9.464  0.0340 -0.4327 -0.0409
  832POPC   NC3 9973   2.105   7.773   4.716 -0.2464  0.0003 -0.2243
  832POPC   PO4 9974   2.164   7.635   5.058  0.0829 -0.1235  0.0173
  832POPC   GL1 9975   2.411   7.582   5.376 -0.1454  0.0417 -0.2940
  832POPC   GL2 9976   2.677   7.713   5.343 -0.1863  0.1728  0.2577
  832POPC   C1A 9977   2.442   7.515   5.842  0.2690  0.2182  0.0773
  832POPC   D2A 9978   2.244   7.642   6.229 -0.1546  0.1137 -0.0608
  832POPC   C3A 9979   2.114   7.992   6.475 -0.1863  0.0452  0.2667
  832POPC   C4A 9980   1.943   8.352   6.720 -0.0883 -0.1022  0.1528
  832POPC   C1B 9981   2.831   7.863   5.736  0.1174 -0.0592  0.2984
  832POPC   C2B 9982   2.630   7.978   6.166  0.1154 -0.0753  0.0238
  832POPC   C3B 9983   2.625   8.336   6.430  0.0739  0.0506  0.0129
  832POPC   C4B 9984   2.818   8.559   6.828 -0.3066  0.0140  0.3825
  833POPC   NC3 9985   7.196   1.983   6.161 -0.1042 -0.0738  0.2064
  833POPC   PO4 9986   7.524   1.770   6.064  0.0981  0.0740 -0.1124
  833POPC   GL1 9987   7.472   1.758   6.440  0.1270  0.0436  0.0048
  833POPC   GL2 9988   7.558   2.004   6.533  0.0672 -0.0225  0.0114
  833POPC   C1A 9989   7.549   1.524   6.848  0.3388  0.0590  0.2842
  833POPC   D2A 9990   7.368   1.310   7.157 -0.2440  0.1938 -0.2902
  833POPC   C3A 9991   7.473   1.459   7.564  0.1910  0.0944 -0.0912
  833POPC   C4A 9992   7.616   1.723   7.807 -0.2856  0.1208 -0.1546
  833POPC   C1B 9993   7.271   1.937   6.836  0.1793 -0.1688 -0.0391
  833POPC   C2B 9994   7.431   1.876   7.258 -0.0769 -0.0253  0.1116
  833POPC   C3B 9995   7.567   2.195   7.588  0.0231  0.1593 -0.1499
  833POPC   C4B 9996   7.856   2.175   7.933  0.2390  0.0624 -0.0886
  834POPC   NC3 9997   5.571  16.880   4.585  0.3180  0.0506  0.2419
  834POPC   PO4 9998   5.590  16.489   4.615  0.3849  0.1320 -0.1665
  834POPC   GL1 9999   5.548  16.179   4.938  0.3130  0.1452 -0.2011
  834POPC   GL210000   5.402  15.863   4.955 -0.1032 -0.1636  0.1049
  834POPC   C1A10001   5.687  16.028   5.398 -0.0182 -0.1626 -0.1561
  834POPC   D2A10002   5.753  15.874   5.795 -0.1506  0.0595  0.1670
  834POPC   C3A10003   5.673  15.667   6.185  0.0787  0.2621 -0.2437
  834POPC   C4A10004   5.733  15.240   6.457  0.0085  0.0754  0.2269
  834POPC   C1B10005   5.533  15.585   5.240 -0.4494 -0.2118  0.2206
  834POPC   C2B10006   5.552  15.374   5.713  0.0239  0.2587 -0.1312
  834POPC   C3B10007   5.239  15.285   6.092 -0.0019  0.5843 -0.0394
  834POPC   C4B10008   5.014  14.891   6.137 -0.1637 -0.2919  0.3157
  835POPC   NC310009   6.923  10.882   5.168 -0.1386 -0.1227  0.0365
  835POPC   PO410010   7.030  10.803   5.516  0.0429 -0.0459 -0.1189
  835POPC   GL110011   6.876  11.125   5.781  0.0302 -0.0733  0.0392
  835POPC   GL210012   7.041  10.967   5.998  0.2472  0.3217  0.1051
  835POPC   C1A10013   6.498  11.179   5.960  0.1189 -0.0467  0.0709
  835POPC   D2A10014   6.146  11.213   6.265  0.1386 -0.1585  0.2168
  835POPC   C3A10015   5.983  11.287   6.675  0.2410  0.0108 -0.1110
  835POPC   C4A10016   5.942  11.327   7.131 -0.0776  0.0577 -0.1797
  835POPC   C1B10017   7.037  11.226   6.321 -0.0537  0.1545 -0.2385
  835POPC   C2B10018   7.038  11.395   6.737 -0.1426  0.1776 -0.1146
  835POPC   C3B10019   7.307  11.049   6.988 -0.0707 -0.3261  0.1935
  835POPC   C4B10020   7.424  10.975   7.447  0.2823  0.0152 -0.1555
  836POPC   NC310021  10.078  16.217   5.388  0.3254  0.1575 -0.0760
  836POPC   PO410022  10.203  16.592   5.365 -0.0604 -0.1730  0.0995
  836POPC   GL110023  10.496  16.583   5.668  0.0153 -0.3035 -0.0724
  836POPC   GL210024  10.596  16.320   5.487  0.0055 -0.4858 -0.3360
  836POPC   C1A10025  10.383  16.215   5.962 -0.1123 -0.1874  0.0794
  836POPC   D2A10026  10.626  16.053   6.334  0.2054 -0.1230  0.1446
  836POPC   C3A10027  10.846  16.404   6.627  0.1755 -0.0828  0.1314
  836POPC   C4A10028  10.735  16.779   6.931 -0.1024 -0.1665 -0.0382
  836POPC   C1B10029  10.870  16.065   5.759 -0.0199 -0.1474  0.2050
  836POPC   C2B10030  11.088  16.118   6.203 -0.0313  0.2375  0.0117
  836POPC   C3B10031  11.288  16.068   6.651 -0.1734  0.1933  0.0851
  836POPC   C4B10032  11.398  16.394   6.978 -0.1162  0.0467  0.0101
  837POPC   NC310033   4.661   4.052   5.492 -0.0201  0.2415  0.0740
  837POPC   PO410034   4.454   3.706   5.408  0.0338  0.0663  0.3739
  837POPC   GL110035   4.414   3.549   5.785  0.1235 -0.4478  0.1095
  837POPC   GL210036   4.195   3.489   5.940  0.0830 -0.1114 -0.2190
  837POPC   C1A10037   4.669   3.221   5.979  0.0521  0.2304 -0.1303
  837POPC   D2A10038   4.650   3.083   6.421 -0.1135  0.1812  0.1375
  837POPC   C3A10039   4.662   2.674   6.693 -0.1821  0.4214 -0.2356
  837POPC   C4A10040   4.445   2.540   7.086 -0.4568 -0.1569 -0.5195
  837POPC   C1B10041   4.066   3.415   6.333 -0.1629 -0.1929 -0.3065
  837POPC   C2B10042   3.920   3.585   6.757 -0.4434 -0.3391  0.1802
  837POPC   C3B10043   4.057   3.321   7.090  0.4600 -0.2413 -0.3866
  837POPC   C4B10044   4.032   3.242   7.546  0.0629 -0.1135  0.2235
  838POPC   NC310045   9.385   2.352   5.941 -0.0346  0.0625  0.2382
  838POPC   PO410046   9.632   2.270   6.282  0.1079 -0.1197  0.0064
  838POPC   GL110047   9.651   1.943   6.556  0.0413  0.3177  0.3102
  838POPC   GL210048   9.454   2.107   6.716 -0.3595  0.1262  0.3168
  838POPC   C1A10049   9.975   1.857   6.868 -0.4040  0.1197  0.2876
  838POPC   D2A10050   9.967   1.637   7.222 -0.0648  0.2164 -0.3821
  838POPC   C3A10051  10.025   1.419   7.672 -0.2018  0.0673  0.2905
  838POPC   C4A10052  10.269   1.525   8.059  0.5294 -0.2360 -0.0810
  838POPC   C1B10053   9.484   1.603   6.882 -0.3763 -0.4543  0.0663
  838POPC   C2B10054   9.212   1.319   7.079 -0.3838  0.1680 -0.1910
  838POPC   C3B10055   9.075   1.054   7.385 -0.3296 -0.0050 -0.1099
  838POPC   C4B10056   8.847   0.955   7.712  0.0233 -0.0850  0.1668
  839POPC   NC310057   2.243   5.304   5.279 -0.1010  0.1686  0.1794
  839POPC   PO410058   1.869   5.387   5.337 -0.2189  0.1740 -0.0208
  839POPC   GL110059   1.973   5.233   5.685 -0.0328  0.2747 -0.2117
  839POPC   GL210060   1.781   5.068   5.780  0.1781 -0.1499  0.1460
  839POPC   C1A10061   2.230   5.165   6.044 -0.2546 -0.1138 -0.3302
  839POPC   D2A10062   2.214   4.851   6.339 -0.1715 -0.4081 -0.0845
  839POPC   C3A10063   2.029   4.880   6.740 -0.0115 -0.0058 -0.0646
  839POPC   C4A10064   1.769   4.980   7.107 -0.0677  0.0806  0.1096
  839POPC   C1B10065   1.556   5.313   6.087 -0.1157 -0.1586  0.3207
  839POPC   C2B10066   1.609   5.633   6.409 -0.1498  0.0857  0.2989
  839POPC   C3B10067   1.742   5.797   6.824 -0.4043 -0.0885  0.1998
  839POPC   C4B10068   2.014   5.987   7.164  0.1110 -0.1756  0.0255
  840POPC   NC310069  11.816   5.478   8.675  0.1612 -0.0056  0.1801
  840POPC   PO410070  11.764   5.182   8.467  0.0509  0.0511  0.0394
  840POPC   GL110071  11.955   4.974   8.720 -0.0801  0.1640  0.2346
  840POPC   GL210072  11.771   4.718   8.717 -0.0255  0.2253 -0.0194
  840POPC   C1A10073  12.421   4.881   8.829 -0.0081  0.3051 -0.1146
  840POPC   D2A10074  12.624   4.525   8.947  0.0008  0.2355  0.2434
  840POPC   C3A10075  12.647   4.062   8.867  0.1532 -0.0538 -0.0719
  840POPC   C4A10076  12.517   3.655   8.988 -0.0672 -0.3187 -0.0116
  840POPC   C1B10077  11.969   4.410   8.965 -0.3601  0.1086  0.1189
  840POPC   C2B10078  11.812   4.251   9.374  0.0515 -0.1564  0.0559
  840POPC   C3B10079  11.504   3.947   9.568  0.3591 -0.1203  0.0397
  840POPC   C4B10080  11.381   3.534   9.801 -0.0035  0.0439 -0.0933
  841POPC   NC310081   7.119   7.107   7.889  0.2214  0.0988 -0.0052
  841POPC   PO410082   7.433   6.892   7.987  0.0647 -0.2502 -0.0033
  841POPC   GL110083   7.138   6.755   8.230  0.0001 -0.0502 -0.0667
  841POPC   GL210084   7.279   6.744   8.471  0.1504  0.0691  0.1242
  841POPC   C1A10085   6.858   6.414   8.438 -0.2637 -0.5438 -0.1693
  841POPC   D2A10086   6.625   6.425   8.806  0.0962  0.0529 -0.0082
  841POPC   C3A10087   6.239   6.229   8.728  0.1268  0.2510  0.0329
  841POPC   C4A10088   5.850   6.433   8.628  0.0454 -0.0937 -0.1336
  841POPC   C1B10089   7.246   7.057   8.814 -0.0771 -0.1643  0.1774
  841POPC   C2B10090   6.937   7.343   8.905 -0.3334  0.0636  0.0735
  841POPC   C3B10091   6.654   7.648   9.042  0.0384 -0.0663 -0.0889
  841POPC   C4B10092   6.606   7.961   9.407 -0.0158  0.3611  0.5070
  842POPC   NC310093  15.839  14.640   3.743  0.1740  0.2786 -0.3465
  842POPC   PO410094  15.961  14.537   4.100 -0.1356  0.2801 -0.3163
  842POPC   GL110095  15.858  14.410   4.435  0.0772 -0.0846  0.4350
  842POPC   GL210096  15.663  14.260   4.629 -0.0417 -0.1901 -0.1225
  842POPC   C1A10097  16.212  14.355   4.757 -0.1127  0.0923 -0.2867
  842POPC   D2A10098  16.286  14.296   5.194 -0.1361 -0.0362  0.0575
  842POPC   C3A10099  16.230  14.335   5.689  0.0303  0.3768  0.2349
  842POPC   C4A10100  16.003  14.663   5.910 -0.0243  0.0369 -0.2378
  842POPC   C1B10101  15.824  14.152   5.019 -0.0555 -0.0174 -0.2684
  842POPC   C2B10102  15.791  14.170   5.502 -0.2999 -0.0602 -0.0943
  842POPC   C3B10103  15.940  14.015   5.936 -0.0735 -0.1008  0.1095
  842POPC   C4B10104  16.342  13.839   6.164 -0.0486 -0.2455  0.1131
  843POPC   NC310105   8.298  11.511   4.768  0.1951  0.0039  0.1708
  843POPC   PO410106   8.159  11.562   5.110  0.0251  0.0438 -0.2656
  843POPC   GL110107   7.914  11.678   5.456 -0.0174 -0.1294 -0.0410
  843POPC   GL210108   7.923  11.496   5.734  0.0609 -0.1919  0.1895
  843POPC   C1A10109   7.764  12.094   5.724  0.1008  0.1057 -0.1203
  843POPC   D2A10110   7.715  12.258   6.197  0.1419 -0.1233 -0.1413
  843POPC   C3A10111   7.969  12.390   6.590 -0.0648  0.2418  0.0718
  843POPC   C4A10112   8.109  12.822   6.708  0.2012 -0.4380 -0.1227
  843POPC   C1B10113   7.805  11.742   6.064  0.2737 -0.0221  0.2102
  843POPC   C2B10114   7.938  11.847   6.453 -0.1687  0.2547 -0.2808
  843POPC   C3B10115   8.352  11.951   6.626 -0.2603  0.0318  0.2979
  843POPC   C4B10116   8.703  12.101   6.904 -0.2531  0.1146 -0.3549
  844POPC   NC310117   1.347   9.774   4.329  0.2006  0.0133 -0.0255
  844POPC   PO410118   1.441  10.110   4.139 -0.0082 -0.0113 -0.1419
  844POPC   GL110119   1.319  10.116   4.578  0.1764  0.0311 -0.0223
  844POPC   GL210120   1.572  10.253   4.679 -0.0881 -0.2463 -0.1178
  844POPC   C1A10121   1.090  10.453   4.858 -0.0468 -0.2659  0.0975
  844POPC   D2A10122   0.938  10.487   5.239  0.0623 -0.0735  0.3204
  844POPC   C3A10123   1.171  10.299   5.591  0.0272 -0.0430  0.1801
  844POPC   C4A10124   1.033   9.991   5.961 -0.2476  0.1526 -0.3758
  844POPC   C1B10125   1.372  10.036   5.032  0.0902 -0.0893  0.0022
  844POPC   C2B10126   1.008   9.960   5.281  0.0928  0.0098 -0.1409
  844POPC   C3B10127   0.851   9.652   5.580  0.3016 -0.0726  0.0477
  844POPC   C4B10128   0.888   9.527   6.044  0.1365  0.2643  0.2109
  845POPC   NC310129   5.513   6.366   6.123  0.0443 -0.1281  0.2159
  845POPC   PO410130   5.707   6.074   5.955  0.0538 -0.1155 -0.2311
  845POPC   GL110131   5.605   6.006   6.367  0.0161  0.0031  0.2052
  845POPC   GL210132   5.774   5.836   6.495 -0.1907 -0.2570  0.2723
  845POPC   C1A10133   5.216   6.192   6.511  0.3525 -0.2035 -0.0835
  845POPC   D2A10134   4.850   6.250   6.791 -0.2449  0.2866 -0.0267
  845POPC   C3A10135   4.871   6.453   7.146  0.1223  0.0399 -0.0225
  845POPC   C4A10136   4.592   6.353   7.439  0.0374 -0.0211  0.0094
  845POPC   C1B10137   5.593   5.646   6.902  0.0431  0.0657  0.2533
  845POPC   C2B10138   5.198   5.515   7.161 -0.1645 -0.2090 -0.0513
  845POPC   C3B10139   4.808   5.335   7.355  0.0752  0.0124  0.1455
  845POPC   C4B10140   4.415   5.587   7.359  0.1079 -0.1549  0.4206
  846POPC   NC310141   9.391   6.359  11.776  0.0286  0.0377  0.0625
  846POPC   PO410142   9.397   6.430  12.158 -0.0651 -0.4700 -0.0121
  846POPC   GL110143   9.140   6.726  12.078 -0.1966 -0.0806  0.1383
  846POPC   GL210144   9.329   6.915  11.958 -0.1114  0.1242 -0.0700
  846POPC   C1A10145   8.752   6.943  12.029 -0.1584  0.0991 -0.1609
  846POPC   D2A10146   8.288   6.919  12.152 -0.0116 -0.0702 -0.0471
  846POPC   C3A10147   8.055   7.139  12.512  0.0888  0.0691  0.0803
  846POPC   C4A10148   8.149   7.536  12.702 -0.1914  0.1578 -0.1020
  846POPC   C1B10149   9.165   7.258  12.262  0.2315  0.0036  0.2132
  846POPC   C2B10150   9.059   7.761  12.144  0.1465 -0.1029  0.1188
  846POPC   C3B10151   9.077   8.220  12.245 -0.0880 -0.0666 -0.1916
  846POPC   C4B10152   9.363   8.547  12.155  0.0584  0.0062  0.1835
  847POPC   NC310153  15.593  12.384   4.748  0.3371 -0.0272  0.0813
  847POPC   PO410154  15.321  12.098   4.686 -0.1288  0.1428  0.2817
  847POPC   GL110155  15.494  11.974   4.991  0.0814 -0.0033 -0.2345
  847POPC   GL210156  15.442  12.132   5.212  0.1601 -0.1168 -0.6011
  847POPC   C1A10157  15.425  11.606   5.198 -0.0867  0.0783 -0.1864
  847POPC   D2A10158  15.520  11.488   5.615  0.1367 -0.2680  0.1116
  847POPC   C3A10159  15.775  11.642   5.943 -0.2698  0.0022  0.0987
  847POPC   C4A10160  16.052  11.887   6.181  0.2734  0.2449 -0.0623
  847POPC   C1B10161  15.713  11.950   5.492 -0.0163 -0.1617 -0.4252
  847POPC   C2B10162  16.082  12.088   5.772  0.0333 -0.0121  0.5644
  847POPC   C3B10163  16.442  12.191   6.042 -0.4796  0.0078  0.1509
  847POPC   C4B10164  16.882  12.065   6.084 -0.0089 -0.1023  0.1968
  848POPC   NC310165   5.530  32.094   4.286 -0.0611  0.0165  0.2127
  848POPC   PO410166   5.825  32.004   4.479  0.0599 -0.1578 -0.0711
  848POPC   GL110167   5.789  31.987   4.886  0.2147 -0.2730  0.1980
  848POPC   GL210168   5.546  31.818   4.908  0.0026 -0.0264  0.0206
  848POPC   C1A10169   6.058  32.109   5.241 -0.1703 -0.2427  0.4393
  848POPC   D2A10170   6.122  32.345   5.636  0.0106 -0.0814  0.0429
  848POPC   C3A10171   5.843  32.450   6.004  0.0632  0.0205 -0.1374
  848POPC   C4A10172   5.439  32.544   6.197 -0.3390  0.1249  0.0322
  848POPC   C1B10173   5.804  31.699   5.310  0.0978  0.0648  0.0224
  848POPC   C2B10174   5.788  31.461   5.707 -0.1798 -0.1379 -0.0941
  848POPC   C3B10175   5.811  31.128   5.981 -0.0486  0.4629 -0.2244
  848POPC   C4B10176   6.094  30.911   6.310 -0.1570  0.0429  0.1045
  849POPC   NC310177  11.420   4.837   8.325  0.1883  0.1598  0.0615
  849POPC   PO410178  11.049   4.876   8.462  0.1493 -0.2048  0.0889
  849POPC   GL110179  11.216   4.687   8.717  0.0916 -0.0776  0.1465
  849POPC   GL210180  11.141   4.601   8.978  0.0977  0.1935 -0.2684
  849POPC   C1A10181  11.511   4.310   8.843  0.1895 -0.0872 -0.0021
  849POPC   D2A10182  11.594   3.905   8.962 -0.0414  0.6230 -0.0823
  849POPC   C3A10183  11.397   3.605   8.706  0.0419 -0.1327 -0.1214
  849POPC   C4A10184  11.295   3.209   8.532  0.5638 -0.1121 -0.1474
  849POPC   C1B10185  11.176   4.274   9.279  0.2991 -0.1847  0.2628
  849POPC   C2B10186  10.949   4.016   9.600 -0.1114 -0.4232  0.1078
  849POPC   C3B10187  10.754   3.581   9.692 -0.3823 -0.1607 -0.0868
  849POPC   C4B10188  10.898   3.278   9.393  0.4138 -0.0918  0.1322
  850POPC   NC310189   6.724   2.718   6.167 -0.2352  0.0311  0.0009
  850POPC   PO410190   6.474   2.461   5.984 -0.1844 -0.3194 -0.3103
  850POPC   GL110191   6.216   2.246   6.272  0.0997  0.0715 -0.2698
  850POPC   GL210192   5.972   2.309   6.164 -0.2500 -0.0599  0.3344
  850POPC   C1A10193   6.332   1.913   6.615 -0.2233 -0.4315  0.1928
  850POPC   D2A10194   6.428   1.865   7.078 -0.1411 -0.0564  0.2147
  850POPC   C3A10195   6.051   1.609   7.241  0.2383 -0.1677 -0.4827
  850POPC   C4A10196   5.717   1.317   7.357  0.1596 -0.2159 -0.0306
  850POPC   C1B10197   5.962   2.301   6.604 -0.0675  0.2917 -0.3046
  850POPC   C2B10198   6.022   2.091   7.006 -0.1656 -0.1312  0.1492
  850POPC   C3B10199   6.048   2.066   7.483  0.2953  0.2373 -0.1028
  850POPC   C4B10200   6.191   1.944   7.913  0.0118 -0.0579  0.2142
  851POPC   NC310201   7.621   2.806   6.166  0.0501 -0.0008  0.3396
  851POPC   PO410202   7.579   2.513   6.358 -0.1380  0.2050 -0.1341
  851POPC   GL110203   7.653   2.494   6.785  0.1068  0.3000 -0.1096
  851POPC   GL210204   7.654   2.266   6.935  0.2358 -0.1525 -0.1440
  851POPC   C1A10205   8.130   2.513   6.946 -0.3289 -0.0286 -0.1685
  851POPC   D2A10206   8.488   2.616   7.258 -0.1836 -0.0457 -0.0626
  851POPC   C3A10207   8.585   2.622   7.717 -0.1501 -0.2567  0.1589
  851POPC   C4A10208   8.618   2.311   7.979  0.1147 -0.0399 -0.1350
  851POPC   C1B10209   7.399   2.554   7.218 -0.1408 -0.1068 -0.0522
  851POPC   C2B10210   7.098   2.490   7.558 -0.1716  0.0009  0.0054
  851POPC   C3B10211   6.797   2.406   7.900 -0.0856  0.0323  0.0094
  851POPC   C4B10212   6.386   2.621   8.000  0.2408 -0.1186 -0.0129
  852POPC   NC310213   8.109  12.027   5.254 -0.0566  0.1602  0.0890
  852POPC   PO410214   8.152  12.323   5.035  0.1300 -0.1351  0.0623
  852POPC   GL110215   8.072  12.452   5.467 -0.0548  0.1017 -0.1115
  852POPC   GL210216   8.297  12.349   5.627 -0.0150 -0.1963  0.2930
  852POPC   C1A10217   8.094  12.780   5.770 -0.0652  0.0321 -0.0765
  852POPC   D2A10218   7.922  12.755   6.197  0.2343  0.2558  0.3839
  852POPC   C3A10219   7.889  13.158   6.383  0.0147 -0.0615  0.1447
  852POPC   C4A10220   7.711  13.471   6.622 -0.2372 -0.1374  0.2235
  852POPC   C1B10221   8.549  12.575   6.007 -0.5059  0.0098 -0.0142
  852POPC   C2B10222   8.457  12.955   6.270  0.0837  0.2262  0.1164
  852POPC   C3B10223   8.532  13.087   6.693  0.1416 -0.0814  0.1208
  852POPC   C4B10224   8.527  12.978   7.201 -0.0511 -0.0345  0.1720
  853POPC   NC310225  14.441  10.451   5.107  0.2015  0.0203 -0.0469
  853POPC   PO410226  14.658  10.095   5.159 -0.2858 -0.0192 -0.0685
  853POPC   GL110227  14.670  10.365   5.475  0.3260 -0.2910  0.0403
  853POPC   GL210228  14.898  10.429   5.567 -0.2190 -0.0496  0.0741
  853POPC   C1A10229  14.542  10.287   5.936 -0.0640 -0.1563  0.2155
  853POPC   D2A10230  14.647  10.188   6.396  0.1127 -0.0665 -0.0761
  853POPC   C3A10231  14.677  10.542   6.662  0.1702 -0.1227  0.1227
  853POPC   C4A10232  14.594  10.702   7.050  0.0111  0.0086  0.0813
  853POPC   C1B10233  14.770  10.693   5.871 -0.2325  0.1798  0.0757
  853POPC   C2B10234  14.546  10.886   6.208  0.0964  0.0338 -0.3772
  853POPC   C3B10235  14.621  11.077   6.608  0.0965  0.0250  0.0317
  853POPC   C4B10236  14.594  11.395   6.938  0.1232 -0.3321  0.3506
  854POPC   NC310237  12.988  17.094   5.020 -0.0508 -0.2174  0.0517
  854POPC   PO410238  12.809  17.387   4.847 -0.1004 -0.1597  0.4159
  854POPC   GL110239  12.750  17.545   5.178 -0.1109 -0.1051  0.1586
  854POPC   GL210240  12.581  17.616   5.428  0.0404  0.2880  0.2088
  854POPC   C1A10241  13.027  17.501   5.544  0.1910  0.1440  0.0367
  854POPC   D2A10242  13.032  17.381   5.998  0.1517 -0.2034 -0.1521
  854POPC   C3A10243  13.196  17.172   6.404 -0.0379  0.1390 -0.1260
  854POPC   C4A10244  13.109  17.376   6.789 -0.1084 -0.1401  0.5050
  854POPC   C1B10245  12.503  17.627   5.905  0.0480  0.0569 -0.2159
  854POPC   C2B10246  12.516  17.543   6.422  0.1254 -0.1649 -0.2643
  854POPC   C3B10247  12.612  17.412   6.864  0.0798  0.1741 -0.1462
  854POPC   C4B10248  12.705  17.709   7.172  0.0598 -0.2289 -0.0282
  855POPC   NC310249   5.314   4.906   5.661  0.0192  0.0389  0.0421
  855POPC   PO410250   5.614   5.110   5.715 -0.3660  0.1162 -0.1047
  855POPC   GL110251   5.477   5.074   6.137 -0.0807 -0.1929 -0.0704
  855POPC   GL210252   5.501   5.385   6.285 -0.1305  0.0914 -0.2028
  855POPC   C1A10253   5.573   4.883   6.550 -0.0308  0.1934  0.0348
  855POPC   D2A10254   5.336   4.592   6.878  0.0786 -0.1127 -0.0947
  855POPC   C3A10255   5.337   4.200   6.620  0.0106  0.0212 -0.1218
  855POPC   C4A10256   5.377   4.044   6.182  0.1587  0.3385 -0.1315
  855POPC   C1B10257   5.212   5.314   6.629 -0.1007 -0.0380  0.1219
  855POPC   C2B10258   4.755   5.324   6.686 -0.1008  0.0126  0.0639
  855POPC   C3B10259   4.438   5.020   6.971 -0.0651  0.3408 -0.3713
  855POPC   C4B10260   4.637   4.774   7.350  0.1641 -0.2351 -0.1599
  856POPC   NC310261  15.253   1.923   5.016 -0.0483  0.2393  0.2407
  856POPC   PO410262  15.095   2.283   4.842  0.0539  0.2258  0.0375
  856POPC   GL110263  14.947   2.229   5.190  0.2685 -0.1367 -0.1433
  856POPC   GL210264  15.104   2.399   5.369 -0.0669  0.0180  0.2052
  856POPC   C1A10265  15.078   1.860   5.474  0.2030  0.1449  0.0726
  856POPC   D2A10266  15.215   1.725   5.895  0.2527 -0.3134  0.2028
  856POPC   C3A10267  14.983   1.998   6.214 -0.2141 -0.5641 -0.0635
  856POPC   C4A10268  15.041   1.898   6.653 -0.0904 -0.2177  0.1738
  856POPC   C1B10269  15.096   2.277   5.824 -0.2834 -0.1701  0.2880
  856POPC   C2B10270  15.179   2.502   6.210 -0.0226  0.1745 -0.1391
  856POPC   C3B10271  15.171   2.770   6.578  0.1024 -0.0964  0.0701
  856POPC   C4B10272  15.346   3.097   6.852 -0.4968  0.0289  0.0104
  857POPC   NC310273  10.483   7.111   9.248  0.1161  0.3472 -0.1457
  857POPC   PO410274  10.501   6.954   9.618 -0.0872 -0.0175 -0.0618
  857POPC   GL110275  10.620   7.276   9.772 -0.0356  0.2096  0.3517
  857POPC   GL210276  10.874   7.284   9.577  0.0787  0.0459 -0.0450
  857POPC   C1A10277  10.922   7.423  10.079  0.2391 -0.3959 -0.1768
  857POPC   D2A10278  11.142   7.688  10.398 -0.2078  0.0135  0.1128
  857POPC   C3A10279  11.543   7.906  10.502  0.0061 -0.1298 -0.2209
  857POPC   C4A10280  11.997   7.866  10.421 -0.0405 -0.3633 -0.2428
  857POPC   C1B10281  11.291   7.441   9.763 -0.1836 -0.1169 -0.0270
  857POPC   C2B10282  11.779   7.537   9.658  0.0304 -0.1427  0.0264
  857POPC   C3B10283  12.114   7.904   9.654  0.0889 -0.0782  0.0536
  857POPC   C4B10284  12.246   7.970  10.057 -0.2911  0.0816  0.2253
  858POPC   NC310285  11.113   8.550   7.384  0.1180 -0.4372 -0.0714
  858POPC   PO410286  11.300   8.843   7.203 -0.0419 -0.2742 -0.7699
  858POPC   GL110287  11.642   8.834   7.382  0.1220 -0.3506 -0.0780
  858POPC   GL210288  11.583   8.484   7.571  0.3239  0.0874  0.1028
  858POPC   C1A10289  11.987   9.108   7.541 -0.3806 -0.0642  0.2455
  858POPC   D2A10290  12.322   9.048   7.836 -0.1267  0.1319 -0.1573
  858POPC   C3A10291  12.326   9.248   8.235 -0.1655  0.0764  0.1292
  858POPC   C4A10292  12.087   9.501   8.558 -0.2910 -0.0109 -0.1714
  858POPC   C1B10293  11.347   8.667   7.866  0.0407  0.0176 -0.1049
  858POPC   C2B10294  11.208   9.016   8.121 -0.0481  0.1061  0.2088
  858POPC   C3B10295  11.011   9.135   8.524  0.1461 -0.0561  0.1603
  858POPC   C4B10296  11.110   9.179   8.992 -0.0347  0.3856  0.1997
  859POPC   NC310297  13.370   4.202   6.012  0.1075  0.2044  0.1180
  859POPC   PO410298  13.130   4.382   6.279 -0.1340 -0.1348 -0.0886
  859POPC   GL110299  13.200   4.547   6.613 -0.1405 -0.4361  0.1562
  859POPC   GL210300  13.465   4.519   6.698  0.0933 -0.2816  0.1410
  859POPC   C1A10301  13.281   4.872   6.929 -0.0667  0.0133 -0.1955
  859POPC   D2A10302  12.921   5.137   7.135 -0.2140 -0.0010  0.4546
  859POPC   C3A10303  12.952   5.078   7.619 -0.0667 -0.2359 -0.2823
  859POPC   C4A10304  12.674   5.152   7.946 -0.1572 -0.2731  0.0446
  859POPC   C1B10305  13.935   4.520   6.750  0.0248  0.4384  0.0620
  859POPC   C2B10306  14.217   4.694   7.074  0.2422 -0.0047 -0.0803
  859POPC   C3B10307  14.451   4.802   7.436  0.1782 -0.0528 -0.0129
  859POPC   C4B10308  14.690   4.763   7.848  0.1141  0.1154 -0.1098
  860POPC   NC310309   8.277   8.350   7.038  0.0168 -0.0008 -0.1183
  860POPC   PO410310   8.126   8.095   7.316  0.1086  0.0584  0.2048
  860POPC   GL110311   7.964   8.304   7.597  0.0729  0.3754  0.0243
  860POPC   GL210312   8.081   8.270   7.835 -0.1493 -0.1204  0.0193
  860POPC   C1A10313   7.657   8.505   7.848 -0.1627 -0.0034 -0.0932
  860POPC   D2A10314   7.465   8.430   8.222  0.1111  0.3563  0.2280
  860POPC   C3A10315   7.022   8.696   8.175  0.3035  0.0985  0.2243
  860POPC   C4A10316   6.762   8.971   7.997  0.2238 -0.0876 -0.4207
  860POPC   C1B10317   8.054   8.568   8.158 -0.0031 -0.0241  0.2062
  860POPC   C2B10318   8.024   8.820   8.551  0.0574 -0.2775  0.2307
  860POPC   C3B10319   8.014   9.014   8.951  0.3587  0.2832 -0.3973
  860POPC   C4B10320   8.121   9.426   9.203  0.0034  0.0536 -0.2520
  861POPC   NC310321   7.596   8.111   7.274 -0.0632 -0.0627 -0.1522
  861POPC   PO410322   7.351   7.949   6.988  0.1631 -0.0420  0.1447
  861POPC   GL110323   7.059   8.038   7.353 -0.1201  0.1670  0.2371
  861POPC   GL210324   7.025   8.280   7.158  0.1720  0.0555  0.2001
  861POPC   C1A10325   6.784   7.975   7.689 -0.1305  0.2274 -0.1841
  861POPC   D2A10326   6.828   8.189   8.119 -0.2532 -0.0596  0.1670
  861POPC   C3A10327   6.577   8.474   8.349 -0.0669  0.1451  0.0007
  861POPC   C4A10328   6.672   8.830   8.645  0.2443  0.0787  0.2085
  861POPC   C1B10329   6.583   8.378   7.179 -0.0960 -0.1424 -0.0036
  861POPC   C2B10330   6.193   8.510   7.485 -0.3585 -0.0495  0.0300
  861POPC   C3B10331   5.879   8.738   7.775  0.1821  0.2244 -0.0571
  861POPC   C4B10332   5.741   9.020   8.124  0.1393 -0.1286 -0.3170
  862POPC   NC310333  10.919   3.062   6.512 -0.2130  0.0067 -0.0673
  862POPC   PO410334  10.720   3.328   6.763  0.1155 -0.1285  0.0579
  862POPC   GL110335  10.844   3.103   6.984 -0.2424  0.1363  0.0009
  862POPC   GL210336  10.906   2.857   6.976 -0.1759 -0.0234  0.0332
  862POPC   C1A10337  10.954   2.948   7.438  0.0532 -0.0247  0.1717
  862POPC   D2A10338  11.075   2.664   7.795 -0.3866  0.0601  0.2048
  862POPC   C3A10339  10.815   2.278   7.842 -0.0154  0.3169  0.0471
  862POPC   C4A10340  10.492   1.979   7.937 -0.2710  0.1142  0.1122
  862POPC   C1B10341  10.820   2.494   7.222 -0.1041  0.0801 -0.1706
  862POPC   C2B10342  10.557   2.209   7.425 -0.1589 -0.1219  0.1413
  862POPC   C3B10343  10.130   2.063   7.494 -0.1322 -0.1205 -0.4196
  862POPC   C4B10344   9.989   1.936   7.937 -0.2115 -0.3001  0.2335
  863POPC   NC310345   3.516   2.213   4.981 -0.1531  0.0794  0.1866
  863POPC   PO410346   3.919   2.116   4.896 -0.1173 -0.1182  0.2257
  863POPC   GL110347   3.936   2.040   5.212  0.1484  0.4138 -0.1443
  863POPC   GL210348   3.811   2.217   5.397 -0.0104 -0.2673  0.1621
  863POPC   C1A10349   4.115   1.729   5.597 -0.1462 -0.0832  0.2775
  863POPC   D2A10350   4.369   1.455   5.835  0.2367 -0.1425  0.2569
  863POPC   C3A10351   4.391   1.529   6.289  0.0908 -0.0578 -0.0656
  863POPC   C4A10352   4.643   1.383   6.686 -0.0986  0.1066  0.3602
  863POPC   C1B10353   3.781   2.041   5.817 -0.1402  0.1151  0.0391
  863POPC   C2B10354   3.913   1.615   6.030  0.1050  0.2853  0.2161
  863POPC   C3B10355   3.936   1.328   6.422 -0.0269 -0.2363  0.0112
  863POPC   C4B10356   3.766   0.943   6.589 -0.0202  0.2361  0.4830
  864POPC   NC310357  11.219  17.096   4.706  0.1759  0.0466  0.0797
  864POPC   PO410358  10.888  17.113   4.878 -0.0420 -0.1318  0.1697
  864POPC   GL110359  11.044  17.103   5.276 -0.1038  0.1746  0.2937
  864POPC   GL210360  11.340  17.093   5.296 -0.1456 -0.1259 -0.1000
  864POPC   C1A10361  10.991  16.721   5.576  0.0977 -0.2032  0.0750
  864POPC   D2A10362  10.945  16.539   5.942  0.1249  0.0756  0.1219
  864POPC   C3A10363  10.786  16.749   6.343  0.0751 -0.2087  0.2592
  864POPC   C4A10364  10.402  16.943   6.574 -0.0920 -0.0972 -0.0937
  864POPC   C1B10365  11.486  16.905   5.701  0.0716  0.2525  0.1253
  864POPC   C2B10366  11.719  17.091   6.061  0.0557  0.0224  0.1564
  864POPC   C3B10367  11.807  16.989   6.508 -0.3389  0.3730 -0.0994
  864POPC   C4B10368  11.720  16.850   6.948  0.4892  0.2012  0.1178
  865POPC   NC310369  15.791   6.971   4.782 -0.2236 -0.3105  0.0026
  865POPC   PO410370  15.882   6.802   5.148  0.0647  0.3531 -0.2896
  865POPC   GL110371  16.146   6.763   5.398  0.1860  0.2187 -0.0217
  865POPC   GL210372  15.972   6.825   5.648 -0.0237 -0.0601  0.1283
  865POPC   C1A10373  16.403   7.036   5.646 -0.1656  0.1992 -0.0827
  865POPC   D2A10374  16.406   7.174   6.070  0.2318  0.1359  0.0704
  865POPC   C3A10375  16.643   6.877   6.413 -0.4085 -0.2118  0.0251
  865POPC   C4A10376  16.901   6.599   6.730  0.0479  0.1617  0.0123
  865POPC   C1B10377  15.779   6.774   6.089 -0.2081  0.1574  0.1823
  865POPC   C2B10378  15.727   7.024   6.444  0.1901 -0.1633  0.0231
  865POPC   C3B10379  15.788   7.259   6.816  0.0700 -0.0227  0.1061
  865POPC   C4B10380  15.845   7.409   7.243 -0.0713  0.0894  0.2266
  866POPC   NC310381   5.679  12.423   4.514  0.1922  0.2994 -0.0815
  866POPC   PO410382   5.274  12.465   4.472 -0.1925  0.1797  0.1134
  866POPC   GL110383   5.213  12.496   4.844 -0.0083  0.2118 -0.0415
  866POPC   GL210384   5.025  12.661   4.838  0.2527 -0.2062  0.0282
  866POPC   C1A10385   5.181  12.578   5.318  0.1466 -0.1405  0.0114
  866POPC   D2A10386   5.026  12.526   5.747  0.1461 -0.1319 -0.1506
  866POPC   C3A10387   4.841  12.863   5.933  0.2353  0.0947  0.0209
  866POPC   C4A10388   4.581  13.090   6.320  0.0303  0.4111  0.2803
  866POPC   C1B10389   4.948  12.989   5.140 -0.0088 -0.0667  0.0577
  866POPC   C2B10390   5.110  13.021   5.557  0.1211 -0.1630  0.0055
  866POPC   C3B10391   5.415  13.310   5.703  0.1444 -0.1899 -0.0038
  866POPC   C4B10392   5.813  13.526   5.884 -0.1738 -0.2210 -0.0745
  867POPC   NC310393   3.212  10.652   4.395  0.5380  0.0738 -0.1082
  867POPC   PO410394   3.500  10.878   4.276 -0.1026 -0.0587  0.1810
  867POPC   GL110395   3.497  11.029   4.614 -0.1358  0.1864 -0.0858
  867POPC   GL210396   3.196  11.092   4.741 -0.0136 -0.0325  0.1862
  867POPC   C1A10397   3.827  11.016   4.909  0.0136 -0.0261  0.0052
  867POPC   D2A10398   4.036  11.162   5.289  0.0697  0.3072  0.2262
  867POPC   C3A10399   4.502  11.063   5.315  0.1547 -0.1341 -0.0995
  867POPC   C4A10400   4.819  10.817   5.517  0.1747 -0.0012  0.2300
  867POPC   C1B10401   3.418  11.253   5.079  0.0126 -0.0685 -0.2215
  867POPC   C2B10402   3.703  11.426   5.431  0.2575 -0.0329  0.0732
  867POPC   C3B10403   3.980  11.496   5.761 -0.0843  0.0698 -0.1764
  867POPC   C4B10404   4.227  11.488   6.148 -0.4695  0.0988  0.1412
  868POPC   NC310405   7.939   2.243   6.332 -0.1567  0.3373 -0.1466
  868POPC   PO410406   8.144   2.025   6.046 -0.0850 -0.0134  0.0996
  868POPC   GL110407   7.938   1.755   6.304 -0.3553  0.1275 -0.5721
  868POPC   GL210408   8.212   1.519   6.316 -0.4226 -0.0420  0.0672
  868POPC   C1A10409   8.018   1.560   6.736 -0.0026  0.0767 -0.0599
  868POPC   D2A10410   7.866   1.518   7.204 -0.2705  0.0839 -0.1407
  868POPC   C3A10411   8.241   1.307   7.413 -0.0664 -0.1821 -0.3464
  868POPC   C4A10412   8.313   0.944   7.698  0.0012 -0.3933  0.1040
  868POPC   C1B10413   8.231   1.164   6.579  0.2033  0.1983 -0.1314
  868POPC   C2B10414   8.284   1.086   6.993  0.2021  0.3439  0.0356
  868POPC   C3B10415   8.518   0.740   7.274 -0.0967 -0.4772  0.1554
  868POPC   C4B10416   8.586   0.509   7.657  0.0614  0.0937  0.0678
  869POPC   NC310417   1.057   8.871   5.052 -0.1750 -0.1017 -0.1510
  869POPC   PO410418   1.391   8.629   4.959  0.1532 -0.0897 -0.0333
  869POPC   GL110419   1.521   8.720   5.379  0.0827  0.1094  0.1113
  869POPC   GL210420   1.329   8.482   5.479  0.1454  0.4163  0.2250
  869POPC   C1A10421   1.379   9.026   5.694 -0.0804 -0.2092  0.0533
  869POPC   D2A10422   1.408   9.451   5.822 -0.2276  0.0782  0.2380
  869POPC   C3A10423   1.338   9.646   6.197 -0.1107 -0.1584  0.0680
  869POPC   C4A10424   1.550   9.635   6.576 -0.3854 -0.0145  0.2370
  869POPC   C1B10425   1.631   8.576   5.845  0.0718  0.0433 -0.1057
  869POPC   C2B10426   1.564   8.763   6.263 -0.2467 -0.0968  0.1738
  869POPC   C3B10427   1.723   9.150   6.493 -0.0334 -0.1208 -0.1143
  869POPC   C4B10428   1.972   9.459   6.717 -0.1678  0.1702 -0.1771
  870POPC   NC310429  16.775   6.967   4.883  0.0864  0.0766 -0.0846
  870POPC   PO410430  16.758   7.362   4.895 -0.2335 -0.0649  0.1357
  870POPC   GL110431  16.689   7.281   5.254  0.2279 -0.1650  0.1565
  870POPC   GL210432  16.488   7.468   5.443 -0.0426 -0.0615  0.2851
  870POPC   C1A10433  16.829   7.293   5.749 -0.1325 -0.0881  0.0977
  870POPC   D2A10434  16.944   7.399   6.230  0.0686 -0.3190  0.0993
  870POPC   C3A10435  16.942   7.636   6.583  0.1536 -0.0967 -0.0974
  870POPC   C4A10436  16.659   7.591   6.951  0.0851 -0.1809 -0.1719
  870POPC   C1B10437  16.148   7.671   5.673  0.1524  0.0473 -0.0658
  870POPC   C2B10438  15.784   7.795   5.940  0.0012  0.2539  0.0494
  870POPC   C3B10439  15.507   8.143   6.118 -0.0468 -0.0960  0.1993
  870POPC   C4B10440  15.262   8.513   6.287  0.1619  0.0043 -0.1417
  871POPC   NC310441   9.780   6.710   9.947  0.0310  0.1279  0.0232
  871POPC   PO410442  10.098   6.672   9.754  0.0094 -0.1919 -0.1018
  871POPC   GL110443  10.051   7.080   9.733  0.0040  0.3900  0.0927
  871POPC   GL210444   9.821   7.221   9.938 -0.1569 -0.2104 -0.0207
  871POPC   C1A10445  10.230   7.451   9.854 -0.1147  0.0032 -0.2656
  871POPC   D2A10446  10.440   7.491  10.275  0.0859  0.3214 -0.0387
  871POPC   C3A10447  10.668   7.832  10.155 -0.1287  0.1243  0.2312
  871POPC   C4A10448  10.900   8.139  10.270 -0.2137  0.0121 -0.0247
  871POPC   C1B10449   9.783   7.676  10.010  0.0211  0.0826 -0.2777
  871POPC   C2B10450   9.837   8.111  10.100  0.1960  0.0440  0.0348
  871POPC   C3B10451   9.797   8.558  10.153  0.1995 -0.1342 -0.0900
  871POPC   C4B10452   9.460   8.822  10.285  0.4755 -0.2872  0.2201
  872POPC   NC310453   8.252   5.488   8.895  0.1399 -0.0920 -0.2294
  872POPC   PO410454   8.276   5.801   9.142  0.0548 -0.1274 -0.0283
  872POPC   GL110455   7.910   5.663   9.242  0.0361  0.2219 -0.3707
  872POPC   GL210456   7.770   5.392   9.218  0.1420 -0.1037 -0.3800
  872POPC   C1A10457   7.413   5.837   9.257 -0.1107  0.1169  0.1412
  872POPC   D2A10458   7.237   6.044   9.643 -0.2576 -0.1870  0.0885
  872POPC   C3A10459   7.400   6.039  10.030 -0.0632  0.0042 -0.1499
  872POPC   C4A10460   7.414   5.961  10.523 -0.0083 -0.2204  0.0981
  872POPC   C1B10461   7.333   5.372   9.053 -0.1342  0.1136  0.1003
  872POPC   C2B10462   7.025   5.394   8.721  0.1570 -0.2750 -0.0721
  872POPC   C3B10463   6.579   5.384   8.896  0.0393 -0.1587 -0.0654
  872POPC   C4B10464   6.189   5.430   9.128 -0.0641  0.1858  0.2540
  873POPC   NC310465  10.369   3.168   7.116  0.0447 -0.0223  0.0721
  873POPC   PO410466  10.406   2.898   6.832  0.1181  0.1908  0.1156
  873POPC   GL110467  10.462   2.747   7.122  0.4456  0.5485  0.0435
  873POPC   GL210468  10.180   2.659   7.299  0.3858 -0.0021 -0.1963
  873POPC   C1A10469  10.479   2.943   7.529  0.0677 -0.1516 -0.0777
  873POPC   D2A10470  10.646   2.808   7.924  0.0766  0.0855  0.0433
  873POPC   C3A10471  10.449   2.483   8.194 -0.1725  0.2617  0.2128
  873POPC   C4A10472  10.577   2.239   8.582 -0.0303  0.0592 -0.1630
  873POPC   C1B10473  10.032   2.756   7.706  0.2066 -0.3191 -0.0916
  873POPC   C2B10474   9.941   2.433   8.042 -0.0958  0.0499 -0.0069
  873POPC   C3B10475  10.055   2.149   8.383  0.0987  0.2252  0.0520
  873POPC   C4B10476  10.382   1.823   8.441  0.0683 -0.3207 -0.1625
  874POPC   NC310477   3.643   8.963   4.676  0.0671 -0.1117  0.2564
  874POPC   PO410478   3.568   8.607   4.860 -0.0729  0.1350 -0.0507
  874POPC   GL110479   3.511   8.555   5.224  0.0339 -0.0064  0.2002
  874POPC   GL210480   3.761   8.519   5.387 -0.4477  0.0365 -0.1076
  874POPC   C1A10481   3.357   8.500   5.655  0.1183 -0.2604 -0.0163
  874POPC   D2A10482   3.214   8.770   6.014 -0.0329 -0.2634 -0.2336
  874POPC   C3A10483   3.264   8.539   6.404 -0.0273  0.2271  0.1947
  874POPC   C4A10484   3.407   8.374   6.808  0.1987 -0.1994  0.0226
  874POPC   C1B10485   4.072   8.781   5.617 -0.0832 -0.3764  0.0945
  874POPC   C2B10486   4.390   9.085   5.462 -0.1107 -0.1887  0.2971
  874POPC   C3B10487   4.586   9.423   5.683  0.1590 -0.1239  0.0640
  874POPC   C4B10488   4.668   9.536   6.054 -0.0297 -0.1618 -0.0485
  875POPC   NC310489   6.654  10.196   5.705 -0.2037  0.0014 -0.2219
  875POPC   PO410490   6.361  10.044   5.500 -0.2129 -0.0985 -0.5196
  875POPC   GL110491   6.074  10.206   5.826  0.0979 -0.0767  0.1266
  875POPC   GL210492   6.140  10.488   5.830 -0.2480  0.0548 -0.4737
  875POPC   C1A10493   5.922  10.333   6.276  0.0902  0.0656  0.0451
  875POPC   D2A10494   5.814  10.314   6.746  0.2990 -0.0178  0.0878
  875POPC   C3A10495   5.399  10.106   6.842 -0.3072  0.0496 -0.0165
  875POPC   C4A10496   5.037   9.915   6.971  0.2407 -0.2972  0.2014
  875POPC   C1B10497   6.279  10.713   6.206  0.1604 -0.1014 -0.1120
  875POPC   C2B10498   6.538  10.966   6.435  0.1055  0.1523 -0.3127
  875POPC   C3B10499   6.546  11.362   6.646 -0.0314  0.0461 -0.1900
  875POPC   C4B10500   6.261  11.646   6.865 -0.0124 -0.0058 -0.4680
  876POPC   NC310501  11.582   6.154   8.084  0.4297  0.0638 -0.2243
  876POPC   PO410502  11.857   6.103   8.352  0.2122  0.0456 -0.0124
  876POPC   GL110503  12.093   6.544   8.480 -0.3831  0.0615 -0.3925
  876POPC   GL210504  12.042   6.531   8.695 -0.1599  0.0297  0.2061
  876POPC   C1A10505  12.545   6.428   8.688  0.0595 -0.0794 -0.1361
  876POPC   D2A10506  12.911   6.130   8.616 -0.0372  0.0886 -0.0231
  876POPC   C3A10507  12.838   5.716   8.931  0.1684 -0.0058 -0.0950
  876POPC   C4A10508  12.805   5.287   8.989 -0.2744 -0.0340 -0.3165
  876POPC   C1B10509  12.233   6.844   8.961 -0.1229 -0.0945  0.0965
  876POPC   C2B10510  12.533   6.925   9.270  0.1591  0.0503 -0.0736
  876POPC   C3B10511  12.672   6.577   9.600 -0.3238 -0.0187  0.1262
  876POPC   C4B10512  12.708   6.204   9.927  0.0372  0.0023 -0.1597
  877POPC   NC310513  11.640  16.451   4.347 -0.2290 -0.1000  0.0912
  877POPC   PO410514  11.717  16.568   4.700 -0.1875 -0.2482  0.1726
  877POPC   GL110515  11.556  16.758   4.881  0.0514 -0.4032 -0.1340
  877POPC   GL210516  11.684  16.988   5.011  0.0130  0.0266 -0.0559
  877POPC   C1A10517  11.420  16.591   5.340 -0.1418  0.0628  0.3979
  877POPC   D2A10518  11.279  16.299   5.621 -0.3097 -0.0631 -0.0445
  877POPC   C3A10519  11.485  16.021   5.882 -0.0074  0.0311 -0.0786
  877POPC   C4A10520  11.388  15.640   6.194  0.2850  0.1786  0.0463
  877POPC   C1B10521  11.916  16.956   5.456 -0.1127  0.1903 -0.0471
  877POPC   C2B10522  11.999  16.703   5.839 -0.0123 -0.0693 -0.1072
  877POPC   C3B10523  12.210  16.678   6.260 -0.2318  0.3770  0.1422
  877POPC   C4B10524  12.156  16.667   6.717 -0.1194  0.0521 -0.0221
  878POPC   NC310525   6.928   0.547   5.552  0.2375 -0.1968 -0.0184
  878POPC   PO410526   7.272   0.523   5.385 -0.1550 -0.1600 -0.5099
  878POPC   GL110527   7.298   0.358   5.795  0.0271 -0.4244  0.2545
  878POPC   GL210528   7.303   0.085   5.863  0.0169 -0.2160 -0.3012
  878POPC   C1A10529   6.982   0.438   6.096 -0.0145  0.0361 -0.1538
  878POPC   D2A10530   6.609   0.240   6.334 -0.4597  0.1521  0.3480
  878POPC   C3A10531   6.528   0.511   6.681  0.0932  0.1534 -0.0479
  878POPC   C4A10532   6.444   0.769   7.069  0.0046  0.1375 -0.2423
  878POPC   C1B10533   7.384  -0.072   6.348  0.1055  0.1654 -0.1171
  878POPC   C2B10534   7.466  -0.071   6.831  0.3013  0.1804 -0.0729
  878POPC   C3B10535   7.256   0.224   7.050 -0.1507 -0.2481 -0.0970
  878POPC   C4B10536   7.120   0.157   7.474 -0.0691 -0.0808  0.0882
  879POPC   NC310537  13.119   2.592   5.162  0.1375 -0.1644  0.0082
  879POPC   PO410538  13.233   2.777   5.474 -0.4563 -0.3167 -0.0585
  879POPC   GL110539  13.397   2.555   5.793 -0.1661 -0.1522  0.0409
  879POPC   GL210540  13.113   2.494   5.902 -0.0486  0.1797  0.2818
  879POPC   C1A10541  13.721   2.278   6.032  0.2225  0.0205 -0.0303
  879POPC   D2A10542  14.044   2.023   5.808  0.0305 -0.2323  0.0053
  879POPC   C3A10543  14.371   1.823   6.089 -0.0543 -0.2548  0.0831
  879POPC   C4A10544  14.557   1.893   6.526  0.0343 -0.2503 -0.1803
  879POPC   C1B10545  13.170   2.344   6.406 -0.2160 -0.0284  0.1043
  879POPC   C2B10546  13.488   2.437   6.721  0.3761 -0.1935 -0.2112
  879POPC   C3B10547  13.927   2.538   6.780 -0.3533  0.0873 -0.1478
  879POPC   C4B10548  14.392   2.569   6.648 -0.1060 -0.0849 -0.2348
  880POPC   NC310549  31.871   1.422   4.404  0.2738 -0.0565 -0.0840
  880POPC   PO410550  32.110   1.778   4.437  0.3811  0.0881 -0.3132
  880POPC   GL110551  32.041   1.692   4.872  0.1963  0.0852  0.2241
  880POPC   GL210552  32.301   1.592   4.940 -0.1633  0.1257  0.2398
  880POPC   C1A10553  31.898   1.276   5.015 -0.0348 -0.0080 -0.2510
  880POPC   D2A10554  31.869   0.875   4.832 -0.0268  0.0268 -0.0416
  880POPC   C3A10555  31.841   0.710   5.261 -0.1677  0.0432 -0.1261
  880POPC   C4A10556  31.809   0.479   5.682 -0.0298 -0.0618 -0.0894
  880POPC   C1B10557  32.305   1.412   5.367 -0.1362  0.2403 -0.2953
  880POPC   C2B10558  31.976   1.192   5.528 -0.2050 -0.1600  0.3302
  880POPC   C3B10559  31.941   0.920   5.894 -0.3962 -0.2707 -0.2195
  880POPC   C4B10560  31.740   0.690   6.266  0.0571 -0.0459 -0.3392
  881POPC   NC310561   8.945   5.763  10.100  0.3270 -0.1633  0.1343
  881POPC   PO410562   8.618   5.985  10.006  0.0285  0.3567  0.4422
  881POPC   GL110563   8.259   5.976  10.143  0.1874  0.2599  0.0723
  881POPC   GL210564   8.082   5.988   9.906  0.0684  0.1653  0.0002
  881POPC   C1A10565   7.863   5.756  10.279 -0.2324  0.2171  0.0830
  881POPC   D2A10566   7.680   5.505  10.591 -0.0394 -0.0733 -0.0390
  881POPC   C3A10567   7.662   5.066  10.618 -0.3306 -0.3544 -0.0606
  881POPC   C4A10568   7.930   4.658  10.462  0.0780  0.1380  0.1728
  881POPC   C1B10569   7.751   5.781   9.714  0.0198  0.4487  0.0615
  881POPC   C2B10570   7.341   5.520   9.698  0.0269 -0.1818  0.2791
  881POPC   C3B10571   6.905   5.588   9.752 -0.0410 -0.0651 -0.1504
  881POPC   C4B10572   6.535   5.414   9.859  0.2370  0.5156 -0.0446
  882POPC   NC310573  10.492  11.534   5.338  0.2418 -0.0103  0.1872
  882POPC   PO410574  10.164  11.727   5.509 -0.0819 -0.2300  0.1511
  882POPC   GL110575  10.090  11.705   5.832 -0.2773  0.0635  0.2594
  882POPC   GL210576  10.246  11.533   6.074 -0.0882  0.0206 -0.0908
  882POPC   C1A10577   9.869  11.881   6.215  0.1851 -0.0955  0.2151
  882POPC   D2A10578  10.060  12.142   6.534 -0.1966  0.0985  0.1458
  882POPC   C3A10579  10.439  12.413   6.616 -0.6560 -0.2264 -0.2938
  882POPC   C4A10580  10.662  12.576   7.002  0.3328 -0.2849 -0.1895
  882POPC   C1B10581  10.558  11.554   6.443  0.2577  0.1872  0.2513
  882POPC   C2B10582  10.570  11.904   6.724  0.0192  0.2036  0.0805
  882POPC   C3B10583  10.788  12.004   7.166  0.1114 -0.1382 -0.0543
  882POPC   C4B10584  10.894  12.158   7.583 -0.1539 -0.1285  0.0569
  883POPC   NC310585   7.052   1.429   5.594 -0.1233  0.2277 -0.0244
  883POPC   PO410586   6.701   1.331   5.456 -0.3237 -0.0695  0.0312
  883POPC   GL110587   6.564   1.132   5.856 -0.1514 -0.0224 -0.0593
  883POPC   GL210588   6.814   0.930   5.876 -0.0775 -0.4086 -0.3296
  883POPC   C1A10589   6.104   1.097   6.018 -0.2405  0.0120  0.0685
  883POPC   D2A10590   5.779   1.408   6.111 -0.0865  0.1536 -0.0156
  883POPC   C3A10591   5.471   1.267   6.423  0.3547  0.3324  0.0983
  883POPC   C4A10592   5.413   0.859   6.625 -0.1687  0.2143  0.1596
  883POPC   C1B10593   6.720   1.170   6.285  0.1415 -0.3075 -0.4023
  883POPC   C2B10594   6.682   1.100   6.747  0.0806 -0.3414 -0.1821
  883POPC   C3B10595   6.904   1.137   7.146 -0.1214 -0.0576 -0.0524
  883POPC   C4B10596   6.940   1.491   7.462  0.1700  0.1926 -0.1481
  884POPC   NC310597   1.438   7.557   5.272  0.2323  0.0490 -0.1885
  884POPC   PO410598   1.736   7.781   5.356  0.0475  0.0856  0.1628
  884POPC   GL110599   1.943   7.982   5.525  0.1814  0.0161  0.2533
  884POPC   GL210600   1.855   8.313   5.490 -0.4353 -0.0019  0.1425
  884POPC   C1A10601   2.400   8.082   5.600 -0.1874  0.2922  0.0773
  884POPC   D2A10602   2.725   8.358   5.762 -0.1119 -0.0209  0.1934
  884POPC   C3A10603   3.065   8.217   6.020 -0.1384  0.0193  0.0234
  884POPC   C4A10604   3.272   7.803   5.946  0.0123  0.3709 -0.3782
  884POPC   C1B10605   1.892   8.219   5.966  0.1668 -0.1053 -0.1284
  884POPC   C2B10606   1.676   7.922   6.234 -0.0708  0.1333  0.1328
  884POPC   C3B10607   1.472   7.983   6.678 -0.0676 -0.1744 -0.0571
  884POPC   C4B10608   1.508   8.242   7.054  0.0868  0.0088 -0.2372
  885POPC   NC310609  15.814   6.443   4.830  0.0939  0.1113  0.2919
  885POPC   PO410610  16.079   6.275   5.039 -0.1602 -0.1016  0.3910
  885POPC   GL110611  16.155   6.344   5.374 -0.0680  0.0083 -0.3175
  885POPC   GL210612  16.374   6.416   5.539  0.0245 -0.1178 -0.2037
  885POPC   C1A10613  15.964   6.044   5.709  0.3733  0.1811 -0.0171
  885POPC   D2A10614  15.677   5.745   5.918 -0.1632  0.1401 -0.3289
  885POPC   C3A10615  15.295   5.796   6.212 -0.1783 -0.2159  0.0146
  885POPC   C4A10616  15.172   5.449   6.543  0.1662 -0.1372 -0.1206
  885POPC   C1B10617  16.341   6.627   5.945 -0.2379  0.0422  0.1574
  885POPC   C2B10618  16.199   6.670   6.391 -0.1951  0.2430  0.3374
  885POPC   C3B10619  16.265   6.839   6.814  0.0691  0.1041 -0.3224
  885POPC   C4B10620  16.308   7.230   7.120  0.2170 -0.0804 -0.2646
  886POPC   NC310621  11.346  14.061   4.813  0.4645 -0.0810  0.3557
  886POPC   PO410622  11.134  14.379   4.788 -0.1298 -0.4420  0.0571
  886POPC   GL110623  11.300  14.736   5.132 -0.2939  0.1629  0.4888
  886POPC   GL210624  11.451  14.963   5.034 -0.0217  0.2425 -0.1248
  886POPC   C1A10625  11.246  14.878   5.582  0.1756  0.3657 -0.1149
  886POPC   D2A10626  11.119  14.641   5.984  0.2267 -0.0490  0.0494
  886POPC   C3A10627  11.001  14.593   6.442 -0.1715  0.3425 -0.2131
  886POPC   C4A10628  11.040  14.359   6.826 -0.0813 -0.2053 -0.1313
  886POPC   C1B10629  11.741  15.212   5.334 -0.0590 -0.0983 -0.0454
  886POPC   C2B10630  11.729  15.241   5.814 -0.1935  0.1762 -0.3257
  886POPC   C3B10631  11.927  15.293   6.282  0.3596  0.0360 -0.1647
  886POPC   C4B10632  12.359  15.155   6.410 -0.2021 -0.0480  0.1491
  887POPC   NC310633   5.763   8.844   5.290 -0.1131 -0.2838  0.1806
  887POPC   PO410634   5.686   8.581   5.606 -0.4757  0.1819  0.4502
  887POPC   GL110635   5.725   8.924   5.955  0.2716  0.0860 -0.3021
  887POPC   GL210636   5.557   9.129   5.869 -0.0938  0.2822  0.1389
  887POPC   C1A10637   5.454   8.802   6.353 -0.1344  0.1714 -0.0160
  887POPC   D2A10638   5.306   8.634   6.755 -0.3569 -0.1537  0.0308
  887POPC   C3A10639   5.120   8.907   7.010  0.2133  0.0327  0.2645
  887POPC   C4A10640   4.896   8.919   7.407 -0.1094 -0.1145  0.1571
  887POPC   C1B10641   5.638   9.230   6.338 -0.1751 -0.0456 -0.2152
  887POPC   C2B10642   5.371   9.559   6.614  0.2884  0.2928 -0.1492
  887POPC   C3B10643   5.191   9.488   7.050 -0.2932  0.1736  0.1121
  887POPC   C4B10644   5.308   9.346   7.458  0.1362 -0.1197  0.2871
  888POPC   NC310645  15.347   9.156   5.337  0.1486 -0.0021  0.0120
  888POPC   PO410646  15.175   8.805   5.387  0.1525 -0.2134 -0.3974
  888POPC   GL110647  15.489   8.799   5.639 -0.4383 -0.1374 -0.2625
  888POPC   GL210648  15.370   9.041   5.815  0.1041 -0.2003 -0.1069
  888POPC   C1A10649  15.625   8.778   6.087 -0.1804 -0.0228 -0.0252
  888POPC   D2A10650  15.509   9.014   6.450 -0.0918  0.4092 -0.0332
  888POPC   C3A10651  15.663   9.089   6.841  0.0722  0.0825 -0.1800
  888POPC   C4A10652  15.493   9.338   7.169  0.0589 -0.0909 -0.0225
  888POPC   C1B10653  15.106   9.024   6.206 -0.1470 -0.0569 -0.0870
  888POPC   C2B10654  15.210   9.390   6.471  0.0785  0.0795 -0.1351
  888POPC   C3B10655  15.279   9.597   6.841  0.1969  0.2848 -0.2208
  888POPC   C4B10656  15.295   9.830   7.199  0.2145  0.1601  0.0354
  889POPC   NC310657  14.150  13.423   4.515 -0.1133 -0.1468  0.0536
  889POPC   PO410658  13.837  13.377   4.297  0.2894 -0.2106  0.0857
  889POPC   GL110659  13.712  13.492   4.618 -0.2537  0.2087 -0.2983
  889POPC   GL210660  13.709  13.783   4.622 -0.0653 -0.2182 -0.2050
  889POPC   C1A10661  13.943  13.590   5.032  0.2223 -0.0020  0.1440
  889POPC   D2A10662  13.966  13.610   5.486 -0.1787  0.0581 -0.2378
  889POPC   C3A10663  14.202  13.913   5.796  0.0612  0.0874 -0.2123
  889POPC   C4A10664  14.263  14.175   6.210  0.1701  0.2093 -0.0884
  889POPC   C1B10665  13.553  13.902   5.028  0.0880 -0.0965 -0.0526
  889POPC   C2B10666  13.246  14.129   5.375 -0.0867 -0.0427  0.2271
  889POPC   C3B10667  13.107  14.383   5.686  0.0252  0.1063  0.1751
  889POPC   C4B10668  13.030  14.733   6.000  0.1279 -0.1944 -0.2081
  890POPC   NC310669   7.407   4.694   6.701 -0.0393  0.0004  0.2263
  890POPC   PO410670   7.361   5.095   6.732  0.0103  0.1860  0.1834
  890POPC   GL110671   7.174   4.909   7.109 -0.4748 -0.0275  0.0308
  890POPC   GL210672   7.435   4.776   7.172  0.0524  0.2210  0.3757
  890POPC   C1A10673   6.824   5.152   7.270  0.1472 -0.2482 -0.5298
  890POPC   D2A10674   6.579   5.504   7.276  0.0208 -0.0582 -0.0792
  890POPC   C3A10675   6.168   5.554   7.551  0.0129  0.0448 -0.0471
  890POPC   C4A10676   5.838   5.795   7.820 -0.3393 -0.0267  0.1631
  890POPC   C1B10677   7.096   4.530   7.403  0.1957 -0.0681  0.1051
  890POPC   C2B10678   7.039   4.405   7.839 -0.0898 -0.0599  0.1414
  890POPC   C3B10679   7.049   4.147   8.259 -0.2073  0.0950 -0.4407
  890POPC   C4B10680   6.676   4.164   8.614 -0.1516  0.0196  0.2607
  891POPC   NC310681   1.162   1.840   4.882  0.0428  0.2982  0.0907
  891POPC   PO410682   0.812   1.821   4.786 -0.0739  0.0396 -0.1427
  891POPC   GL110683   0.838   1.889   5.201  0.2216  0.1515  0.0520
  891POPC   GL210684   0.521   1.815   5.195 -0.0523  0.1392 -0.0717
  891POPC   C1A10685   0.866   1.993   5.642  0.2715  0.0086 -0.1241
  891POPC   D2A10686   0.865   1.863   6.104  0.1677  0.0847  0.0427
  891POPC   C3A10687   1.204   1.745   6.387  0.2160 -0.1966 -0.1290
  891POPC   C4A10688   1.574   1.862   6.708  0.0299  0.2948  0.0616
  891POPC   C1B10689   0.596   1.536   5.578 -0.1381 -0.3162 -0.1266
  891POPC   C2B10690   0.535   1.503   6.047 -0.1856 -0.1491  0.0863
  891POPC   C3B10691   0.432   1.138   6.302 -0.0304  0.1717  0.3392
  891POPC   C4B10692   0.366   0.855   6.662 -0.1529 -0.2769 -0.0907
  892POPC   NC310693  12.193   8.539   6.597 -0.3963  0.2577  0.2005
  892POPC   PO410694  12.028   8.881   6.481  0.1843 -0.0230  0.0226
  892POPC   GL110695  11.911   9.258   6.726  0.1224 -0.0293  0.0395
  892POPC   GL210696  12.033   9.247   6.961  0.0222  0.0225  0.0833
  892POPC   C1A10697  11.809   9.698   6.907 -0.1019 -0.0095 -0.0715
  892POPC   D2A10698  11.952  10.090   7.171 -0.5773  0.0422 -0.1448
  892POPC   C3A10699  12.221  10.493   7.211 -0.0379  0.4085  0.1326
  892POPC   C4A10700  12.302  10.761   7.552  0.1653  0.3881 -0.1562
  892POPC   C1B10701  12.398   9.176   7.218 -0.0532 -0.1197  0.1357
  892POPC   C2B10702  12.686   9.323   7.492 -0.3448 -0.3022 -0.1281
  892POPC   C3B10703  12.756   9.385   7.925  0.2010  0.1027 -0.3375
  892POPC   C4B10704  12.720   9.605   8.357 -0.0158 -0.1015  0.3089
  893POPC   NC310705   7.530  13.005   4.987  0.0220 -0.0944 -0.0351
  893POPC   PO410706   7.160  13.012   4.949  0.0618  0.0690 -0.0704
  893POPC   GL110707   6.893  13.002   5.202 -0.0513 -0.0518 -0.0872
  893POPC   GL210708   6.843  12.729   5.375  0.0173 -0.1474  0.1735
  893POPC   C1A10709   6.777  13.293   5.547  0.3262  0.1004 -0.1536
  893POPC   D2A10710   6.761  13.681   5.729  0.2014 -0.2442 -0.0725
  893POPC   C3A10711   6.491  13.944   5.969  0.0911 -0.0614 -0.0596
  893POPC   C4A10712   6.060  13.971   6.094 -0.1554  0.0021  0.0143
  893POPC   C1B10713   6.901  12.808   5.814 -0.1170 -0.2018 -0.4586
  893POPC   C2B10714   6.891  13.146   6.029  0.0403  0.1202 -0.1364
  893POPC   C3B10715   6.709  13.469   6.229  0.1074  0.1346 -0.0575
  893POPC   C4B10716   6.546  13.803   6.444 -0.0157 -0.0943  0.3773
  894POPC   NC310717   4.570   2.518   4.889 -0.2867 -0.0128  0.2861
  894POPC   PO410718   4.726   2.382   5.267  0.3015  0.1602  0.1005
  894POPC   GL110719   4.538   2.459   5.580 -0.2638 -0.0661 -0.2487
  894POPC   GL210720   4.404   2.158   5.636  0.1368 -0.4466 -0.3400
  894POPC   C1A10721   4.875   2.297   5.885  0.1026  0.0390  0.3717
  894POPC   D2A10722   5.125   2.126   6.170 -0.1078 -0.0894 -0.4470
  894POPC   C3A10723   5.025   2.305   6.547 -0.1830  0.4959  0.1670
  894POPC   C4A10724   5.010   2.469   6.958 -0.3465 -0.1932 -0.1377
  894POPC   C1B10725   4.286   2.050   5.982 -0.1325  0.0359 -0.0058
  894POPC   C2B10726   4.225   1.964   6.417 -0.2273 -0.0098 -0.0927
  894POPC   C3B10727   4.252   1.692   6.825 -0.2223 -0.0330  0.0389
  894POPC   C4B10728   4.242   1.639   7.265 -0.2313  0.2020  0.1168
  895POPC   NC310729   3.268   2.823   5.096 -0.0922 -0.1978  0.2049
  895POPC   PO410730   3.544   3.102   5.160  0.0209 -0.1180 -0.2354
  895POPC   GL110731   3.561   2.678   5.403  0.3621 -0.2753 -0.0110
  895POPC   GL210732   3.789   2.761   5.507  0.1874 -0.1362 -0.2983
  895POPC   C1A10733   3.409   2.377   5.703  0.3839  0.1585  0.1470
  895POPC   D2A10734   3.015   2.337   5.899 -0.1802 -0.0706  0.1051
  895POPC   C3A10735   2.836   2.527   6.316 -0.0217 -0.0127  0.0398
  895POPC   C4A10736   2.621   2.459   6.726 -0.1460 -0.2066 -0.1478
  895POPC   C1B10737   3.635   2.918   5.889 -0.1842 -0.1269 -0.0606
  895POPC   C2B10738   3.460   3.094   6.298 -0.0476 -0.1286  0.0757
  895POPC   C3B10739   3.192   2.821   6.546  0.1513 -0.2343  0.0646
  895POPC   C4B10740   3.146   2.386   6.700 -0.1736  0.0690  0.2373
  896POPC   NC310741   9.379   5.344  11.650  0.2978  0.3903  0.0539
  896POPC   PO410742   9.041   5.446  11.826 -0.3178 -0.0938  0.1417
  896POPC   GL110743   8.890   5.116  11.807  0.4973 -0.3331  0.1478
  896POPC   GL210744   9.038   4.883  11.823  0.2077 -0.1254 -0.0029
  896POPC   C1A10745   8.494   4.777  11.778  0.2235 -0.2462 -0.3023
  896POPC   D2A10746   8.381   4.371  11.945  0.0421 -0.1772 -0.0898
  896POPC   C3A10747   8.019   4.132  11.826  0.2310 -0.2479  0.1700
  896POPC   C4A10748   7.640   3.900  11.728 -0.3289  0.0139 -0.2131
  896POPC   C1B10749   8.893   4.512  12.085 -0.1288  0.1483  0.2750
  896POPC   C2B10750   8.984   4.198  12.388 -0.1422 -0.1297 -0.1628
  896POPC   C3B10751   9.102   3.729  12.331  0.1301 -0.1925 -0.0579
  896POPC   C4B10752   8.663   3.513  12.414 -0.1195  0.0043 -0.0521
  897POPC   NC310753   0.204   3.097  15.469 -0.1494  0.0985  0.1797
  897POPC   PO410754  -0.128   2.900  15.489 -0.1673  0.0859 -0.0959
  897POPC   GL110755  -0.196   3.121  15.722 -0.1763 -0.0622  0.0406
  897POPC   GL210756  -0.512   3.154  15.736 -0.1079  0.2480  0.0212
  897POPC   C1A10757  -0.180   3.241  16.139 -0.0895  0.0645 -0.2897
  897POPC   D2A10758  -0.208   3.232  16.548 -0.1211  0.0185  0.3060
  897POPC   C3A10759  -0.604   3.446  16.766  0.0479 -0.1977  0.0144
  897POPC   C4A10760  -0.886   3.736  16.679 -0.0599  0.1472 -0.0818
  897POPC   C1B10761  -0.711   3.121  16.147 -0.1147 -0.3813  0.2678
  897POPC   C2B10762  -1.013   3.159  16.543 -0.1987  0.2791 -0.2033
  897POPC   C3B10763  -1.347   3.433  16.715  0.1601 -0.0923  0.0087
  897POPC   C4B10764  -1.685   3.763  16.845  0.5566  0.3119  0.0064
  898POPC   NC310765   8.001  17.058  14.287  0.1716  0.0559 -0.0241
  898POPC   PO410766   7.806  17.361  14.095 -0.0394 -0.0466 -0.1584
  898POPC   GL110767   8.103  17.572  14.448  0.0896  0.2104  0.2512
  898POPC   GL210768   8.020  17.467  14.668  0.1439  0.0476  0.0409
  898POPC   C1A10769   8.462  17.770  14.719  0.0460 -0.0554 -0.0487
  898POPC   D2A10770   8.700  17.998  15.012  0.3221  0.2467  0.1625
  898POPC   C3A10771   8.643  18.391  14.932  0.0320 -0.1577 -0.0345
  898POPC   C4A10772   8.505  18.805  15.111 -0.2133  0.1752 -0.1514
  898POPC   C1B10773   7.968  17.957  14.788  0.0085 -0.2358 -0.2182
  898POPC   C2B10774   8.126  18.394  14.643  0.1741  0.0252  0.0509
  898POPC   C3B10775   8.146  18.813  14.529  0.1079 -0.2743 -0.0864
  898POPC   C4B10776   8.275  19.173  14.786 -0.1723 -0.5102  0.3514
  899POPC   NC310777   4.376   2.348  14.879 -0.0087 -0.0579  0.1577
  899POPC   PO410778   4.241   2.350  15.233  0.2192  0.0157  0.2305
  899POPC   GL110779   4.316   2.216  15.599 -0.1054 -0.1582 -0.0959
  899POPC   GL210780   4.567   2.384  15.716  0.1469  0.0414 -0.1672
  899POPC   C1A10781   4.124   2.216  16.008  0.1289  0.1414  0.2200
  899POPC   D2A10782   4.287   1.950  16.367  0.1360  0.1285 -0.2140
  899POPC   C3A10783   4.592   1.948  16.748  0.0708  0.0882 -0.1113
  899POPC   C4A10784   4.712   1.762  17.164  0.3517  0.0949 -0.3618
  899POPC   C1B10785   4.520   2.374  16.141 -0.2876 -0.1067  0.0421
  899POPC   C2B10786   4.591   2.415  16.571 -0.0719  0.2254 -0.0232
  899POPC   C3B10787   4.593   2.477  17.028  0.1212  0.1885 -0.0044
  899POPC   C4B10788   4.829   2.305  17.363  0.0916 -0.1702 -0.2303
  900POPC   NC310789  16.887  14.247  16.289  0.0815 -0.1794  0.0366
  900POPC   PO410790  16.669  14.055  16.556  0.0262 -0.1260  0.2292
  900POPC   GL110791  16.709  14.074  16.987 -0.3567  0.4264  0.2679
  900POPC   GL210792  16.904  13.838  16.987 -0.3111 -0.0388  0.0069
  900POPC   C1A10793  16.508  14.001  17.404 -0.0639  0.0751 -0.2846
  900POPC   D2A10794  16.392  14.344  17.668  0.2444  0.5372 -0.1345
  900POPC   C3A10795  16.551  14.396  18.104 -0.0844  0.1534  0.2337
  900POPC   C4A10796  16.568  14.521  18.545 -0.0090 -0.2024  0.2717
  900POPC   C1B10797  17.072  13.760  17.351  0.0627 -0.1149 -0.0717
  900POPC   C2B10798  17.110  13.545  17.779 -0.0393  0.0966  0.0954
  900POPC   C3B10799  17.184  13.184  18.062  0.0219 -0.1123  0.1715
  900POPC   C4B10800  17.158  12.842  18.374  0.2472  0.2169  0.0372
  901POPC   NC310801  14.159  12.622  16.229  0.0630 -0.1447 -0.2894
  901POPC   PO410802  14.411  12.885  16.394  0.1529  0.1099 -0.0696
  901POPC   GL110803  14.330  12.934  16.822  0.1326  0.0682  0.0392
  901POPC   GL210804  14.193  13.164  16.960 -0.1490  0.2867 -0.0311
  901POPC   C1A10805  14.315  12.779  17.242  0.1842  0.2349  0.0868
  901POPC   D2A10806  14.135  12.858  17.583 -0.2565 -0.1207  0.0601
  901POPC   C3A10807  14.057  12.924  17.966 -0.0191 -0.0577  0.1407
  901POPC   C4A10808  13.818  12.728  18.334  0.3405  0.1405 -0.3760
  901POPC   C1B10809  14.067  13.389  17.299  0.0167 -0.1737  0.1267
  901POPC   C2B10810  13.905  13.344  17.732 -0.0957 -0.0153  0.2352
  901POPC   C3B10811  13.721  13.214  18.146  0.0591  0.1071 -0.1803
  901POPC   C4B10812  13.600  13.156  18.579  0.0157  0.3034 -0.1730
  902POPC   NC310813   2.181   2.885  15.711  0.2616  0.0962 -0.0438
  902POPC   PO410814   2.518   2.705  15.756  0.2209 -0.1666 -0.1385
  902POPC   GL110815   2.341   2.744  16.111 -0.4439  0.3024  0.1412
  902POPC   GL210816   2.566   2.736  16.378  0.0832 -0.2147 -0.0524
  902POPC   C1A10817   2.049   2.665  16.441  0.3379  0.0758  0.1633
  902POPC   D2A10818   2.241   2.479  16.822 -0.0985  0.2090 -0.0411
  902POPC   C3A10819   2.226   2.462  17.292 -0.1916  0.0124 -0.1058
  902POPC   C4A10820   2.317   2.479  17.777 -0.0915  0.1063 -0.4316
  902POPC   C1B10821   2.763   2.643  16.796 -0.3673 -0.2421 -0.1553
  902POPC   C2B10822   2.623   2.723  17.215  0.0402  0.0648  0.2719
  902POPC   C3B10823   2.776   2.581  17.613 -0.0235  0.0595  0.0268
  902POPC   C4B10824   2.737   2.609  18.064 -0.1154 -0.0223  0.1650
  903POPC   NC310825   6.582  11.512   9.924 -0.0701  0.0417  0.1381
  903POPC   PO410826   6.597  11.895   9.713 -0.2004  0.0748 -0.0179
  903POPC   GL110827   6.526  11.644   9.353  0.0595  0.3024  0.1098
  903POPC   GL210828   6.706  11.464   9.425  0.0412  0.0656  0.1064
  903POPC   C1A10829   6.649  11.866   8.997 -0.0175  0.1173  0.1455
  903POPC   D2A10830   6.899  11.809   8.594  0.1042 -0.0146  0.0904
  903POPC   C3A10831   7.024  11.503   8.239 -0.2615 -0.1980 -0.1563
  903POPC   C4A10832   7.235  11.294   7.851 -0.1137 -0.0796  0.2973
  903POPC   C1B10833   6.821  11.405   9.001 -0.1002  0.2314 -0.0587
  903POPC   C2B10834   6.777  11.272   8.569  0.1275  0.1628  0.2548
  903POPC   C3B10835   6.837  11.031   8.189 -0.2517  0.1345 -0.3335
  903POPC   C4B10836   6.982  10.666   8.000 -0.0524  0.2102  0.3056
  904POPC   NC310837   1.716   2.118  15.823  0.0946 -0.3799  0.4068
  904POPC   PO410838   1.965   2.411  15.659 -0.0582  0.1237  0.0736
  904POPC   GL110839   2.233   2.114  15.885 -0.0292 -0.0343  0.2852
  904POPC   GL210840   2.178   2.305  16.092 -0.3254 -0.3339  0.0809
  904POPC   C1A10841   2.593   2.039  16.182 -0.1758  0.2537 -0.1201
  904POPC   D2A10842   2.618   1.920  16.616  0.2690 -0.0704 -0.0896
  904POPC   C3A10843   2.601   2.129  17.036  0.2091  0.0420 -0.1905
  904POPC   C4A10844   2.616   2.144  17.451  0.1129  0.1300 -0.0001
  904POPC   C1B10845   2.183   2.059  16.451  0.1182  0.3017 -0.0338
  904POPC   C2B10846   2.094   1.871  16.867  0.0459 -0.1010 -0.2140
  904POPC   C3B10847   2.163   1.790  17.344 -0.0034  0.0676  0.3516
  904POPC   C4B10848   2.207   1.761  17.747 -0.1009 -0.1965 -0.0517
  905POPC   NC310849  12.728   1.800  11.056  0.0416 -0.2251  0.1126
  905POPC   PO410850  12.535   1.492  10.900  0.0844 -0.0405  0.0899
  905POPC   GL110851  12.319   1.754  10.797 -0.4367  0.1810  0.1497
  905POPC   GL210852  12.153   1.756  10.532 -0.0211  0.0592 -0.0285
  905POPC   C1A10853  12.091   2.163  10.858  0.0290 -0.1097  0.1931
  905POPC   D2A10854  12.087   2.631  10.910  0.2617 -0.0885  0.2410
  905POPC   C3A10855  12.248   2.896  10.561  0.0819  0.2008 -0.1616
  905POPC   C4A10856  12.141   3.309  10.390  0.1279 -0.1297 -0.1301
  905POPC   C1B10857  11.819   2.092  10.477 -0.0505 -0.1708 -0.0157
  905POPC   C2B10858  11.609   2.468  10.510 -0.0334  0.0728 -0.0964
  905POPC   C3B10859  11.634   2.978  10.423  0.1429 -0.0557 -0.0272
  905POPC   C4B10860  11.566   3.366  10.230 -0.0749 -0.0260  0.0458
  906POPC   NC310861   1.660   0.945  15.775  0.2132 -0.0094  0.1531
  906POPC   PO410862   1.430   0.622  15.774 -0.3083  0.1090  0.0515
  906POPC   GL110863   1.403   0.766  16.181  0.1100  0.2813 -0.1599
  906POPC   GL210864   1.551   0.925  16.353 -0.0031  0.0302 -0.0251
  906POPC   C1A10865   1.161   0.550  16.523 -0.0963 -0.1086 -0.1023
  906POPC   D2A10866   0.789   0.435  16.802 -0.3843 -0.0574 -0.1459
  906POPC   C3A10867   0.899   0.433  17.212 -0.1665  0.0115 -0.0844
  906POPC   C4A10868   1.111   0.380  17.673 -0.1528 -0.0398 -0.2248
  906POPC   C1B10869   1.619   0.672  16.766 -0.2426  0.0264 -0.1021
  906POPC   C2B10870   1.331   0.699  17.122  0.0097 -0.1531 -0.0069
  906POPC   C3B10871   1.226   0.854  17.514  0.2317 -0.3211 -0.1276
  906POPC   C4B10872   1.388   0.676  17.927 -0.1553 -0.3100  0.0169
  907POPC   NC310873  10.668  12.709  16.349  0.0459  0.2643  0.1515
  907POPC   PO410874  10.326  12.583  16.199 -0.1314 -0.2583 -0.1029
  907POPC   GL110875  10.349  12.592  16.648 -0.1341  0.2228 -0.1801
  907POPC   GL210876  10.400  12.325  16.706 -0.3244 -0.1500  0.0213
  907POPC   C1A10877  10.362  12.590  17.110  0.2784  0.3163 -0.2031
  907POPC   D2A10878  10.456  12.309  17.537  0.0915 -0.1067  0.2448
  907POPC   C3A10879  10.675  12.551  17.846  0.2810 -0.1029  0.2395
  907POPC   C4A10880  10.699  12.607  18.287 -0.2516 -0.1122  0.0566
  907POPC   C1B10881  10.648  12.110  17.078  0.1039 -0.0700 -0.2323
  907POPC   C2B10882  10.825  12.047  17.513 -0.1137 -0.2752 -0.1873
  907POPC   C3B10883  10.973  11.938  17.948  0.1255 -0.3968 -0.2426
  907POPC   C4B10884  10.802  12.074  18.371 -0.3436  0.0549 -0.0797
  908POPC   NC310885  13.883   8.685  15.989 -0.0307 -0.0989 -0.0541
  908POPC   PO410886  13.733   8.378  15.851 -0.2263 -0.0160  0.1474
  908POPC   GL110887  13.701   8.389  16.282  0.1473  0.0491  0.2638
  908POPC   GL210888  13.919   8.403  16.451 -0.0104  0.2449  0.0749
  908POPC   C1A10889  13.553   8.144  16.643  0.1372 -0.0908 -0.1269
  908POPC   D2A10890  13.339   8.157  17.081  0.0562  0.2887 -0.0644
  908POPC   C3A10891  13.453   7.903  17.440  0.0086 -0.0353 -0.1592
  908POPC   C4A10892  13.591   7.587  17.722 -0.4715 -0.1304  0.0069
  908POPC   C1B10893  13.907   8.444  16.864  0.0671  0.1254 -0.1919
  908POPC   C2B10894  13.847   8.193  17.288 -0.1074 -0.0459 -0.2457
  908POPC   C3B10895  13.979   7.788  17.441 -0.0625  0.1082 -0.0476
  908POPC   C4B10896  14.157   7.535  17.809 -0.1861 -0.0528 -0.4397
  909POPC   NC310897   4.807  13.413  16.459  0.0050 -0.1035 -0.1989
  909POPC   PO410898   4.914  13.088  16.592 -0.0924 -0.0299  0.0081
  909POPC   GL110899   5.265  13.100  16.878 -0.2748  0.1437  0.1568
  909POPC   GL210900   5.133  12.956  17.128  0.2066 -0.3417 -0.1114
  909POPC   C1A10901   5.493  13.211  17.318 -0.1134  0.0709 -0.1180
  909POPC   D2A10902   5.857  13.290  17.604 -0.0562 -0.3443  0.1976
  909POPC   C3A10903   6.229  12.991  17.646 -0.1424  0.1188  0.0366
  909POPC   C4A10904   6.662  12.866  17.764  0.1936 -0.0582  0.0257
  909POPC   C1B10905   5.251  12.881  17.612  0.1912  0.0671  0.2243
  909POPC   C2B10906   5.412  12.987  17.998 -0.0307  0.3502 -0.0127
  909POPC   C3B10907   5.476  13.242  18.380 -0.1511  0.1508  0.0742
  909POPC   C4B10908   5.234  13.480  18.740 -0.0996 -0.1553 -0.1982
  910POPC   NC310909  12.648  11.826  16.636  0.0398  0.2403  0.0680
  910POPC   PO410910  12.857  12.091  16.608  0.1414 -0.4783  0.0459
  910POPC   GL110911  12.663  12.309  16.936 -0.0683  0.0365 -0.4659
  910POPC   GL210912  12.410  12.171  16.859  0.2332  0.2657 -0.1644
  910POPC   C1A10913  12.358  12.458  17.276 -0.0866 -0.2212  0.1395
  910POPC   D2A10914  12.422  12.221  17.688 -0.1919  0.1398  0.1576
  910POPC   C3A10915  12.086  12.153  17.981 -0.2169  0.1844  0.1658
  910POPC   C4A10916  11.828  11.794  18.130 -0.1198  0.0560  0.1112
  910POPC   C1B10917  12.424  11.844  17.241 -0.1893  0.1019  0.1215
  910POPC   C2B10918  12.237  11.618  17.614  0.0117 -0.2375  0.0650
  910POPC   C3B10919  12.224  11.416  18.022  0.2573 -0.1333 -0.0979
  910POPC   C4B10920  12.440  11.187  18.319 -0.0130 -0.0479 -0.1487
  911POPC   NC310921  11.261  11.368  15.190 -0.1626  0.0234  0.1477
  911POPC   PO410922  10.987  11.380  15.485 -0.0026 -0.2096 -0.0754
  911POPC   GL110923  10.744  11.072  15.716 -0.2591  0.2063  0.0021
  911POPC   GL210924  10.525  10.924  15.723 -0.1142  0.0271 -0.0819
  911POPC   C1A10925  10.807  10.953  16.155 -0.1222 -0.1646  0.0554
  911POPC   D2A10926  10.824  10.667  16.489 -0.0667 -0.1406  0.3888
  911POPC   C3A10927  11.184  10.368  16.669 -0.0627  0.1576  0.3859
  911POPC   C4A10928  11.291  10.056  16.975 -0.2259 -0.0058 -0.1082
  911POPC   C1B10929  10.391  10.501  15.883 -0.0273 -0.0224 -0.3714
  911POPC   C2B10930  10.248  10.237  16.249 -0.1654  0.2041 -0.2575
  911POPC   C3B10931  10.179   9.754  16.278  0.0489 -0.4695  0.3002
  911POPC   C4B10932  10.070   9.377  16.072  0.1056 -0.0185  0.1384
  912POPC   NC310933  14.258   6.645  14.367 -0.1163 -0.1428  0.3645
  912POPC   PO410934  14.058   6.354  14.523 -0.1498 -0.2744  0.2308
  912POPC   GL110935  13.902   6.138  14.793 -0.1269 -0.0082 -0.0392
  912POPC   GL210936  13.912   5.871  14.743 -0.1356 -0.0373 -0.0099
  912POPC   C1A10937  13.466   6.191  14.984  0.1479 -0.0208  0.0262
  912POPC   D2A10938  13.080   6.472  14.898 -0.0328  0.0157 -0.0423
  912POPC   C3A10939  12.797   6.595  15.330  0.0613 -0.0641 -0.1419
  912POPC   C4A10940  12.589   6.841  15.723 -0.3833  0.0201  0.0246
  912POPC   C1B10941  13.611   5.625  14.951 -0.2760 -0.1884 -0.2134
  912POPC   C2B10942  13.454   5.471  15.381  0.0086  0.2842 -0.0845
  912POPC   C3B10943  13.303   5.263  15.769  0.0768 -0.2302 -0.1311
  912POPC   C4B10944  13.259   4.949  16.070 -0.2448  0.3535 -0.3690
  913POPC   NC310945   2.087  15.684  16.247  0.1187  0.1117 -0.2800
  913POPC   PO410946   1.699  15.559  16.190  0.1493 -0.1521  0.0669
  913POPC   GL110947   1.560  15.733  16.499 -0.1729  0.0636 -0.3893
  913POPC   GL210948   1.266  15.615  16.586  0.1995 -0.2300 -0.1808
  913POPC   C1A10949   1.674  15.980  16.860 -0.3345  0.1248  0.1677
  913POPC   D2A10950   1.869  16.248  17.201  0.0439 -0.0423 -0.1841
  913POPC   C3A10951   1.980  16.182  17.618 -0.0960  0.3541  0.0761
  913POPC   C4A10952   2.006  16.155  18.072 -0.2313  0.1697  0.1883
  913POPC   C1B10953   1.163  15.827  16.992 -0.1939  0.1549  0.0650
  913POPC   C2B10954   1.270  16.096  17.322  0.0839  0.1890 -0.3037
  913POPC   C3B10955   1.070  16.338  17.690 -0.0684 -0.2657  0.0275
  913POPC   C4B10956   1.249  16.667  18.057  0.0163  0.0011 -0.0063
  914POPC   NC310957  11.623   0.849  10.413  0.4913 -0.1159  0.2179
  914POPC   PO410958  11.308   0.683  10.169  0.0176  0.2414  0.0407
  914POPC   GL110959  11.219   0.971   9.910  0.2495 -0.2487 -0.2549
  914POPC   GL210960  11.291   1.209  10.166  0.2012 -0.2362 -0.0168
  914POPC   C1A10961  10.915   1.291   9.669 -0.3001 -0.2425 -0.2500
  914POPC   D2A10962  10.690   1.564   9.386 -0.3430  0.2431  0.1907
  914POPC   C3A10963  10.929   1.927   9.155  0.4245  0.0322  0.1205
  914POPC   C4A10964  11.056   2.107   8.757  0.4365  0.0167 -0.1418
  914POPC   C1B10965  11.323   1.587   9.866 -0.1435 -0.3572  0.0431
  914POPC   C2B10966  11.281   1.975   9.572 -0.1186 -0.1759  0.0322
  914POPC   C3B10967  11.107   2.374   9.591  0.2781 -0.0345 -0.0578
  914POPC   C4B10968  10.896   2.776   9.411 -0.2444  0.2820  0.1151
  915POPC   NC310969  31.366  12.036  16.491  0.1042 -0.1464  0.1280
  915POPC   PO410970  31.343  12.445  16.502  0.0684  0.0408  0.2295
  915POPC   GL110971  31.353  12.350  16.928  0.1000  0.0811 -0.1681
  915POPC   GL210972  31.244  12.544  17.090 -0.2072  0.2050 -0.1701
  915POPC   C1A10973  31.161  12.005  17.174  0.0251 -0.2058 -0.1258
  915POPC   D2A10974  31.014  11.617  17.316  0.0201  0.0633  0.0418
  915POPC   C3A10975  31.137  11.365  17.729  0.1758  0.3807  0.0338
  915POPC   C4A10976  31.411  11.509  18.120 -0.0667 -0.3054  0.3067
  915POPC   C1B10977  31.234  12.407  17.500 -0.1763  0.2490  0.0652
  915POPC   C2B10978  31.201  12.456  17.982  0.0364  0.1535 -0.1674
  915POPC   C3B10979  31.214  12.680  18.392 -0.1906  0.2328 -0.4580
  915POPC   C4B10980  31.370  12.802  18.834  0.1150 -0.0461 -0.1297
  916POPC   NC310981   9.454  15.802  15.237  0.0507 -0.0911  0.3283
  916POPC   PO410982   9.794  15.867  15.044  0.0479  0.0290  0.4201
  916POPC   GL110983   9.777  16.128  15.406 -0.1055  0.0571  0.0452
  916POPC   GL210984   9.547  16.122  15.635  0.0451 -0.2915  0.0776
  916POPC   C1A10985  10.004  16.272  15.795  0.1537  0.0700  0.2180
  916POPC   D2A10986  10.022  16.594  16.125  0.1399  0.0078 -0.0826
  916POPC   C3A10987  10.085  16.985  16.325  0.2502  0.4541 -0.3306
  916POPC   C4A10988  10.350  17.033  16.646 -0.2137  0.0867  0.2136
  916POPC   C1B10989   9.466  16.391  16.015  0.1273 -0.1214  0.0558
  916POPC   C2B10990   9.176  16.611  16.346 -0.2590  0.2466 -0.0963
  916POPC   C3B10991   8.824  16.888  16.476  0.2081 -0.0249  0.2449
  916POPC   C4B10992   8.784  17.264  16.664  0.2017  0.0782  0.0536
  917POPC   NC310993  14.121   5.284  14.230  0.0021 -0.1992  0.1895
  917POPC   PO410994  14.362   5.164  14.544 -0.1111 -0.0407 -0.3934
  917POPC   GL110995  13.958   5.301  14.669 -0.1338  0.0518 -0.0121
  917POPC   GL210996  13.765   5.434  14.493 -0.0027  0.0700 -0.1451
  917POPC   C1A10997  13.638   5.182  15.019 -0.1926  0.2708 -0.0312
  917POPC   D2A10998  13.259   5.020  15.211  0.0254 -0.0746 -0.0686
  917POPC   C3A10999  12.990   5.363  15.211  0.2147 -0.0354 -0.0026
  917POPC   C4A11000  12.681   5.777  15.334  0.0030 -0.1592  0.0062
  917POPC   C1B11001  13.277   5.361  14.652 -0.0694 -0.3083  0.0030
  917POPC   C2B11002  12.871   5.129  14.784  0.1586 -0.1860  0.2822
  917POPC   C3B11003  12.747   4.932  15.200  0.1646 -0.0616  0.2475
  917POPC   C4B11004  12.573   5.301  15.486 -0.1860  0.1561 -0.3778
  918POPC   NC311005  14.080   6.992  11.474  0.1612 -0.0757 -0.3023
  918POPC   PO411006  13.909   6.681  11.273  0.2327  0.1333  0.0197
  918POPC   GL111007  13.760   6.365  11.543  0.0558 -0.0089  0.3778
  918POPC   GL211008  13.724   6.180  11.326  0.2001  0.1789  0.0838
  918POPC   C1A11009  13.313   6.204  11.668  0.1394  0.0034 -0.1486
  918POPC   D2A11010  12.940   5.989  11.641  0.4340  0.3033  0.1339
  918POPC   C3A11011  12.460   5.997  11.728 -0.3059  0.2579  0.2905
  918POPC   C4A11012  12.112   6.277  11.903 -0.1990 -0.2682 -0.3005
  918POPC   C1B11013  13.486   6.285  10.955  0.0939 -0.0928  0.0465
  918POPC   C2B11014  13.039   6.476  10.852 -0.1004 -0.4899 -0.0938
  918POPC   C3B11015  12.661   6.618  10.639  0.1977  0.1304 -0.1859
  918POPC   C4B11016  12.333   6.855  10.449  0.2985 -0.0976 -0.1981
  919POPC   NC311017  15.462  32.457  16.390  0.1615  0.3682 -0.1020
  919POPC   PO411018  15.259  32.707  16.179  0.4118  0.0422 -0.0043
  919POPC   GL111019  15.264  32.869  16.560  0.1406 -0.1642 -0.2205
  919POPC   GL211020  15.028  32.615  16.644 -0.0269  0.1671 -0.0022
  919POPC   C1A11021  15.107  33.014  16.966 -0.0267  0.2861 -0.0322
  919POPC   D2A11022  14.819  32.950  17.295 -0.0282  0.0823  0.0677
  919POPC   C3A11023  14.932  32.830  17.732  0.3479 -0.1227 -0.2370
  919POPC   C4A11024  15.245  32.797  18.150 -0.2028 -0.4628 -0.0065
  919POPC   C1B11025  15.024  32.543  17.110 -0.0637 -0.1909  0.1848
  919POPC   C2B11026  15.178  32.308  17.543  0.1653 -0.1243 -0.0906
  919POPC   C3B11027  15.287  32.279  17.977 -0.1988 -0.1190 -0.0012
  919POPC   C4B11028  15.082  32.362  18.401  0.1615  0.2256  0.0078
  920POPC   NC311029   3.235  12.286  16.705  0.0560 -0.1265 -0.0061
  920POPC   PO411030   2.954  12.061  16.526 -0.2379  0.0731  0.0441
  920POPC   GL111031   2.747  12.063  16.859  0.2439  0.1665  0.1029
  920POPC   GL211032   2.837  12.063  17.095 -0.0153  0.0107  0.2217
  920POPC   C1A11033   2.361  11.862  17.110 -0.1588 -0.1068  0.1383
  920POPC   D2A11034   2.305  11.955  17.572  0.1289 -0.0822  0.3503
  920POPC   C3A11035   2.492  12.079  17.972 -0.0928 -0.3839 -0.2652
  920POPC   C4A11036   2.606  11.816  18.321  0.5653 -0.1160  0.0835
  920POPC   C1B11037   2.741  11.843  17.477 -0.4156  0.0664 -0.0596
  920POPC   C2B11038   2.826  11.639  17.898  0.0770  0.2417  0.2876
  920POPC   C3B11039   3.104  11.817  18.195 -0.0427  0.2569 -0.1142
  920POPC   C4B11040   3.189  11.751  18.677  0.1826 -0.1073  0.1043
  921POPC   NC311041   3.552   2.456  15.176 -0.2672 -0.1536 -0.1516
  921POPC   PO411042   3.861   2.693  15.235 -0.0989  0.1313 -0.1359
  921POPC   GL111043   4.203   2.649  15.549 -0.0603 -0.0787 -0.1290
  921POPC   GL211044   3.957   2.582  15.723 -0.1739  0.2558  0.1170
  921POPC   C1A11045   4.333   2.770  15.970  0.4324 -0.2503 -0.2533
  921POPC   D2A11046   4.655   2.919  16.333  0.0481  0.3392 -0.1417
  921POPC   C3A11047   4.695   3.403  16.331  0.0911  0.1392 -0.1770
  921POPC   C4A11048   4.504   3.746  16.610 -0.2622  0.1288 -0.2780
  921POPC   C1B11049   3.724   2.588  16.129 -0.1387 -0.1509 -0.3597
  921POPC   C2B11050   3.718   2.681  16.583  0.1643  0.0800 -0.0734
  921POPC   C3B11051   3.932   2.892  16.903  0.1122 -0.0563 -0.2393
  921POPC   C4B11052   4.297   2.930  17.231 -0.2130 -0.0542  0.1873
  922POPC   NC311053  12.460  12.660  16.784 -0.3251 -0.1479 -0.0988
  922POPC   PO411054  12.523  12.987  16.537 -0.3045 -0.0014  0.0706
  922POPC   GL111055  12.488  13.192  16.933  0.0480  0.3895  0.0482
  922POPC   GL211056  12.297  13.128  17.220  0.0174  0.2330  0.1595
  922POPC   C1A11057  12.663  13.609  17.041  0.2933 -0.0325  0.3305
  922POPC   D2A11058  12.915  14.043  16.993  0.1045  0.3351  0.2488
  922POPC   C3A11059  13.349  14.003  16.842 -0.0050 -0.1585  0.0286
  922POPC   C4A11060  13.748  13.785  16.915 -0.0509  0.1043  0.3624
  922POPC   C1B11061  12.262  13.114  17.704 -0.0340  0.2273 -0.0999
  922POPC   C2B11062  11.981  13.092  18.064  0.1067  0.0538 -0.0010
  922POPC   C3B11063  11.850  12.789  18.409 -0.3227  0.0956 -0.0962
  922POPC   C4B11064  11.579  12.694  18.747 -0.0759  0.2320 -0.2357
  923POPC   NC311065   9.300  10.642  12.504  0.1611 -0.2640 -0.1147
  923POPC   PO411066   9.002  10.736  12.773  0.3747  0.1904  0.1365
  923POPC   GL111067   8.832  10.373  12.669 -0.2830  0.0226  0.2140
  923POPC   GL211068   9.078  10.177  12.572  0.2073  0.3694 -0.4830
  923POPC   C1A11069   8.588  10.058  12.491 -0.1292 -0.0120 -0.0564
  923POPC   D2A11070   8.672   9.695  12.208 -0.3982 -0.1243  0.1484
  923POPC   C3A11071   8.435   9.331  12.191 -0.1027 -0.0126 -0.0327
  923POPC   C4A11072   8.484   8.885  12.161 -0.0194 -0.2556  0.0524
  923POPC   C1B11073   9.170   9.684  12.621 -0.0136 -0.0422  0.2674
  923POPC   C2B11074   9.257   9.409  12.286  0.1727  0.0036  0.1418
  923POPC   C3B11075   9.008   9.040  12.137  0.2393 -0.3442 -0.0753
  923POPC   C4B11076   8.887   8.597  11.887  0.0524 -0.1411  0.1231
  924POPC   NC311077   0.565  10.017  15.929  0.3225 -0.4270  0.0761
  924POPC   PO411078   0.559   9.615  15.924 -0.1466  0.0335 -0.0114
  924POPC   GL111079   0.418   9.724  16.285 -0.1513  0.0571 -0.1728
  924POPC   GL211080   0.708   9.801  16.397  0.0027 -0.1621  0.1551
  924POPC   C1A11081   0.395   9.561  16.702  0.3650  0.0469 -0.1130
  924POPC   D2A11082   0.377   9.440  17.136  0.0003  0.0289  0.0857
  924POPC   C3A11083   0.441   9.117  17.371  0.0474 -0.2151  0.0895
  924POPC   C4A11084   0.711   8.936  17.677  0.0788  0.0771 -0.2735
  924POPC   C1B11085   1.115   9.593  16.524  0.3393  0.1431 -0.0243
  924POPC   C2B11086   1.386   9.522  16.960  0.0302  0.0118 -0.0097
  924POPC   C3B11087   1.448   9.418  17.315 -0.1645  0.2025  0.2250
  924POPC   C4B11088   1.439   9.457  17.781 -0.1056  0.2453  0.2223
  925POPC   NC311089  10.655  10.812  12.726  0.1445  0.1074  0.0415
  925POPC   PO411090  10.921  10.935  12.513  0.2919 -0.4756  0.1069
  925POPC   GL111091  10.906  10.557  12.427 -0.2244 -0.4944  0.2160
  925POPC   GL211092  10.692  10.506  12.277  0.1771  0.0307  0.0155
  925POPC   C1A11093  10.678  10.205  12.626  0.0696 -0.1933 -0.2402
  925POPC   D2A11094  10.300   9.948  12.762 -0.4272 -0.0286  0.2297
  925POPC   C3A11095  10.141   9.481  12.759 -0.0076 -0.1123  0.1353
  925POPC   C4A11096   9.855   9.163  12.526 -0.2129  0.0920  0.1753
  925POPC   C1B11097  10.647  10.051  12.113 -0.0614  0.0519  0.0817
  925POPC   C2B11098  10.606   9.659  11.834  0.1012 -0.0205 -0.1143
  925POPC   C3B11099  10.312   9.288  11.728 -0.0270  0.0178 -0.2494
  925POPC   C4B11100  10.015   8.914  11.766 -0.0342 -0.1203 -0.0714
  926POPC   NC311101   4.339   8.750  14.952  0.3711  0.5018  0.0953
  926POPC   PO411102   4.372   8.448  14.710 -0.0275  0.2216  0.2112
  926POPC   GL111103   4.512   8.373  15.081 -0.1891  0.0638 -0.0291
  926POPC   GL211104   4.780   8.274  15.010  0.0229  0.0459  0.3006
  926POPC   C1A11105   4.688   8.425  15.533 -0.1418  0.0714  0.0637
  926POPC   D2A11106   5.066   8.381  15.874  0.3067 -0.2246  0.1491
  926POPC   C3A11107   5.132   8.137  16.262  0.0880 -0.1042  0.1567
  926POPC   C4A11108   5.239   8.094  16.720  0.1996 -0.0472 -0.2184
  926POPC   C1B11109   5.078   8.156  15.367 -0.1814  0.0959 -0.1604
  926POPC   C2B11110   5.493   8.098  15.673  0.1083  0.0099  0.1641
  926POPC   C3B11111   5.750   8.182  15.976  0.1070 -0.2992 -0.1677
  926POPC   C4B11112   5.998   7.950  16.281  0.1366 -0.0198 -0.0195
  927POPC   NC311113   3.153   9.349  15.860 -0.0067 -0.0838 -0.1895
  927POPC   PO411114   3.010   9.332  16.208  0.2329  0.3842 -0.3197
  927POPC   GL111115   3.009   9.342  16.726 -0.5645 -0.1482  0.2138
  927POPC   GL211116   2.955   9.073  16.825 -0.2404 -0.3150  0.0414
  927POPC   C1A11117   2.676   9.468  16.972 -0.1844 -0.0585 -0.0089
  927POPC   D2A11118   2.312   9.287  16.961 -0.1417  0.0932  0.0928
  927POPC   C3A11119   2.341   9.203  17.385  0.1433  0.0402 -0.3893
  927POPC   C4A11120   2.404   9.090  17.829  0.0170  0.3808 -0.2066
  927POPC   C1B11121   3.294   9.014  17.060  0.1372  0.4157 -0.3677
  927POPC   C2B11122   3.713   8.907  17.311 -0.2291  0.0295 -0.1099
  927POPC   C3B11123   3.806   8.631  17.661 -0.1862 -0.0612 -0.2383
  927POPC   C4B11124   3.523   8.308  17.854 -0.1089 -0.2109  0.4389
  928POPC   NC311125  14.818  14.626  16.084 -0.0346  0.0058 -0.0473
  928POPC   PO411126  14.516  14.843  16.158  0.0415  0.1147  0.0067
  928POPC   GL111127  14.699  14.770  16.527 -0.0334  0.0252  0.2950
  928POPC   GL211128  14.752  14.611  16.773 -0.0505  0.2192 -0.2448
  928POPC   C1A11129  14.645  15.052  16.924  0.3478 -0.0200 -0.2510
  928POPC   D2A11130  14.710  15.040  17.391 -0.2217 -0.0989 -0.4160
  928POPC   C3A11131  14.324  15.237  17.594 -0.0136 -0.2637 -0.1822
  928POPC   C4A11132  13.918  15.242  17.870 -0.2132  0.1974 -0.2277
  928POPC   C1B11133  14.635  14.552  17.180  0.1790 -0.1661 -0.2258
  928POPC   C2B11134  14.619  14.608  17.627 -0.1230  0.0487 -0.3061
  928POPC   C3B11135  14.866  14.577  17.964 -0.0526  0.2681 -0.0196
  928POPC   C4B11136  14.797  14.773  18.344  0.2628  0.0005 -0.2316
  929POPC   NC311137  10.352  10.402  13.643  0.0532  0.3238  0.3330
  929POPC   PO411138  10.634  10.633  13.557  0.0459 -0.4053 -0.0013
  929POPC   GL111139  10.682  10.228  13.368 -0.0693  0.3183  0.1559
  929POPC   GL211140  10.692   9.996  13.571  0.2362 -0.0548  0.0673
  929POPC   C1A11141  10.891   9.938  13.044 -0.2026 -0.1911  0.2649
  929POPC   D2A11142  10.812   9.465  12.939 -0.0687 -0.0065  0.1566
  929POPC   C3A11143  10.988   9.275  12.573 -0.3247  0.2066 -0.0050
  929POPC   C4A11144  11.018   8.916  12.295 -0.1661 -0.0101 -0.0988
  929POPC   C1B11145  10.360   9.734  13.718 -0.1771 -0.2145 -0.0805
  929POPC   C2B11146  10.338   9.266  13.677 -0.0446 -0.2112 -0.2935
  929POPC   C3B11147  10.378   8.813  13.528  0.3508  0.0009  0.0073
  929POPC   C4B11148  10.289   8.364  13.466 -0.0217  0.4212 -0.0747
  930POPC   NC311149  12.060  15.107  15.918 -0.0350 -0.1739 -0.0272
  930POPC   PO411150  11.774  15.334  15.762  0.0094  0.0137 -0.2453
  930POPC   GL111151  11.893  15.623  16.012  0.0949  0.0615 -0.0454
  930POPC   GL211152  11.940  15.973  16.040  0.2654  0.0749  0.3615
  930POPC   C1A11153  11.804  15.560  16.487 -0.1098 -0.0588 -0.0490
  930POPC   D2A11154  11.871  15.819  16.883  0.0161 -0.0434 -0.1378
  930POPC   C3A11155  12.182  15.877  17.212 -0.2310 -0.0793 -0.0377
  930POPC   C4A11156  12.421  16.145  17.528 -0.1984  0.1600  0.4023
  930POPC   C1B11157  11.812  16.116  16.445 -0.1527  0.0702 -0.3175
  930POPC   C2B11158  11.522  16.165  16.835  0.0232 -0.0756  0.0536
  930POPC   C3B11159  11.272  16.220  17.214  0.2218  0.1677 -0.1569
  930POPC   C4B11160  11.139  16.603  17.394 -0.0820  0.1226 -0.0427
  931POPC   NC311161  12.940  15.013  16.093  0.1133  0.1526  0.4517
  931POPC   PO411162  13.305  14.939  16.193  0.0565  0.1406 -0.0674
  931POPC   GL111163  13.492  14.928  16.534 -0.1069 -0.1079 -0.0432
  931POPC   GL211164  13.672  15.148  16.579  0.0634  0.1062  0.1411
  931POPC   C1A11165  13.303  15.100  16.934  0.0126 -0.0108  0.4294
  931POPC   D2A11166  13.404  15.362  17.252  0.1183 -0.0561  0.0565
  931POPC   C3A11167  12.996  15.323  17.502 -0.0414 -0.0504 -0.1288
  931POPC   C4A11168  12.856  15.252  17.958  0.0344  0.0978  0.1865
  931POPC   C1B11169  13.781  15.358  16.990  0.3075 -0.1366  0.0944
  931POPC   C2B11170  13.849  15.657  17.354 -0.1732 -0.2486  0.2474
  931POPC   C3B11171  13.855  15.737  17.790 -0.0433 -0.1151  0.0780
  931POPC   C4B11172  13.579  15.587  18.129 -0.1625 -0.1219 -0.1688
  932POPC   NC311173   0.948  12.005  16.240 -0.2886  0.4422 -0.1094
  932POPC   PO411174   1.184  12.198  16.494  0.3562 -0.2369 -0.1749
  932POPC   GL111175   1.064  12.110  16.837 -0.0105 -0.1100 -0.0539
  932POPC   GL211176   1.290  12.251  16.961 -0.0118 -0.1676  0.0801
  932POPC   C1A11177   1.146  11.752  17.136 -0.1127  0.0999  0.3256
  932POPC   D2A11178   1.019  11.495  17.528  0.4729 -0.3727  0.2174
  932POPC   C3A11179   1.194  11.038  17.634 -0.1685 -0.1232  0.2112
  932POPC   C4A11180   1.167  10.668  17.887  0.0568  0.3586 -0.3182
  932POPC   C1B11181   1.475  12.039  17.325 -0.1858 -0.2738 -0.1015
  932POPC   C2B11182   1.563  11.918  17.752  0.1318  0.1287 -0.0780
  932POPC   C3B11183   1.471  11.782  18.183  0.0026 -0.0406  0.0743
  932POPC   C4B11184   1.557  11.916  18.630 -0.1226  0.0733 -0.0420
  933POPC   NC311185   2.008   8.623  16.090 -0.0892  0.4083 -0.0439
  933POPC   PO411186   2.385   8.734  16.214  0.1055 -0.3875  0.0406
  933POPC   GL111187   2.471   8.637  16.584 -0.0371 -0.2138  0.0988
  933POPC   GL211188   2.712   8.523  16.604  0.3050  0.4005 -0.0375
  933POPC   C1A11189   2.546   8.859  16.986  0.1478  0.1777 -0.0143
  933POPC   D2A11190   2.801   8.917  17.362 -0.4437 -0.1579  0.2829
  933POPC   C3A11191   2.768   9.365  17.507  0.0950 -0.1502 -0.3636
  933POPC   C4A11192   3.125   9.594  17.761 -0.2422 -0.1712  0.2086
  933POPC   C1B11193   3.018   8.494  16.885  0.0476  0.0157 -0.2999
  933POPC   C2B11194   3.270   8.529  17.328  0.1080 -0.1374  0.1112
  933POPC   C3B11195   3.319   8.793  17.709  0.0885 -0.0244  0.1459
  933POPC   C4B11196   3.071   9.121  17.944 -0.1036  0.1389 -0.0992
  934POPC   NC311197  11.075  13.382  16.337 -0.2700 -0.0248  0.1022
  934POPC   PO411198  11.101  13.016  16.195  0.0685 -0.1159  0.1590
  934POPC   GL111199  10.883  13.067  16.540 -0.0305  0.1370 -0.0517
  934POPC   GL211200  11.121  12.983  16.670 -0.1572 -0.2059 -0.1165
  934POPC   C1A11201  10.528  13.015  16.830 -0.1541 -0.0319  0.0290
  934POPC   D2A11202  10.487  13.112  17.258 -0.1058  0.0553  0.0940
  934POPC   C3A11203  10.279  12.790  17.533  0.1469 -0.2659 -0.2273
  934POPC   C4A11204  10.127  12.659  17.956  0.2451 -0.1223  0.0060
  934POPC   C1B11205  10.999  13.039  17.104  0.1651  0.4234 -0.0357
  934POPC   C2B11206  10.965  12.937  17.537  0.2103  0.2277 -0.2466
  934POPC   C3B11207  11.049  12.985  17.952 -0.0029  0.0068  0.0685
  934POPC   C4B11208  10.853  13.199  18.253 -0.4298 -0.1499  0.1651
  935POPC   NC311209   2.551  12.584  16.776  0.3663 -0.0454  0.0931
  935POPC   PO411210   2.585  12.946  16.551 -0.0643  0.2053 -0.2070
  935POPC   GL111211   2.671  12.972  16.994 -0.1910 -0.1811 -0.0802
  935POPC   GL211212   2.773  13.188  17.155  0.0834  0.0596  0.0117
  935POPC   C1A11213   2.811  12.664  17.294 -0.0441 -0.0398  0.2365
  935POPC   D2A11214   2.832  12.294  17.583  0.0648  0.0546 -0.2603
  935POPC   C3A11215   3.201  12.103  17.816 -0.4343 -0.1921  0.1822
  935POPC   C4A11216   3.494  12.168  18.165  0.1727  0.4670 -0.1861
  935POPC   C1B11217   2.901  13.121  17.593 -0.2322 -0.0893  0.3595
  935POPC   C2B11218   2.739  12.746  17.820  0.1517  0.0371  0.1130
  935POPC   C3B11219   2.802  12.407  18.137 -0.2744 -0.2317 -0.0265
  935POPC   C4B11220   3.042  12.212  18.452  0.2306  0.1226 -0.0484
  936POPC   NC311221   7.349   1.919  12.846  0.3280 -0.0285  0.0826
  936POPC   PO411222   7.211   2.011  12.490 -0.0625  0.2395  0.3348
  936POPC   GL111223   7.426   2.397  12.633  0.0572 -0.0862 -0.3933
  936POPC   GL211224   7.483   2.479  12.368 -0.1189  0.0410 -0.1418
  936POPC   C1A11225   7.215   2.833  12.625 -0.2226 -0.1393  0.0162
  936POPC   D2A11226   7.166   3.244  12.784 -0.0395 -0.1439 -0.4779
  936POPC   C3A11227   7.402   3.218  13.243  0.2863 -0.4361 -0.1189
  936POPC   C4A11228   7.742   3.473  13.474  0.1249 -0.1348 -0.3076
  936POPC   C1B11229   7.630   2.870  12.258 -0.0929 -0.2801  0.2349
  936POPC   C2B11230   7.580   3.292  12.373 -0.0609  0.0961  0.0646
  936POPC   C3B11231   7.756   3.608  12.646  0.1738  0.1241 -0.1355
  936POPC   C4B11232   8.101   3.809  12.838  0.1168  0.1599  0.2121
  937POPC   NC311233   7.693  13.569  15.709  0.1564  0.0128 -0.1618
  937POPC   PO411234   7.453  13.490  16.024 -0.0706  0.3202 -0.0059
  937POPC   GL111235   7.651  13.355  16.321  0.0969  0.1312  0.1498
  937POPC   GL211236   7.429  13.336  16.554 -0.1930  0.1036  0.0973
  937POPC   C1A11237   7.898  13.540  16.660  0.0060  0.2329  0.2744
  937POPC   D2A11238   8.088  13.640  17.076  0.0987 -0.3928 -0.0922
  937POPC   C3A11239   8.125  13.967  17.420 -0.0631  0.3685 -0.1029
  937POPC   C4A11240   8.264  14.211  17.827 -0.0450 -0.2146 -0.3795
  937POPC   C1B11241   7.464  13.144  16.950 -0.0877  0.1027 -0.1463
  937POPC   C2B11242   7.560  13.130  17.435 -0.3751  0.0194 -0.3372
  937POPC   C3B11243   7.642  12.832  17.793  0.2683 -0.1509 -0.2015
  937POPC   C4B11244   7.883  12.500  17.977 -0.1182  0.3369 -0.2649
  938POPC   NC311245   2.873   2.896  15.413  0.0639 -0.3238  0.0005
  938POPC   PO411246   2.558   3.144  15.470 -0.0811 -0.1665 -0.2100
  938POPC   GL111247   2.552   3.283  15.841  0.1540  0.0680 -0.0795
  938POPC   GL211248   2.722   3.140  15.985 -0.0971  0.1648  0.1181
  938POPC   C1A11249   2.349   3.241  16.273  0.0500  0.1951 -0.0915
  938POPC   D2A11250   2.483   3.109  16.673  0.1144 -0.1249 -0.2479
  938POPC   C3A11251   2.227   3.040  17.041 -0.0536  0.0309 -0.2194
  938POPC   C4A11252   2.221   2.903  17.551  0.0839 -0.0598  0.0057
  938POPC   C1B11253   2.990   3.251  16.372 -0.2164 -0.0340 -0.0817
  938POPC   C2B11254   3.285   3.586  16.545 -0.0860  0.2167 -0.1586
  938POPC   C3B11255   3.521   3.712  16.973  0.3366  0.1704 -0.0891
  938POPC   C4B11256   3.688   3.865  17.401 -0.0877  0.1245 -0.1587
  939POPC   NC311257  11.107  10.828  12.091 -0.1113 -0.3525  0.2294
  939POPC   PO411258  11.318  10.481  12.173  0.1436  0.0231  0.0029
  939POPC   GL111259  11.080  10.187  12.209  0.3582  0.2632  0.0131
  939POPC   GL211260  11.184   9.925  12.091  0.1783 -0.0309  0.0901
  939POPC   C1A11261  10.994   9.790  12.522 -0.1870 -0.2622  0.0147
  939POPC   D2A11262  10.590   9.515  12.441  0.0612  0.3638  0.0102
  939POPC   C3A11263  10.441   9.160  12.598 -0.0006 -0.3566  0.1271
  939POPC   C4A11264  10.206   8.838  12.695  0.1538 -0.1472 -0.1118
  939POPC   C1B11265  10.998   9.509  12.155 -0.0653  0.0818 -0.0080
  939POPC   C2B11266  10.706   9.158  11.976  0.2119  0.2555  0.1224
  939POPC   C3B11267  10.415   8.777  11.994  0.3777 -0.3778 -0.2865
  939POPC   C4B11268  10.344   8.330  11.999 -0.4095  0.1183  0.0340
  940POPC   NC311269   0.968   5.415  15.627  0.4924  0.0328 -0.0327
  940POPC   PO411270   1.156   5.736  15.746  0.0178 -0.0370  0.0875
  940POPC   GL111271   1.176   5.773  16.178  0.1351  0.0998  0.2242
  940POPC   GL211272   0.948   5.893  16.206  0.1166  0.1810  0.2200
  940POPC   C1A11273   1.142   5.628  16.665  0.1702  0.1580 -0.2788
  940POPC   D2A11274   0.868   5.682  17.020 -0.1687 -0.1695 -0.1850
  940POPC   C3A11275   0.757   6.071  17.262  0.1290  0.2083 -0.2059
  940POPC   C4A11276   0.923   6.169  17.686 -0.2671 -0.1634  0.0937
  940POPC   C1B11277   0.877   6.141  16.530  0.1302 -0.3122  0.0374
  940POPC   C2B11278   1.062   6.345  16.889 -0.1490 -0.3267 -0.0559
  940POPC   C3B11279   1.143   6.564  17.228  0.1407 -0.2171  0.1184
  940POPC   C4B11280   1.194   6.802  17.640  0.2796 -0.2209  0.2726
  941POPC   NC311281  13.913   7.818  14.934  0.2993  0.0823 -0.3776
  941POPC   PO411282  13.709   7.511  15.110  0.3630 -0.0873 -0.3515
  941POPC   GL111283  13.567   7.208  15.415  0.2868 -0.3403  0.2336
  941POPC   GL211284  13.650   7.391  15.659 -0.1576 -0.1546  0.1463
  941POPC   C1A11285  13.163   7.417  15.615 -0.0081 -0.1151  0.1378
  941POPC   D2A11286  12.719   7.389  15.594 -0.1592  0.0336 -0.1991
  941POPC   C3A11287  12.593   7.070  15.283 -0.0971 -0.2834  0.3504
  941POPC   C4A11288  12.263   6.850  15.018 -0.0744 -0.0944  0.5401
  941POPC   C1B11289  13.452   7.268  16.069 -0.1293  0.2590 -0.1584
  941POPC   C2B11290  13.185   7.080  16.381 -0.0664  0.0964  0.2033
  941POPC   C3B11291  12.921   6.788  16.561 -0.2347 -0.2583 -0.0262
  941POPC   C4B11292  12.892   6.473  16.902  0.0855  0.2087 -0.1341
  942POPC   NC311293  10.014  13.060   9.404 -0.2163  0.0601  0.0218
  942POPC   PO411294  10.370  12.834   9.391  0.1425 -0.2046 -0.0671
  942POPC   GL111295  10.553  12.810   9.012  0.0452  0.1743  0.3462
  942POPC   GL211296  10.565  12.509   8.879  0.0414  0.1607  0.0531
  942POPC   C1A11297  10.157  12.887   8.796  0.2041  0.2628 -0.2709
  942POPC   D2A11298   9.737  12.787   8.626 -0.1711  0.6424  0.2140
  942POPC   C3A11299   9.712  12.548   8.223  0.2761  0.0013 -0.0507
  942POPC   C4A11300  10.024  12.571   7.894 -0.0301 -0.0867  0.0060
  942POPC   C1B11301  10.605  12.160   8.567 -0.0304 -0.0361  0.1138
  942POPC   C2B11302  10.470  11.776   8.369 -0.3008  0.2122  0.1706
  942POPC   C3B11303  10.280  11.452   8.178  0.1421 -0.1275 -0.1295
  942POPC   C4B11304  10.492  11.037   8.188 -0.2947 -0.0228 -0.1926
  943POPC   NC311305   1.124  10.677  16.504  0.0795  0.0732  0.1263
  943POPC   PO411306   0.760  10.700  16.382  0.1310  0.0480 -0.1333
  943POPC   GL111307   0.800  10.597  16.788 -0.0536 -0.2565 -0.3120
  943POPC   GL211308   0.951  10.779  16.989 -0.0293  0.1836 -0.3365
  943POPC   C1A11309   0.597  10.461  17.209 -0.1536  0.1277 -0.1166
  943POPC   D2A11310   0.514  10.282  17.580 -0.0801  0.2745  0.0294
  943POPC   C3A11311   0.431  10.439  18.038  0.0697  0.0747 -0.0548
  943POPC   C4A11312   0.527  10.490  18.522 -0.0423 -0.2282 -0.0589
  943POPC   C1B11313   1.189  10.600  17.281 -0.1330  0.2292 -0.1540
  943POPC   C2B11314   1.003  10.326  17.521  0.1674 -0.0246 -0.3932
  943POPC   C3B11315   0.899  10.272  18.013  0.2784  0.1861 -0.1018
  943POPC   C4B11316   0.916  10.131  18.429 -0.1033 -0.2434 -0.2002
  944POPC   NC311317   1.660   0.341  16.224 -0.1316 -0.3390  0.1611
  944POPC   PO411318   1.932   0.656  16.116 -0.0533  0.1160 -0.0662
  944POPC   GL111319   1.985   0.659  16.471  0.1516 -0.1861 -0.2237
  944POPC   GL211320   1.953   0.411  16.612  0.0662  0.1143 -0.2707
  944POPC   C1A11321   2.077   0.829  16.882 -0.4787 -0.0849 -0.0563
  944POPC   D2A11322   2.205   1.228  17.078  0.2427 -0.2726  0.1232
  944POPC   C3A11323   2.076   1.344  17.513 -0.1333 -0.0565 -0.4516
  944POPC   C4A11324   1.843   1.409  17.918 -0.1410 -0.2245 -0.2138
  944POPC   C1B11325   1.855   0.294  17.080  0.2139 -0.0066 -0.1746
  944POPC   C2B11326   2.011   0.100  17.473 -0.0305  0.2460 -0.1899
  944POPC   C3B11327   1.966  -0.169  17.831  0.1416  0.3398 -0.0950
  944POPC   C4B11328   2.102  -0.401  18.164 -0.0831 -0.0756 -0.2574
  945POPC   NC311329   9.855  10.478  13.306  0.0234 -0.0368  0.3811
  945POPC   PO411330   9.873  10.449  13.702  0.3478  0.0656  0.2410
  945POPC   GL111331   9.730  10.038  13.730  0.0345  0.3213 -0.1178
  945POPC   GL211332   9.888   9.932  13.514  0.2059  0.1934  0.2957
  945POPC   C1A11333   9.962   9.677  13.946 -0.0547 -0.0305  0.0784
  945POPC   D2A11334   9.986   9.204  14.001 -0.1503  0.1233  0.0085
  945POPC   C3A11335   9.819   9.014  13.638 -0.1585 -0.4058  0.3111
  945POPC   C4A11336   9.499   8.824  13.330  0.1787  0.0474 -0.1263
  945POPC   C1B11337   9.918   9.518  13.446 -0.1818  0.3990  0.2824
  945POPC   C2B11338   9.910   9.177  13.126  0.2301  0.1370 -0.1149
  945POPC   C3B11339   9.991   8.719  13.214  0.3788 -0.3241  0.0775
  945POPC   C4B11340  10.097   8.314  12.934  0.1005 -0.3055 -0.3078
  946POPC   NC311341  14.229   6.377  12.676 -0.1755  0.0123  0.0131
  946POPC   PO411342  13.865   6.347  12.508 -0.0463  0.1408 -0.3246
  946POPC   GL111343  13.522   6.126  12.388  0.0495 -0.1148  0.1617
  946POPC   GL211344  13.414   6.296  12.147 -0.3462  0.0347  0.2533
  946POPC   C1A11345  13.046   6.142  12.523  0.2909 -0.1474 -0.0408
  946POPC   D2A11346  12.724   5.815  12.696 -0.1243 -0.2620  0.2591
  946POPC   C3A11347  12.309   5.925  12.755  0.1876 -0.0093  0.0200
  946POPC   C4A11348  12.149   6.328  12.556  0.0422 -0.2774 -0.3965
  946POPC   C1B11349  13.151   5.912  12.082 -0.2330  0.4113  0.2267
  946POPC   C2B11350  12.744   5.775  12.148  0.1817 -0.0196 -0.2894
  946POPC   C3B11351  12.349   5.948  12.228  0.3097 -0.0629 -0.4397
  946POPC   C4B11352  11.901   5.998  12.220 -0.0048  0.0753 -0.0601
  947POPC   NC311353  10.273  14.155  16.029 -0.1698  0.0612 -0.0355
  947POPC   PO411354   9.971  14.400  15.904 -0.1016  0.1369 -0.0750
  947POPC   GL111355   9.949  14.492  16.337 -0.4175  0.3651  0.6863
  947POPC   GL211356  10.251  14.360  16.559 -0.1692 -0.0117 -0.1448
  947POPC   C1A11357   9.850  14.821  16.627  0.0363  0.1294 -0.0015
  947POPC   D2A11358   9.673  15.133  16.917  0.0197  0.1030 -0.1271
  947POPC   C3A11359   9.735  15.248  17.409  0.3267 -0.2386  0.0322
  947POPC   C4A11360  10.009  15.499  17.670 -0.2192  0.2217  0.1385
  947POPC   C1B11361  10.037  14.376  16.995 -0.0096  0.0174 -0.0598
  947POPC   C2B11362   9.897  14.727  17.214 -0.0936 -0.0645 -0.1844
  947POPC   C3B11363   9.901  14.808  17.687 -0.0058  0.0090  0.1009
  947POPC   C4B11364   9.968  14.781  18.118  0.0551  0.1244  0.1142
  948POPC   NC311365  31.620   4.498  15.190  0.3036  0.1070  0.1184
  948POPC   PO411366  31.996   4.592  15.291  0.0910 -0.0365  0.2179
  948POPC   GL111367  31.899   4.718  15.599  0.0505  0.2056  0.2112
  948POPC   GL211368  32.091   4.639  15.795 -0.0972 -0.0474 -0.0885
  948POPC   C1A11369  31.614   4.617  15.946 -0.0628 -0.0140  0.0698
  948POPC   D2A11370  31.250   4.511  16.183 -0.3384  0.3195  0.0809
  948POPC   C3A11371  30.807   4.631  16.219  0.3353  0.2673  0.0626
  948POPC   C4A11372  30.431   4.374  16.188 -0.2349 -0.1164 -0.0983
  948POPC   C1B11373  32.029   4.809  16.214  0.0375 -0.2309  0.1223
  948POPC   C2B11374  32.153   4.757  16.626  0.3294  0.2307  0.0179
  948POPC   C3B11375  32.360   4.700  17.053 -0.2289  0.1613  0.0601
  948POPC   C4B11376  32.768   4.790  17.268 -0.0265  0.0392  0.2303
  949POPC   NC311377  14.877  15.616  16.080  0.1745 -0.1371  0.1882
  949POPC   PO411378  14.472  15.581  16.056 -0.1773 -0.0128 -0.0537
  949POPC   GL111379  14.381  15.555  16.487 -0.3097  0.0773 -0.1474
  949POPC   GL211380  14.335  15.420  16.708 -0.1689 -0.0158 -0.1080
  949POPC   C1A11381  14.705  15.801  16.734 -0.0503  0.1032 -0.1471
  949POPC   D2A11382  15.065  15.915  16.967 -0.1173  0.3330  0.1082
  949POPC   C3A11383  15.144  15.985  17.441  0.0733  0.0310  0.0784
  949POPC   C4A11384  15.384  16.082  17.816  0.1467 -0.4009 -0.0020
  949POPC   C1B11385  14.358  15.529  17.130 -0.0625  0.5443  0.0888
  949POPC   C2B11386  14.293  15.768  17.511  0.0485  0.0239 -0.0640
  949POPC   C3B11387  14.364  15.985  17.916  0.0467 -0.1809 -0.0303
  949POPC   C4B11388  14.341  16.034  18.427  0.0609 -0.1693 -0.1604
  950POPC   NC311389   3.723  13.760  15.829  0.0390 -0.3711 -0.0094
  950POPC   PO411390   3.943  13.875  16.157  0.0661 -0.2451  0.0463
  950POPC   GL111391   3.982  13.702  16.626 -0.1645 -0.1597 -0.0874
  950POPC   GL211392   3.902  13.430  16.658  0.3226  0.2030  0.0921
  950POPC   C1A11393   4.140  13.749  17.051  0.2772 -0.3608  0.1448
  950POPC   D2A11394   4.324  13.887  17.418 -0.0264 -0.1544 -0.0705
  950POPC   C3A11395   3.990  13.976  17.732 -0.0790  0.0434 -0.1667
  950POPC   C4A11396   3.942  14.143  18.138 -0.1283 -0.0468  0.0683
  950POPC   C1B11397   3.813  13.153  17.081  0.6864 -0.1623  0.0935
  950POPC   C2B11398   4.058  13.229  17.502  0.1220  0.3136  0.1879
  950POPC   C3B11399   4.094  13.153  17.954  0.0199 -0.1187 -0.1268
  950POPC   C4B11400   4.000  13.087  18.426 -0.4994  0.1923  0.3220
  951POPC   NC311401  13.353  12.095  16.774  0.2424 -0.2031 -0.0304
  951POPC   PO411402  13.607  11.810  16.678 -0.2288 -0.2726 -0.2415
  951POPC   GL111403  13.663  11.646  17.053  0.0189  0.2595  0.5260
  951POPC   GL211404  13.435  11.787  17.157  0.0251  0.1303 -0.0763
  951POPC   C1A11405  13.595  11.283  17.342 -0.2127  0.0840 -0.3901
  951POPC   D2A11406  13.547  10.851  17.364  0.2210  0.5088 -0.1363
  951POPC   C3A11407  13.376  10.651  17.759  0.1424  0.0155  0.4138
  951POPC   C4A11408  13.443  10.373  18.089 -0.0904  0.2704  0.0246
  951POPC   C1B11409  13.239  11.645  17.573  0.0838 -0.0914 -0.1618
  951POPC   C2B11410  12.915  11.658  17.851  0.1719  0.1236  0.0782
  951POPC   C3B11411  12.477  11.872  18.058  0.0547  0.0976  0.1368
  951POPC   C4B11412  12.239  11.840  18.390 -0.1122  0.2279  0.1124
  952POPC   NC311413   4.465   0.763  15.187  0.0390 -0.0878  0.0617
  952POPC   PO411414   4.787   0.683  15.377  0.1311  0.3963 -0.3347
  952POPC   GL111415   5.054   0.791  15.727  0.0468  0.2433 -0.0555
  952POPC   GL211416   5.151   0.545  15.806  0.0715  0.1603 -0.0034
  952POPC   C1A11417   4.919   0.846  16.142 -0.0255  0.1997 -0.1698
  952POPC   D2A11418   4.774   1.159  16.435 -0.2438 -0.1504  0.1716
  952POPC   C3A11419   4.842   0.991  16.823  0.2924  0.0204 -0.1688
  952POPC   C4A11420   5.111   0.648  17.040  0.1662 -0.2590 -0.0029
  952POPC   C1B11421   5.428   0.724  16.166  0.1356 -0.0339 -0.0715
  952POPC   C2B11422   5.672   0.995  16.515  0.2941 -0.2321  0.0095
  952POPC   C3B11423   6.074   1.105  16.712  0.0225  0.0017 -0.1321
  952POPC   C4B11424   6.465   1.395  16.775 -0.1032 -0.0135 -0.0934
  953POPC   NC311425  12.189  12.165  15.944  0.1120 -0.2136 -0.0081
  953POPC   PO411426  11.814  12.255  16.101  0.1394  0.0494 -0.0157
  953POPC   GL111427  11.776  12.151  16.528  0.0604  0.1484  0.3400
  953POPC   GL211428  11.726  11.838  16.723 -0.2773  0.3324  0.2343
  953POPC   C1A11429  11.822  12.351  16.934 -0.1603  0.0002  0.0878
  953POPC   D2A11430  12.008  12.760  16.984  0.0937 -0.1320  0.1648
  953POPC   C3A11431  12.009  12.743  17.419  0.0698 -0.3987 -0.0313
  953POPC   C4A11432  11.978  12.670  17.885  0.0781 -0.1581 -0.0267
  953POPC   C1B11433  11.492  11.741  17.090 -0.2708  0.0896  0.1196
  953POPC   C2B11434  11.382  11.455  17.459 -0.1520  0.0313  0.2126
  953POPC   C3B11435  11.243  11.393  17.890 -0.0617 -0.1230  0.2009
  953POPC   C4B11436  10.956  11.432  18.233 -0.3197 -0.1918  0.0029
  954POPC   NC311437   7.471  16.529  15.111 -0.1833  0.1278 -0.0504
  954POPC   PO411438   7.472  16.248  15.381 -0.0326 -0.1149  0.0795
  954POPC   GL111439   7.534  16.475  15.709  0.4890 -0.2536  0.0274
  954POPC   GL211440   7.569  16.268  15.909  0.1869 -0.2025 -0.0384
  954POPC   C1A11441   7.262  16.658  16.023 -0.4520  0.0991 -0.0044
  954POPC   D2A11442   7.122  16.946  16.343 -0.0310 -0.1073  0.0336
  954POPC   C3A11443   7.438  17.163  16.613  0.0216 -0.0156  0.3514
  954POPC   C4A11444   7.813  17.377  16.897  0.1405 -0.2068  0.3892
  954POPC   C1B11445   7.845  16.409  16.216 -0.2269 -0.1548  0.1052
  954POPC   C2B11446   7.685  16.728  16.456 -0.0439  0.2017  0.1168
  954POPC   C3B11447   7.913  16.810  16.886 -0.0787  0.1733  0.1608
  954POPC   C4B11448   7.854  16.910  17.358 -0.2023 -0.1254  0.1021
  955POPC   NC311449   4.582   0.754  15.800  0.5766 -0.3011 -0.2462
  955POPC   PO411450   4.236   0.741  15.600 -0.0249  0.1691 -0.1862
  955POPC   GL111451   4.162   0.948  15.923 -0.3609 -0.1506  0.1107
  955POPC   GL211452   4.335   1.210  15.919  0.2080  0.3105 -0.2811
  955POPC   C1A11453   4.402   0.852  16.343 -0.0505 -0.0995 -0.1736
  955POPC   D2A11454   4.384   0.704  16.793 -0.1505  0.0189  0.1441
  955POPC   C3A11455   4.484   0.909  17.188  0.0825  0.0783 -0.0263
  955POPC   C4A11456   4.510   1.064  17.603 -0.2519  0.2754 -0.0451
  955POPC   C1B11457   4.331   1.398  16.385 -0.1440  0.1945  0.1422
  955POPC   C2B11458   4.534   1.388  16.842  0.1699 -0.1164  0.1295
  955POPC   C3B11459   4.846   1.267  17.201  0.1437  0.3041 -0.2399
  955POPC   C4B11460   5.018   1.098  17.601 -0.0140 -0.0569 -0.0838
  956POPC   NC311461  11.905  10.325  10.692  0.2431 -0.1536 -0.0570
  956POPC   PO411462  11.833  10.196  11.080 -0.1870 -0.1948 -0.0207
  956POPC   GL111463  11.633   9.916  10.960 -0.0592 -0.1424  0.2747
  956POPC   GL211464  11.373   9.863  11.129  0.0665  0.0302  0.1327
  956POPC   C1A11465  11.567   9.838  10.500 -0.1972 -0.1017 -0.2645
  956POPC   D2A11466  11.609  10.107  10.120  0.1271 -0.1281  0.2297
  956POPC   C3A11467  11.311   9.840   9.863 -0.1157 -0.1188  0.2206
  956POPC   C4A11468  10.954   9.498   9.790  0.2326 -0.6460  0.2518
  956POPC   C1B11469  11.014   9.555  11.076 -0.0924  0.0962  0.3226
  956POPC   C2B11470  10.790   9.146  11.051 -0.1138 -0.1008 -0.1136
  956POPC   C3B11471  10.493   8.886  10.762  0.1014  0.0694 -0.4904
  956POPC   C4B11472  10.053   8.883  10.490  0.2759  0.1761  0.0041
  957POPC   NC311473  11.778  10.958  15.881  0.0005 -0.1577  0.0588
  957POPC   PO411474  11.795  11.316  16.027 -0.0782 -0.3472 -0.1684
  957POPC   GL111475  11.756  11.116  16.324  0.0744  0.2212 -0.0451
  957POPC   GL211476  12.082  11.090  16.438 -0.1813 -0.1345  0.0555
  957POPC   C1A11477  11.758  10.663  16.347  0.1785 -0.1798  0.1840
  957POPC   D2A11478  11.680  10.308  16.691  0.3669 -0.2140 -0.0150
  957POPC   C3A11479  12.068  10.075  16.855  0.1753 -0.0783 -0.0563
  957POPC   C4A11480  12.030   9.716  17.108  0.1358  0.0897 -0.1053
  957POPC   C1B11481  11.778  10.896  16.757 -0.1618 -0.1109 -0.1178
  957POPC   C2B11482  11.485  10.635  17.036 -0.1572 -0.0492 -0.1888
  957POPC   C3B11483  11.143  10.456  17.250  0.0678 -0.2500 -0.1592
  957POPC   C4B11484  10.728  10.507  17.465 -0.0280 -0.3126  0.1443
  958POPC   NC311485   9.836  10.913  15.020  0.1605  0.1988 -0.1079
  958POPC   PO411486   9.903  10.802  14.681 -0.1093  0.0521  0.0979
  958POPC   GL111487   9.779  10.412  14.908 -0.3669 -0.1000 -0.0651
  958POPC   GL211488   9.852  10.445  15.153 -0.1299  0.2327  0.2418
  958POPC   C1A11489   9.376  10.269  15.109  0.0647 -0.0680  0.1069
  958POPC   D2A11490   8.917  10.126  15.165 -0.0138 -0.2046 -0.0288
  958POPC   C3A11491   8.756   9.728  15.293 -0.2702 -0.1829 -0.2386
  958POPC   C4A11492   8.508   9.387  15.463 -0.2082  0.0547 -0.0059
  958POPC   C1B11493   9.700  10.283  15.551 -0.1353 -0.2845 -0.1712
  958POPC   C2B11494   9.779  10.258  15.998 -0.0241  0.1397  0.2280
  958POPC   C3B11495   9.678   9.948  16.255 -0.1615 -0.1173 -0.1571
  958POPC   C4B11496   9.443   9.557  16.306  0.1015  0.1596  0.2094
  959POPC   NC311497  12.578  11.026  16.223 -0.0188  0.1180  0.0394
  959POPC   PO411498  12.567  11.357  16.380  0.0275 -0.2084 -0.1382
  959POPC   GL111499  12.629  11.143  16.800  0.1873  0.5911  0.2802
  959POPC   GL211500  12.784  11.310  16.994  0.2053  0.2492 -0.0105
  959POPC   C1A11501  12.291  10.851  16.956  0.2974  0.2445  0.1159
  959POPC   D2A11502  12.045  10.519  17.201 -0.0352 -0.0944  0.1997
  959POPC   C3A11503  11.726  10.137  17.233 -0.2374  0.1145 -0.1226
  959POPC   C4A11504  11.431   9.900  17.460  0.1501  0.0378 -0.2276
  959POPC   C1B11505  12.741  10.981  17.315  0.1774 -0.2346  0.0725
  959POPC   C2B11506  12.465  10.598  17.441 -0.0674  0.0947  0.0425
  959POPC   C3B11507  12.157  10.278  17.682 -0.2165 -0.0156  0.2486
  959POPC   C4B11508  12.198   9.852  17.595  0.1127 -0.0781  0.2136
  960POPC   NC311509  11.023  10.498  14.468  0.2425  0.0462 -0.3018
  960POPC   PO411510  10.611  10.526  14.524  0.0307  0.0634 -0.3435
  960POPC   GL111511  10.666  10.308  14.815  0.4438 -0.0385  0.0597
  960POPC   GL211512  10.510  10.064  14.678  0.1066  0.2410 -0.1836
  960POPC   C1A11513  10.640   9.982  15.155  0.0120 -0.0127  0.0869
  960POPC   D2A11514  10.707   9.503  15.156  0.0376 -0.0976  0.0225
  960POPC   C3A11515  10.653   9.147  15.506 -0.1929  0.2267 -0.0078
  960POPC   C4A11516  10.723   9.205  15.894  0.0575  0.0744  0.0035
  960POPC   C1B11517  10.274   9.661  14.756  0.0166 -0.0301  0.3019
  960POPC   C2B11518  10.354   9.200  14.968 -0.1272  0.1502 -0.2246
  960POPC   C3B11519  10.298   8.857  15.189 -0.4905  0.0521  0.0443
  960POPC   C4B11520  10.143   8.566  15.478  0.0412 -0.0766  0.3067
  961POPC   NC311521   3.814   6.606  14.100  0.3752 -0.3910 -0.0381
  961POPC   PO411522   3.815   6.485  14.500  0.1969  0.0416  0.1267
  961POPC   GL111523   3.805   6.679  14.844  0.2766  0.4579  0.0106
  961POPC   GL211524   3.707   6.486  15.038 -0.0604  0.1768  0.2731
  961POPC   C1A11525   4.132   6.907  14.951 -0.1167  0.2391 -0.0867
  961POPC   D2A11526   4.465   7.169  15.120 -0.0100  0.1572 -0.1328
  961POPC   C3A11527   4.690   7.379  15.512 -0.2854 -0.0939  0.0750
  961POPC   C4A11528   4.970   7.277  15.854  0.5597  0.0492  0.1103
  961POPC   C1B11529   3.882   6.723  15.357  0.0054 -0.1238 -0.2031
  961POPC   C2B11530   4.222   6.548  15.678  0.0481  0.0487 -0.3904
  961POPC   C3B11531   4.354   6.358  16.049 -0.2139 -0.0445  0.3726
  961POPC   C4B11532   4.357   6.033  16.370  0.0866  0.3650 -0.1978
  962POPC   NC311533   8.588  11.958  10.274 -0.0879  0.0041 -0.0544
  962POPC   PO411534   8.927  12.096  10.428 -0.0800 -0.1324  0.2047
  962POPC   GL111535   9.051  11.874  10.101  0.1824 -0.0449 -0.2349
  962POPC   GL211536   8.990  11.586  10.169 -0.0128 -0.2146  0.3194
  962POPC   C1A11537   9.139  11.670   9.677  0.2611  0.0513 -0.2740
  962POPC   D2A11538   8.879  11.659   9.311  0.0154 -0.0333 -0.0063
  962POPC   C3A11539   8.409  11.672   9.401 -0.1455  0.2890 -0.1890
  962POPC   C4A11540   7.991  11.704   9.379  0.1584  0.1372  0.3595
  962POPC   C1B11541   9.072  11.233   9.883  0.1570  0.1603  0.1574
  962POPC   C2B11542   9.228  11.238   9.438 -0.0828 -0.0161 -0.1147
  962POPC   C3B11543   8.994  11.211   8.984  0.2951  0.2269 -0.1427
  962POPC   C4B11544   8.770  11.591   8.770 -0.1084 -0.1652 -0.1214
  963POPC   NC311545  31.975   8.432  15.857  0.1078 -0.1911 -0.0076
  963POPC   PO411546  31.774   8.184  15.602 -0.0701 -0.0127  0.2071
  963POPC   GL111547  31.729   8.074  15.932 -0.2816 -0.3673  0.0875
  963POPC   GL211548  31.952   7.960  16.115  0.1313 -0.3022 -0.0796
  963POPC   C1A11549  31.456   8.025  16.293 -0.2145 -0.0171  0.1948
  963POPC   D2A11550  31.158   7.809  16.599  0.0590  0.0306  0.0100
  963POPC   C3A11551  31.175   7.570  16.968  0.0624 -0.0308 -0.1292
  963POPC   C4A11552  31.230   7.108  17.179 -0.1803  0.1067 -0.1690
  963POPC   C1B11553  31.880   7.575  16.264  0.1133 -0.0520  0.0313
  963POPC   C2B11554  32.115   7.254  16.538 -0.2658 -0.0561 -0.0409
  963POPC   C3B11555  32.036   7.088  16.996 -0.0992 -0.2485  0.1179
  963POPC   C4B11556  31.935   6.798  17.375 -0.1152  0.2155 -0.0970
  964POPC   NC311557   2.743   4.263  15.684  0.1655  0.1788  0.3433
  964POPC   PO411558   2.413   4.493  15.765 -0.1545  0.2924  0.0266
  964POPC   GL111559   2.412   4.613  16.124 -0.3351  0.0444  0.3398
  964POPC   GL211560   2.488   4.934  16.077  0.0396  0.1760 -0.1204
  964POPC   C1A11561   2.260   4.589  16.567 -0.4898  0.0662 -0.2731
  964POPC   D2A11562   1.839   4.641  16.581  0.1189 -0.2353  0.1939
  964POPC   C3A11563   1.782   4.534  16.980 -0.0883  0.1688 -0.1486
  964POPC   C4A11564   1.854   4.361  17.391  0.0346 -0.3333  0.0878
  964POPC   C1B11565   2.763   4.816  16.389 -0.0567 -0.0510  0.0343
  964POPC   C2B11566   2.641   4.727  16.876 -0.0744  0.0424 -0.0889
  964POPC   C3B11567   2.708   4.884  17.234  0.0963 -0.1379  0.1295
  964POPC   C4B11568   2.364   5.020  17.589 -0.0378  0.0987  0.0003
  965POPC   NC311569   7.891  15.367  16.042 -0.3445  0.2377  0.2250
  965POPC   PO411570   7.509  15.363  16.115  0.1380 -0.0216 -0.0307
  965POPC   GL111571   7.706  15.347  16.461 -0.0486  0.1314  0.1349
  965POPC   GL211572   7.459  15.373  16.616  0.0587  0.0458  0.3601
  965POPC   C1A11573   8.092  15.244  16.746  0.2314 -0.1703  0.0443
  965POPC   D2A11574   8.371  15.334  17.107  0.0247 -0.1444 -0.0151
  965POPC   C3A11575   8.537  15.711  17.149  0.2612 -0.1418  0.1283
  965POPC   C4A11576   8.446  16.088  17.375 -0.0496  0.1073 -0.3616
  965POPC   C1B11577   7.252  15.464  17.020 -0.0471 -0.0572 -0.0582
  965POPC   C2B11578   7.232  15.536  17.461  0.0656  0.0619 -0.2317
  965POPC   C3B11579   7.011  15.692  17.894 -0.0876  0.3281 -0.0631
  965POPC   C4B11580   6.800  15.958  18.245  0.1527  0.2019 -0.1842
  966POPC   NC311581  14.040   5.514  13.778 -0.3005 -0.1455 -0.1254
  966POPC   PO411582  14.051   5.769  14.068 -0.0601 -0.2456 -0.1215
  966POPC   GL111583  13.783   5.912  13.852 -0.2255 -0.3203 -0.0334
  966POPC   GL211584  13.555   5.664  13.847  0.1945 -0.0082 -0.1374
  966POPC   C1A11585  13.416   6.191  13.848  0.1567  0.0700  0.2339
  966POPC   D2A11586  13.361   6.600  13.681 -0.0064 -0.0079 -0.1046
  966POPC   C3A11587  12.932   6.589  13.888 -0.0035  0.0012 -0.1453
  966POPC   C4A11588  12.548   6.362  14.114 -0.2215  0.0011 -0.1600
  966POPC   C1B11589  13.211   5.491  14.131 -0.2378  0.0336 -0.1174
  966POPC   C2B11590  12.842   5.541  14.386  0.2329  0.1182 -0.2561
  966POPC   C3B11591  12.503   5.244  14.457 -0.1618 -0.1904  0.1487
  966POPC   C4B11592  12.422   4.784  14.336  0.0712 -0.2152  0.1772
  967POPC   NC311593   5.577   7.824  12.250  0.0296  0.1884  0.2315
  967POPC   PO411594   5.408   7.664  12.600 -0.0108  0.1235 -0.0459
  967POPC   GL111595   5.834   7.645  12.613 -0.0246 -0.0589 -0.1092
  967POPC   GL211596   5.807   7.361  12.445  0.1056 -0.2555 -0.0023
  967POPC   C1A11597   6.245   7.481  12.750  0.0316  0.0005 -0.1192
  967POPC   D2A11598   6.550   7.756  12.808 -0.1846 -0.0180 -0.0365
  967POPC   C3A11599   6.966   7.653  12.596  0.2331  0.1286 -0.1192
  967POPC   C4A11600   7.237   7.412  12.313 -0.4548  0.1410  0.1903
  967POPC   C1B11601   6.122   7.079  12.358 -0.1159 -0.3095 -0.4263
  967POPC   C2B11602   6.443   6.783  12.573 -0.0324 -0.2492 -0.1235
  967POPC   C3B11603   6.778   6.759  12.849  0.0583 -0.1640  0.1791
  967POPC   C4B11604   7.132   6.967  13.075 -0.1655  0.1591 -0.2357
  968POPC   NC311605  12.000   9.256  13.713  0.2339  0.0328  0.1785
  968POPC   PO411606  12.300   9.076  13.543 -0.2106  0.4179  0.0042
  968POPC   GL111607  12.153   8.746  13.539 -0.0554  0.4197  0.2148
  968POPC   GL211608  11.864   8.732  13.669 -0.0117  0.2161 -0.0403
  968POPC   C1A11609  12.215   8.364  13.821 -0.2933  0.1858 -0.1327
  968POPC   D2A11610  12.091   7.896  13.759 -0.0417 -0.2199  0.0515
  968POPC   C3A11611  11.853   7.593  13.463  0.3418  0.0334 -0.0575
  968POPC   C4A11612  11.741   7.126  13.428 -0.1624  0.0875 -0.2091
  968POPC   C1B11613  11.750   8.285  13.617  0.1590 -0.0616  0.0315
  968POPC   C2B11614  11.475   7.945  13.555  0.0330 -0.1646  0.1782
  968POPC   C3B11615  11.007   8.001  13.533  0.0861 -0.0728 -0.2060
  968POPC   C4B11616  10.597   7.885  13.673  0.2093 -0.1768 -0.1076
  969POPC   NC311617  15.775   8.738  16.179 -0.0869  0.1554  0.0551
  969POPC   PO411618  15.466   8.584  16.304  0.2078  0.1323  0.3654
  969POPC   GL111619  15.464   8.493  16.661 -0.0102 -0.0473 -0.2687
  969POPC   GL211620  15.305   8.221  16.720  0.1818  0.0011 -0.1475
  969POPC   C1A11621  15.680   8.583  17.045 -0.1070  0.2342 -0.0700
  969POPC   D2A11622  15.694   8.564  17.479 -0.0493 -0.1130 -0.0711
  969POPC   C3A11623  15.767   8.425  17.900  0.2195 -0.1451  0.0529
  969POPC   C4A11624  15.608   8.168  18.291 -0.0405 -0.0903  0.0490
  969POPC   C1B11625  15.267   8.387  17.223  0.1137  0.0832 -0.1796
  969POPC   C2B11626  14.961   8.560  17.486 -0.1114 -0.0938  0.4001
  969POPC   C3B11627  14.734   8.584  17.893  0.0995 -0.0424 -0.2907
  969POPC   C4B11628  14.410   8.662  18.213 -0.0806 -0.0863  0.3131
  970POPC   NC311629  10.662  14.840  15.908  0.1663  0.3081  0.0096
  970POPC   PO411630  10.371  14.644  16.069  0.1759 -0.0234 -0.1027
  970POPC   GL111631  10.573  14.879  16.437  0.2313  0.1887  0.0950
  970POPC   GL211632  10.836  14.934  16.608 -0.4946  0.1437 -0.0614
  970POPC   C1A11633  10.420  14.757  16.933 -0.2592  0.0686 -0.0558
  970POPC   D2A11634  10.499  14.379  17.231 -0.1136  0.0128 -0.1684
  970POPC   C3A11635  10.695  14.627  17.570 -0.1200 -0.1900  0.1709
  970POPC   C4A11636  10.933  14.586  17.996  0.2795 -0.0863  0.0236
  970POPC   C1B11637  10.652  15.207  16.939 -0.2182  0.0673  0.1208
  970POPC   C2B11638  10.581  15.379  17.377  0.1561 -0.2406  0.1205
  970POPC   C3B11639  10.725  15.527  17.761 -0.0254  0.1283 -0.0737
  970POPC   C4B11640  11.009  15.736  18.065  0.2163 -0.0906 -0.1474
  971POPC   NC311641  14.207  14.463  16.430  0.2425  0.0676 -0.0180
  971POPC   PO411642  14.205  14.065  16.559 -0.1649  0.0960 -0.1446
  971POPC   GL111643  14.330  14.249  17.006 -0.0360 -0.3293 -0.0800
  971POPC   GL211644  14.254  14.599  16.911  0.0783  0.2084  0.2429
  971POPC   C1A11645  14.471  14.164  17.414 -0.3486  0.0089 -0.1687
  971POPC   D2A11646  14.432  14.180  17.888 -0.2992 -0.1209  0.0103
  971POPC   C3A11647  14.083  14.378  18.089 -0.3167  0.0933  0.1013
  971POPC   C4A11648  13.985  14.792  18.235  0.0192 -0.0223 -0.0901
  971POPC   C1B11649  14.198  14.553  17.387  0.0491  0.0503 -0.0989
  971POPC   C2B11650  14.166  14.805  17.732  0.0860  0.0257 -0.0438
  971POPC   C3B11651  14.399  15.032  18.108 -0.4573 -0.1395  0.5222
  971POPC   C4B11652  14.710  15.266  18.342  0.1410  0.0727  0.0383
  972POPC   NC311653   1.702  12.172  16.464 -0.1492 -0.4538 -0.1769
  972POPC   PO411654   1.605  11.823  16.381  0.1209 -0.0039  0.1536
  972POPC   GL111655   1.477  11.640  16.823 -0.2245 -0.0909 -0.0139
  972POPC   GL211656   1.633  11.807  16.856  0.0219 -0.2046 -0.0855
  972POPC   C1A11657   1.510  11.381  17.204 -0.1993  0.2146  0.1145
  972POPC   D2A11658   1.508  11.443  17.634 -0.0234  0.0709 -0.0108
  972POPC   C3A11659   1.086  11.584  17.986 -0.0105 -0.1562  0.1878
  972POPC   C4A11660   1.056  11.735  18.460 -0.1824  0.0524  0.2129
  972POPC   C1B11661   1.887  12.087  17.039 -0.0218 -0.0257 -0.0295
  972POPC   C2B11662   1.912  12.250  17.495  0.0689 -0.0588 -0.0696
  972POPC   C3B11663   1.976  12.159  17.972 -0.0365 -0.1846 -0.0843
  972POPC   C4B11664   2.148  11.993  18.378  0.0000 -0.0061 -0.2677
  973POPC   NC311665  32.281  10.545  16.233 -0.0070  0.1056 -0.1453
  973POPC   PO411666  32.184  10.912  16.199 -0.0429 -0.0733 -0.0470
  973POPC   GL111667  32.226  10.997  16.582  0.0517  0.1341  0.0170
  973POPC   GL211668  31.953  10.914  16.696  0.5146 -0.5466 -0.0211
  973POPC   C1A11669  32.471  10.874  16.934 -0.2514 -0.1620  0.1150
  973POPC   D2A11670  32.498  10.525  17.221  0.0001  0.4463  0.2776
  973POPC   C3A11671  32.559  10.664  17.653 -0.1855 -0.3608 -0.0230
  973POPC   C4A11672  32.645  10.916  18.032  0.0770 -0.0520 -0.1646
  973POPC   C1B11673  31.935  10.942  17.141 -0.0329  0.0747 -0.0585
  973POPC   C2B11674  32.281  11.005  17.411 -0.4767 -0.2187  0.1874
  973POPC   C3B11675  32.692  11.117  17.484  0.2219 -0.2083 -0.2563
  973POPC   C4B11676  33.111  11.207  17.405 -0.0624 -0.0703  0.0213
  974POPC   NC311677  15.249  10.947  16.545 -0.2120 -0.1466 -0.5151
  974POPC   PO411678  15.019  10.680  16.361  0.2740  0.0571  0.0440
  974POPC   GL111679  15.091  10.621  16.800  0.2975  0.0746  0.1042
  974POPC   GL211680  15.273  10.475  16.866 -0.0959  0.1999  0.0262
  974POPC   C1A11681  14.743  10.466  17.111 -0.0253  0.0602  0.0809
  974POPC   D2A11682  14.429  10.534  17.427  0.2467 -0.4726 -0.0251
  974POPC   C3A11683  14.012  10.255  17.387 -0.0653  0.0064 -0.3086
  974POPC   C4A11684  13.769  10.123  17.767 -0.2524  0.0789 -0.0673
  974POPC   C1B11685  15.187  10.128  17.167 -0.0974 -0.0117  0.0933
  974POPC   C2B11686  15.309  10.091  17.611  0.0380  0.1969  0.0664
  974POPC   C3B11687  15.287  10.292  18.036  0.2854 -0.0018 -0.2288
  974POPC   C4B11688  14.965  10.359  18.357  0.1020 -0.0026 -0.0069
  975POPC   NC311689  11.215  14.373  15.942 -0.0025  0.0592  0.0721
  975POPC   PO411690  11.487  14.258  16.168 -0.0284  0.3056  0.2223
  975POPC   GL111691  11.511  14.171  16.571 -0.2977 -0.4931  0.2486
  975POPC   GL211692  11.811  14.226  16.601 -0.0364  0.0263  0.0979
  975POPC   C1A11693  11.471  14.282  17.067  0.2251 -0.3222 -0.2802
  975POPC   D2A11694  11.598  14.199  17.515 -0.0384  0.0308 -0.2955
  975POPC   C3A11695  12.022  14.183  17.659  0.0733  0.2307 -0.1244
  975POPC   C4A11696  12.239  14.268  18.041 -0.1611 -0.2354 -0.1846
  975POPC   C1B11697  11.896  14.016  17.054  0.1663 -0.1624 -0.0131
  975POPC   C2B11698  12.313  13.997  17.299  0.0544  0.0267  0.2044
  975POPC   C3B11699  12.462  13.957  17.740 -0.2750  0.0714 -0.4960
  975POPC   C4B11700  12.630  13.904  18.143  0.3155 -0.1294 -0.1713
  976POPC   NC311701   2.355   0.514  16.253  0.0570 -0.0819 -0.1216
  976POPC   PO411702   2.357   0.101  16.357 -0.1778  0.1558  0.1443
  976POPC   GL111703   2.489   0.408  16.685 -0.1758  0.0376  0.4847
  976POPC   GL211704   2.698   0.189  16.672  0.0938 -0.1971  0.0621
  976POPC   C1A11705   2.796   0.536  17.014  0.1469  0.2704 -0.3403
  976POPC   D2A11706   2.966   0.800  17.348  0.2806 -0.3035  0.1982
  976POPC   C3A11707   2.854   0.948  17.759 -0.1090 -0.0864  0.1837
  976POPC   C4A11708   2.610   0.798  18.138 -0.0575  0.0925 -0.2314
  976POPC   C1B11709   2.685   0.069  17.168  0.1141 -0.1249  0.0197
  976POPC   C2B11710   2.527   0.059  17.568 -0.2489 -0.0616  0.1710
  976POPC   C3B11711   2.368   0.298  17.932 -0.0942  0.0818  0.1424
  976POPC   C4B11712   2.197   0.588  18.268 -0.0912  0.0057 -0.1266
  977POPC   NC311713  10.832  11.681  11.604 -0.1028  0.4437 -0.1507
  977POPC   PO411714  10.677  11.287  11.621  0.3505 -0.1864  0.2598
  977POPC   GL111715  10.335  11.093  11.578 -0.4296  0.0286 -0.0264
  977POPC   GL211716  10.313  10.888  11.844 -0.2102  0.0691 -0.0491
  977POPC   C1A11717  10.114  10.721  11.449 -0.4301  0.2485  0.2994
  977POPC   D2A11718  10.095  10.627  11.013 -0.0569  0.2557  0.0454
  977POPC   C3A11719  10.227  10.538  10.530  0.0133 -0.1578 -0.1584
  977POPC   C4A11720   9.915  10.331  10.227  0.0679  0.1679 -0.0752
  977POPC   C1B11721  10.270  10.473  11.955  0.0151 -0.0290  0.0183
  977POPC   C2B11722  10.174  10.061  11.850 -0.1520  0.1203  0.1734
  977POPC   C3B11723  10.165   9.738  11.538  0.0010 -0.0987 -0.1112
  977POPC   C4B11724  10.432   9.425  11.282  0.0669  0.1959 -0.0919
  978POPC   NC311725  12.863  14.543  16.074  0.1513 -0.0764  0.2316
  978POPC   PO411726  12.790  14.298  16.381 -0.0231  0.2529  0.2173
  978POPC   GL111727  12.717  14.735  16.453  0.2126  0.1534 -0.0998
  978POPC   GL211728  13.029  14.754  16.556 -0.2272  0.4902  0.0497
  978POPC   C1A11729  12.399  14.997  16.487  0.0441 -0.1452  0.2912
  978POPC   D2A11730  12.297  15.379  16.764 -0.1350  0.1346  0.1692
  978POPC   C3A11731  12.549  15.791  16.857 -0.1527  0.2187 -0.3238
  978POPC   C4A11732  12.709  16.116  17.117  0.0899  0.0113  0.2072
  978POPC   C1B11733  12.746  14.934  16.853  0.0567 -0.2226  0.0788
  978POPC   C2B11734  12.597  14.993  17.331 -0.1546 -0.1551 -0.2336
  978POPC   C3B11735  12.471  15.237  17.670 -0.0270  0.3091  0.1933
  978POPC   C4B11736  12.297  15.620  17.847 -0.2448  0.0194  0.0984
  979POPC   NC311737  14.612  10.576  16.623  0.0435 -0.0671  0.0728
  979POPC   PO411738  14.615  10.981  16.639 -0.2442 -0.0381 -0.2604
  979POPC   GL111739  14.383  10.986  16.984 -0.4420  0.1979  0.1971
  979POPC   GL211740  14.262  10.739  17.044  0.1184  0.0866  0.1946
  979POPC   C1A11741  14.698  10.951  17.294 -0.2041  0.0187 -0.2264
  979POPC   D2A11742  14.749  10.922  17.751 -0.0623 -0.2161  0.0309
  979POPC   C3A11743  14.576  10.568  17.929 -0.0589 -0.2726  0.0597
  979POPC   C4A11744  14.373  10.146  17.812  0.0081 -0.3549  0.0404
  979POPC   C1B11745  14.006  10.810  17.446  0.0465 -0.0145 -0.1417
  979POPC   C2B11746  13.941  10.764  17.905 -0.0558 -0.5729 -0.4915
  979POPC   C3B11747  13.835  10.772  18.374 -0.0627  0.1077 -0.0454
  979POPC   C4B11748  13.531  10.879  18.721  0.2636 -0.0085 -0.0921
  980POPC   NC311749  15.222   2.133  14.902  0.3517  0.1991 -0.1269
  980POPC   PO411750  15.390   2.373  15.190  0.0224 -0.1480  0.4199
  980POPC   GL111751  15.382   2.511  15.575  0.3274 -0.1003  0.2767
  980POPC   GL211752  15.558   2.636  15.832 -0.2712  0.0335 -0.0443
  980POPC   C1A11753  15.226   2.373  16.026 -0.1147 -0.3618 -0.2238
  980POPC   D2A11754  14.917   2.454  16.316  0.1326  0.1552 -0.1294
  980POPC   C3A11755  14.786   2.466  16.789 -0.1311 -0.0882 -0.2361
  980POPC   C4A11756  14.734   2.517  17.222  0.1285 -0.1485 -0.1094
  980POPC   C1B11757  15.429   2.815  16.243  0.0225  0.0895 -0.1895
  980POPC   C2B11758  15.333   3.029  16.639  0.0562  0.1565  0.2338
  980POPC   C3B11759  15.415   2.930  17.050  0.1664 -0.0612 -0.0626
  980POPC   C4B11760  15.035   2.909  17.341  0.1579 -0.2754  0.2324
  981POPC   NC311761   4.437   1.560  15.516 -0.0074 -0.3166  0.0248
  981POPC   PO411762   4.491   1.192  15.459  0.1438  0.4213 -0.1103
  981POPC   GL111763   4.819   1.151  15.632 -0.1124  0.3785  0.1026
  981POPC   GL211764   5.026   1.149  15.466  0.1290  0.1821 -0.1151
  981POPC   C1A11765   4.772   1.431  16.022  0.1930 -0.1970  0.2120
  981POPC   D2A11766   4.774   1.657  16.423 -0.3246  0.1378 -0.3072
  981POPC   C3A11767   5.008   1.594  16.813 -0.0189  0.0898 -0.0015
  981POPC   C4A11768   5.261   1.510  17.139  0.0864  0.1348 -0.1872
  981POPC   C1B11769   5.313   1.444  15.561  0.4598  0.1714 -0.3357
  981POPC   C2B11770   5.539   1.875  15.680  0.0272 -0.0857 -0.0172
  981POPC   C3B11771   5.378   2.281  15.832 -0.4760  0.1117  0.0845
  981POPC   C4B11772   5.630   2.449  16.196 -0.0877  0.3629 -0.1604
  982POPC   NC311773   4.231  14.101  16.571 -0.3470  0.0581 -0.1725
  982POPC   PO411774   4.467  14.360  16.456  0.0688  0.1568 -0.1193
  982POPC   GL111775   4.544  14.641  16.775  0.2178  0.2500  0.1951
  982POPC   GL211776   4.818  14.530  16.769 -0.2206  0.0898 -0.2254
  982POPC   C1A11777   4.674  14.992  17.004  0.1497 -0.2388  0.2223
  982POPC   D2A11778   4.975  15.100  17.326  0.0261 -0.1756  0.0651
  982POPC   C3A11779   4.837  15.322  17.735  0.1930  0.0235  0.1849
  982POPC   C4A11780   4.430  15.363  17.964 -0.1370 -0.1165  0.2002
  982POPC   C1B11781   4.636  14.492  17.190 -0.0194 -0.1718 -0.1358
  982POPC   C2B11782   4.312  14.409  17.494 -0.0199  0.0615  0.1407
  982POPC   C3B11783   4.155  14.523  17.924 -0.1314  0.0954  0.0293
  982POPC   C4B11784   4.381  14.781  18.240 -0.1380  0.2081  0.4409
  983POPC   NC311785  13.582  12.526  16.906  0.1089  0.1268 -0.1361
  983POPC   PO411786  13.414  12.869  16.711  0.1474 -0.1498 -0.1335
  983POPC   GL111787  13.227  13.051  16.969  0.1145 -0.3024  0.0250
  983POPC   GL211788  12.962  13.167  16.906 -0.0782  0.0352  0.3865
  983POPC   C1A11789  13.276  13.165  17.375  0.2167 -0.3753 -0.3566
  983POPC   D2A11790  13.151  13.168  17.797  0.0249  0.1400  0.1345
  983POPC   C3A11791  12.708  13.147  17.933 -0.0514  0.2154 -0.3961
  983POPC   C4A11792  12.396  13.361  18.124  0.0966 -0.1457  0.1196
  983POPC   C1B11793  12.770  13.170  17.297  0.0947 -0.0072  0.0710
  983POPC   C2B11794  12.634  12.771  17.543 -0.0781 -0.2244 -0.2362
  983POPC   C3B11795  12.473  12.618  17.939  0.1025  0.0119 -0.0726
  983POPC   C4B11796  12.349  12.419  18.282 -0.2642  0.0405 -0.1156
  984POPC   NC311797   9.778  11.493  10.698  0.3249  0.1855  0.0867
  984POPC   PO411798  10.127  11.351  10.671  0.1515 -0.3042 -0.0144
  984POPC   GL111799  10.144  10.977  10.376  0.1109  0.0932 -0.0863
  984POPC   GL211800   9.880  10.858  10.188  0.3611  0.2112  0.0194
  984POPC   C1A11801  10.383  10.696  10.072 -0.1082  0.3622  0.1325
  984POPC   D2A11802  10.406  10.369   9.718 -0.2001  0.1156 -0.0111
  984POPC   C3A11803  10.096  10.232   9.391 -0.1723  0.2038  0.0688
  984POPC   C4A11804   9.674  10.165   9.192  0.2816  0.3494  0.1447
  984POPC   C1B11805   9.932  10.604   9.841 -0.0661 -0.0431  0.1147
  984POPC   C2B11806   9.729  10.209   9.796  0.2939  0.0343  0.0700
  984POPC   C3B11807   9.817   9.834   9.566 -0.1018 -0.0487 -0.4779
  984POPC   C4B11808  10.050   9.447   9.460  0.2349 -0.2208  0.2903
  985POPC   NC311809   5.658   1.438  14.713  0.0943  0.2185  0.1967
  985POPC   PO411810   5.299   1.633  14.761 -0.0549  0.0567  0.2940
  985POPC   GL111811   5.532   1.644  15.147 -0.4588 -0.2890  0.0554
  985POPC   GL211812   5.426   1.925  15.173  0.1671  0.2565 -0.1593
  985POPC   C1A11813   5.960   1.806  15.201 -0.0881  0.1685 -0.0165
  985POPC   D2A11814   6.425   1.830  15.351 -0.1682 -0.1891  0.1297
  985POPC   C3A11815   6.593   2.151  15.670  0.2054  0.0849  0.0249
  985POPC   C4A11816   6.544   2.586  15.648 -0.0047  0.1150  0.2171
  985POPC   C1B11817   5.680   2.262  15.392 -0.3089 -0.1079 -0.2646
  985POPC   C2B11818   5.893   2.544  15.670  0.1265  0.0246  0.2483
  985POPC   C3B11819   6.116   2.764  15.958  0.1533 -0.4237  0.0860
  985POPC   C4B11820   6.151   2.684  16.434 -0.3105 -0.4184  0.1370
  986POPC   NC311821   2.910   2.448  16.058  0.3045 -0.0026 -0.1882
  986POPC   PO411822   3.066   2.728  15.857  0.1409 -0.1365 -0.2739
  986POPC   GL111823   3.304   3.054  16.026 -0.1803  0.0619  0.3176
  986POPC   GL211824   3.443   2.986  16.268  0.2962  0.0521 -0.3820
  986POPC   C1A11825   3.206   3.510  16.036 -0.3516  0.0238  0.0618
  986POPC   D2A11826   3.476   3.857  16.156  0.0938 -0.0008 -0.0204
  986POPC   C3A11827   3.694   3.909  16.517  0.1479 -0.1666  0.0144
  986POPC   C4A11828   4.090   3.944  16.344  0.1164 -0.0563  0.2667
  986POPC   C1B11829   3.535   3.166  16.662 -0.0427  0.0119 -0.0835
  986POPC   C2B11830   3.563   3.200  17.109  0.1804  0.1549  0.1816
  986POPC   C3B11831   3.890   3.443  17.322  0.0792  0.0572  0.2520
  986POPC   C4B11832   4.309   3.357  17.465 -0.3679 -0.0825 -0.1177
  987POPC   NC311833   3.929  10.657   9.212 -0.1583  0.1180  0.1902
  987POPC   PO411834   3.645  10.479   9.019  0.2280  0.0181 -0.1094
  987POPC   GL111835   3.596  10.244   8.681 -0.1608 -0.1288  0.2152
  987POPC   GL211836   3.586   9.892   8.745  0.0442  0.0883  0.3838
  987POPC   C1A11837   3.542  10.251   8.217 -0.3207  0.0612  0.1820
  987POPC   D2A11838   3.380  10.316   7.793 -0.2599  0.0523 -0.0661
  987POPC   C3A11839   3.690  10.115   7.455  0.1164  0.0150  0.4090
  987POPC   C4A11840   4.142  10.004   7.320  0.0741  0.4722  0.0599
  987POPC   C1B11841   3.756   9.698   8.383  0.0496 -0.1980 -0.1174
  987POPC   C2B11842   3.797   9.390   8.074  0.0637  0.2849  0.0004
  987POPC   C3B11843   4.212   9.116   7.949 -0.0491 -0.3364  0.0853
  987POPC   C4B11844   4.522   9.096   7.623 -0.0566  0.0952 -0.0256
  988POPC   NC311845  14.406   6.489  14.848 -0.0820 -0.0495 -0.0291
  988POPC   PO411846  14.213   6.840  14.876  0.2322  0.0049 -0.1907
  988POPC   GL111847  14.032   6.752  15.149 -0.1450  0.2924 -0.0917
  988POPC   GL211848  14.171   6.621  15.365  0.3434 -0.1787  0.1201
  988POPC   C1A11849  13.676   6.581  15.354 -0.1044  0.1657  0.0083
  988POPC   D2A11850  13.226   6.394  15.377 -0.1721  0.2999  0.4235
  988POPC   C3A11851  12.794   6.190  15.640 -0.0054  0.1039  0.3115
  988POPC   C4A11852  12.413   6.313  15.952 -0.3897 -0.3147 -0.1412
  988POPC   C1B11853  13.906   6.399  15.701  0.1798  0.1498  0.0773
  988POPC   C2B11854  13.743   6.363  16.110 -0.1812 -0.4981 -0.1151
  988POPC   C3B11855  13.647   6.387  16.597 -0.1299  0.1866  0.1015
  988POPC   C4B11856  13.328   6.262  16.914  0.1372  0.2575  0.1333
  989POPC   NC311857  11.861  10.568  10.083 -0.2755  0.0598  0.0625
  989POPC   PO411858  11.671  10.705  10.398  0.1678 -0.1281  0.0418
  989POPC   GL111859  11.383  10.636  10.172 -0.0188  0.2666  0.0544
  989POPC   GL211860  11.411  10.770   9.925  0.1057  0.1445 -0.0705
  989POPC   C1A11861  11.140  10.271  10.070  0.1713 -0.0485  0.2716
  989POPC   D2A11862  10.793   9.984   9.829  0.1734 -0.0998  0.2247
  989POPC   C3A11863  10.451   9.758   9.611  0.1008  0.2326 -0.1165
  989POPC   C4A11864  10.245   9.787   9.188 -0.2401  0.1886 -0.2474
  989POPC   C1B11865  11.362  10.563   9.547 -0.2083  0.0259 -0.2605
  989POPC   C2B11866  11.104  10.503   9.145  0.0124 -0.1018  0.3025
  989POPC   C3B11867  10.823  10.479   8.761  0.3655  0.0551 -0.0521
  989POPC   C4B11868  10.671  10.493   8.299  0.2225 -0.1502 -0.1115
  990POPC   NC311869   2.013  13.462  17.026 -0.1254  0.1049  0.2188
  990POPC   PO411870   2.283  13.252  16.893  0.3475  0.2601  0.3689
  990POPC   GL111871   2.224  13.105  17.258  0.0329 -0.0314 -0.0294
  990POPC   GL211872   2.330  12.899  17.437 -0.1557  0.0299  0.0572
  990POPC   C1A11873   1.889  13.222  17.502 -0.0873 -0.2439 -0.1184
  990POPC   D2A11874   1.683  13.130  17.825 -0.0702  0.2516  0.2686
  990POPC   C3A11875   1.459  12.913  18.172 -0.0647 -0.1063  0.0580
  990POPC   C4A11876   1.102  12.639  18.324 -0.0961 -0.2190 -0.1514
  990POPC   C1B11877   2.194  13.067  17.874 -0.1140 -0.0313 -0.1238
  990POPC   C2B11878   1.910  13.066  18.246 -0.3059  0.0239  0.2073
  990POPC   C3B11879   1.647  13.081  18.624 -0.0711  0.2047  0.2119
  990POPC   C4B11880   1.422  12.794  18.898 -0.2772 -0.2121  0.1663
  991POPC   NC311881   9.992  12.200  16.390  0.0914 -0.3260 -0.0933
  991POPC   PO411882   9.721  12.403  16.223  0.2356  0.1890 -0.1651
  991POPC   GL111883   9.584  12.484  16.570  0.1703  0.2581  0.3087
  991POPC   GL211884   9.852  12.511  16.698 -0.1029 -0.0387 -0.4240
  991POPC   C1A11885   9.377  12.373  16.955 -0.1058  0.1327  0.0955
  991POPC   D2A11886   9.541  12.185  17.355 -0.2093  0.0431 -0.1125
  991POPC   C3A11887   9.416  12.382  17.745 -0.2879  0.0845  0.0950
  991POPC   C4A11888   9.228  12.392  18.156  0.1096 -0.3328 -0.0910
  991POPC   C1B11889   9.948  12.370  17.209 -0.0012 -0.1596  0.3284
  991POPC   C2B11890   9.996  12.246  17.603  0.1329 -0.2718  0.0683
  991POPC   C3B11891   9.847  12.270  18.025 -0.0022 -0.4772 -0.0424
  991POPC   C4B11892   9.737  11.911  18.258  0.0330  0.0361 -0.1180
  992POPC   NC311893  13.941  10.894  16.087 -0.2328 -0.1837  0.2995
  992POPC   PO411894  13.582  11.021  16.141  0.0933 -0.0908  0.0961
  992POPC   GL111895  13.533  11.089  16.520 -0.1521  0.1496  0.0060
  992POPC   GL211896  13.406  10.832  16.706  0.1445 -0.1160  0.0513
  992POPC   C1A11897  13.807  11.141  16.925  0.1072 -0.1994 -0.2638
  992POPC   D2A11898  14.083  11.460  17.158 -0.0294  0.1321 -0.0636
  992POPC   C3A11899  14.038  11.271  17.577  0.1952 -0.0150 -0.0669
  992POPC   C4A11900  13.672  11.154  17.834  0.0210  0.1100 -0.2329
  992POPC   C1B11901  13.160  11.007  17.065 -0.0042  0.3954 -0.1846
  992POPC   C2B11902  13.162  11.137  17.486 -0.1125 -0.1278 -0.1115
  992POPC   C3B11903  13.112  11.046  17.943  0.0645 -0.0651  0.1013
  992POPC   C4B11904  13.361  10.888  18.242  0.0430 -0.0542  0.0523
  993POPC   NC311905   0.672  14.448  16.906  0.1491 -0.2274 -0.1334
  993POPC   PO411906   0.616  14.739  16.658 -0.0425 -0.1262  0.1243
  993POPC   GL111907   0.574  14.933  17.014 -0.1479 -0.1529  0.3137
  993POPC   GL211908   0.349  15.105  17.005 -0.0259  0.2004  0.0868
  993POPC   C1A11909   0.598  14.852  17.483  0.1927 -0.0078 -0.3088
  993POPC   D2A11910   0.716  14.689  17.917 -0.1207  0.2801  0.0161
  993POPC   C3A11911   0.488  14.677  18.292 -0.2264 -0.0324  0.0729
  993POPC   C4A11912   0.348  14.377  18.647  0.0827  0.1957  0.0137
  993POPC   C1B11913   0.532  15.355  17.317 -0.1126 -0.1567 -0.0109
  993POPC   C2B11914   0.897  15.379  17.577 -0.0276  0.0083  0.1102
  993POPC   C3B11915   0.986  15.282  18.024 -0.2681 -0.1885 -0.1209
  993POPC   C4B11916   1.040  15.516  18.426 -0.1055  0.3009  0.1329
  994POPC   NC311917  13.572  32.524  15.653 -0.1284  0.2643  0.0116
  994POPC   PO411918  13.575  32.908  15.737  0.1289 -0.1538  0.0546
  994POPC   GL111919  13.346  32.796  15.992  0.0441  0.0441 -0.0807
  994POPC   GL211920  13.300  32.522  16.110  0.2110  0.0530 -0.2183
  994POPC   C1A11921  13.250  32.959  16.418 -0.0683  0.3233 -0.2700
  994POPC   D2A11922  13.341  33.277  16.697  0.0826  0.0098  0.0156
  994POPC   C3A11923  13.445  33.268  17.137 -0.0782 -0.0060 -0.0832
  994POPC   C4A11924  13.405  33.109  17.550 -0.3794  0.1652 -0.4969
  994POPC   C1B11925  13.126  32.553  16.563  0.1192  0.3172  0.1334
  994POPC   C2B11926  13.152  32.840  16.950 -0.1412 -0.1077  0.0868
  994POPC   C3B11927  12.953  33.150  17.209  0.0022  0.0888  0.0959
  994POPC   C4B11928  12.575  33.362  17.332 -0.2775 -0.1241 -0.1463
  995POPC   NC311929   9.365  11.097  12.283 -0.2145 -0.0072  0.0702
  995POPC   PO411930   8.999  10.987  12.219 -0.1350  0.0915  0.2773
  995POPC   GL111931   9.084  10.624  12.139  0.0901  0.1251 -0.2504
  995POPC   GL211932   8.859  10.452  12.246  0.2338 -0.0164 -0.0338
  995POPC   C1A11933   9.426  10.302  12.107  0.1519  0.1133  0.2561
  995POPC   D2A11934   9.517   9.807  12.201  0.3776 -0.0507  0.0788
  995POPC   C3A11935   9.731   9.726  12.608 -0.0529 -0.1718 -0.0435
  995POPC   C4A11936   9.893   9.863  13.034 -0.0798 -0.2606  0.3000
  995POPC   C1B11937   9.008  10.037  12.087 -0.5433 -0.0653 -0.2821
  995POPC   C2B11938   9.180   9.671  11.860 -0.0346  0.1441 -0.1753
  995POPC   C3B11939   9.344   9.349  11.598 -0.0855  0.2513 -0.0277
  995POPC   C4B11940   9.428   9.006  11.294  0.1884 -0.1130  0.1430
  996POPC   NC311941   1.098  10.138  15.758  0.0496 -0.2195  0.0065
  996POPC   PO411942   1.016  10.207  16.151  0.1610  0.1728 -0.1922
  996POPC   GL111943   0.892  10.206  16.503  0.0126  0.0555 -0.2083
  996POPC   GL211944   1.147  10.084  16.625  0.1487 -0.1305 -0.1100
  996POPC   C1A11945   0.627  10.038  16.858 -0.0917 -0.1317  0.3048
  996POPC   D2A11946   0.446   9.885  17.278  0.1140  0.3114  0.0755
  996POPC   C3A11947   0.757   9.860  17.654  0.0325  0.3967 -0.2857
  996POPC   C4A11948   0.537   9.847  18.090 -0.1006  0.1282  0.0103
  996POPC   C1B11949   1.009   9.918  17.112  0.0348  0.1301  0.0216
  996POPC   C2B11950   1.231   9.843  17.522  0.1313  0.0001  0.0326
  996POPC   C3B11951   1.126   9.822  18.008  0.3129  0.2609  0.0158
  996POPC   C4B11952   1.165   9.668  18.425  0.3134 -0.0299  0.2619
  997POPC   NC311953   6.916  11.068  10.726  0.3360 -0.2212 -0.1080
  997POPC   PO411954   7.235  11.118  10.510  0.0993  0.1751 -0.0927
  997POPC   GL111955   7.281  11.110  10.130  0.2219 -0.0464  0.1326
  997POPC   GL211956   7.536  10.868  10.207  0.2291  0.1949 -0.0180
  997POPC   C1A11957   7.186  10.854   9.783  0.0899  0.2969  0.0440
  997POPC   D2A11958   7.168  10.672   9.391 -0.0025 -0.0811 -0.0615
  997POPC   C3A11959   7.029  10.282   9.241 -0.2157  0.0400  0.0840
  997POPC   C4A11960   6.676  10.046   9.168  0.0453 -0.0519  0.3075
  997POPC   C1B11961   7.810  10.542  10.422 -0.0797  0.2148 -0.0903
  997POPC   C2B11962   8.112  10.245  10.237  0.3199 -0.1198 -0.2467
  997POPC   C3B11963   8.494  10.048  10.033  0.0749 -0.0283 -0.0324
  997POPC   C4B11964   8.653   9.605   9.969  0.2274 -0.0377 -0.0726
  998POPC   NC311965  15.280   0.263  15.888  0.0184 -0.2891 -0.3548
  998POPC   PO411966  15.642   0.307  16.107 -0.1198 -0.2043  0.1249
  998POPC   GL111967  15.447   0.536  16.300 -0.2164 -0.0891 -0.0697
  998POPC   GL211968  15.467   0.846  16.410 -0.0980 -0.2183  0.0723
  998POPC   C1A11969  15.093   0.556  16.548  0.2737  0.3917  0.2763
  998POPC   D2A11970  14.825   0.532  16.927 -0.3630 -0.2024  0.1289
  998POPC   C3A11971  14.833   0.720  17.335  0.1705 -0.1916  0.0895
  998POPC   C4A11972  14.492   0.924  17.584  0.1102  0.2473 -0.2245
  998POPC   C1B11973  15.112   1.054  16.645  0.1965 -0.0615 -0.0627
  998POPC   C2B11974  15.057   1.161  17.090 -0.2368 -0.0815 -0.0156
  998POPC   C3B11975  14.857   1.259  17.510 -0.1501 -0.0454  0.1295
  998POPC   C4B11976  14.986   1.326  17.959 -0.1597  0.2711  0.2488
  999POPC   NC311977   2.670   4.919  15.586  0.0320  0.0384 -0.1469
  999POPC   PO411978   2.803   4.615  15.359 -0.3674 -0.0421 -0.1680
  999POPC   GL111979   3.074   4.610  15.724 -0.0120 -0.1080  0.1673
  999POPC   GL211980   2.914   4.619  15.962 -0.1278  0.0658 -0.0337
  999POPC   C1A11981   3.406   4.274  15.823  0.1697  0.1605  0.0017
  999POPC   D2A11982   3.850   4.266  15.923 -0.1710 -0.3278 -0.3082
  999POPC   C3A11983   4.275   4.293  15.894 -0.2168  0.3106 -0.0976
  999POPC   C4A11984   4.642   4.492  15.692 -0.0290  0.1216 -0.1392
  999POPC   C1B11985   3.180   4.461  16.265  0.0376  0.0361 -0.1427
  999POPC   C2B11986   3.610   4.424  16.471  0.1143  0.1457  0.2542
  999POPC   C3B11987   3.798   4.289  16.842  0.2031  0.2747 -0.2481
  999POPC   C4B11988   4.041   3.934  16.931  0.2068 -0.0942 -0.0346
 1000POPC   NC311989  12.150   0.953  13.621 -0.0030 -0.0121  0.3390
 1000POPC   PO411990  12.481   0.986  13.803  0.0147  0.1984 -0.0755
 1000POPC   GL111991  12.286   1.287  13.997 -0.2849  0.1207 -0.0881
 1000POPC   GL211992  12.212   1.456  13.703  0.6558 -0.1310  0.0134
 1000POPC   C1A11993  12.044   1.367  14.372  0.2348 -0.2100  0.0067
 1000POPC   D2A11994  11.910   1.677  14.680  0.2097  0.1874  0.1554
 1000POPC   C3A11995  12.088   2.004  14.953 -0.1472 -0.1471  0.0694
 1000POPC   C4A11996  12.039   2.397  15.115 -0.0708  0.3727  0.0170
 1000POPC   C1B11997  12.104   1.775  13.949  0.0306  0.0436  0.1841
 1000POPC   C2B11998  11.903   2.175  14.041  0.0548  0.0242  0.1467
 1000POPC   C3B11999  11.768   2.551  14.242 -0.0458  0.0038 -0.1248
 1000POPC   C4B12000  11.512   2.887  14.073  0.0698  0.1778  0.3360
 1001POPC   NC312001   7.890  16.100  15.558  0.1848  0.5663  0.0574
 1001POPC   PO412002   7.779  15.769  15.696 -0.1014 -0.0465  0.2566
 1001POPC   GL112003   7.809  15.910  16.038  0.2968 -0.1977  0.3797
 1001POPC   GL212004   7.627  15.925  16.250  0.0102  0.4024 -0.3210
 1001POPC   C1A12005   8.081  15.670  16.366  0.1254  0.1453 -0.2133
 1001POPC   D2A12006   8.440  15.622  16.688 -0.0541  0.3747  0.0642
 1001POPC   C3A12007   8.472  16.083  16.785 -0.1432  0.0843  0.1218
 1001POPC   C4A12008   8.468  16.521  16.601 -0.0238 -0.0609 -0.0816
 1001POPC   C1B12009   7.731  15.841  16.702  0.3320  0.0391 -0.1973
 1001POPC   C2B12010   8.041  15.851  17.102  0.2728  0.0088 -0.0045
 1001POPC   C3B12011   8.211  15.688  17.522  0.0023 -0.1136  0.0639
 1001POPC   C4B12012   8.545  15.419  17.761  0.0841 -0.0832 -0.0613
 1002POPC   NC312013   6.013   9.996  14.845 -0.0714 -0.2019  0.0048
 1002POPC   PO412014   6.200   9.676  14.779  0.0738 -0.1041  0.2431
 1002POPC   GL112015   6.114   9.331  15.004 -0.3736  0.0492 -0.2609
 1002POPC   GL212016   6.313   9.173  14.827 -0.3141  0.4955  0.2780
 1002POPC   C1A12017   6.269   8.933  15.221 -0.3187  0.0199  0.0209
 1002POPC   D2A12018   6.292   8.518  15.169  0.0277 -0.1955 -0.2552
 1002POPC   C3A12019   6.553   8.313  15.460 -0.0553  0.3029 -0.2359
 1002POPC   C4A12020   7.002   8.182  15.497 -0.3861 -0.3788 -0.3120
 1002POPC   C1B12021   6.613   8.798  14.884 -0.1087 -0.0608 -0.1137
 1002POPC   C2B12022   6.844   8.399  15.020 -0.1152 -0.1731 -0.2217
 1002POPC   C3B12023   7.040   7.923  15.077 -0.1481  0.3741 -0.0542
 1002POPC   C4B12024   7.284   7.684  15.387 -0.0591 -0.0548  0.5992
 1003POPC   NC312025   5.189  14.834  16.098  0.2665  0.2180 -0.1362
 1003POPC   PO412026   4.985  15.173  16.171 -0.0842 -0.3834  0.1617
 1003POPC   GL112027   4.818  15.496  16.364 -0.2842 -0.4841  0.2042
 1003POPC   GL212028   4.803  15.677  16.157 -0.2239  0.1511  0.1845
 1003POPC   C1A12029   4.696  15.504  16.806 -0.1888  0.0304  0.1251
 1003POPC   D2A12030   4.693  15.475  17.257  0.0818 -0.0418  0.1139
 1003POPC   C3A12031   4.387  15.645  17.561 -0.1434  0.0452 -0.0628
 1003POPC   C4A12032   3.955  15.749  17.676  0.2428  0.1120 -0.1904
 1003POPC   C1B12033   5.057  16.016  16.318  0.0696  0.0602 -0.0282
 1003POPC   C2B12034   5.256  16.280  16.544 -0.2037  0.0230  0.3108
 1003POPC   C3B12035   5.521  16.280  16.888 -0.1258  0.3394 -0.0995
 1003POPC   C4B12036   5.546  16.365  17.338 -0.1832  0.0899  0.1471
 1004POPC   NC312037  13.729   8.369  15.361 -0.2642 -0.0304  0.0234
 1004POPC   PO412038  13.506   8.161  15.096 -0.1607  0.0895  0.0407
 1004POPC   GL112039  13.145   8.235  15.313 -0.0273  0.1947 -0.1146
 1004POPC   GL212040  13.302   8.208  15.513 -0.1649  0.0958 -0.3152
 1004POPC   C1A12041  12.856   7.894  15.454 -0.1581  0.2041 -0.2228
 1004POPC   D2A12042  12.493   7.904  15.734  0.1850 -0.3638  0.2898
 1004POPC   C3A12043  12.524   7.582  16.082  0.1323  0.2370 -0.1307
 1004POPC   C4A12044  12.225   7.310  16.271 -0.0697  0.0781  0.0739
 1004POPC   C1B12045  13.187   7.897  15.790  0.2384  0.0699 -0.1366
 1004POPC   C2B12046  13.061   7.538  16.093  0.0767 -0.1237  0.0300
 1004POPC   C3B12047  12.884   7.498  16.455 -0.2599  0.0985 -0.0440
 1004POPC   C4B12048  12.729   7.613  16.882 -0.2902 -0.1577 -0.0908
 1005POPC   NC312049   7.808  10.580  11.442 -0.3493 -0.2845 -0.0538
 1005POPC   PO412050   7.850  10.893  11.194  0.1874  0.0717 -0.0347
 1005POPC   GL112051   7.954  10.611  10.981 -0.0287  0.0222 -0.2855
 1005POPC   GL212052   8.209  10.701  10.857 -0.0364  0.0147 -0.2445
 1005POPC   C1A12053   7.679  10.247  11.032 -0.0815 -0.1975 -0.2249
 1005POPC   D2A12054   7.603   9.759  10.887 -0.1599 -0.0130  0.1355
 1005POPC   C3A12055   7.934   9.430  10.881 -0.3241 -0.1561 -0.0199
 1005POPC   C4A12056   8.415   9.296  10.838  0.2634  0.0050 -0.2573
 1005POPC   C1B12057   8.392  10.321  10.699  0.0748 -0.3225  0.1060
 1005POPC   C2B12058   8.512   9.903  10.480  0.1959  0.2281  0.0401
 1005POPC   C3B12059   8.680   9.478  10.437  0.0442  0.0407  0.2034
 1005POPC   C4B12060   9.062   9.355  10.277 -0.1028  0.2520  0.2823
 1006POPC   NC312061   5.419   6.757  11.698 -0.0681  0.4508  0.0478
 1006POPC   PO412062   5.430   7.114  11.622 -0.3006 -0.2182 -0.1463
 1006POPC   GL112063   5.784   7.002  11.796 -0.3017  0.0892  0.1160
 1006POPC   GL212064   5.984   7.201  11.805 -0.0675  0.1171 -0.0762
 1006POPC   C1A12065   6.130   6.727  12.025  0.1694 -0.0363 -0.1474
 1006POPC   D2A12066   6.601   6.561  12.083  0.1907 -0.1391 -0.2326
 1006POPC   C3A12067   6.855   6.629  12.362  0.1234  0.0425 -0.1089
 1006POPC   C4A12068   7.235   6.559  12.510 -0.0117  0.2730  0.1167
 1006POPC   C1B12069   6.444   7.116  11.914 -0.1459 -0.3481  0.1389
 1006POPC   C2B12070   6.843   7.073  12.059  0.1388 -0.2173  0.0381
 1006POPC   C3B12071   7.238   6.932  12.193  0.2912  0.0776 -0.0847
 1006POPC   C4B12072   7.735   6.841  12.270  0.0592 -0.0881 -0.0856
 1007POPC   NC312073   5.834  12.802  16.285 -0.0523  0.0264 -0.0562
 1007POPC   PO412074   6.051  13.167  16.421 -0.1504 -0.1286  0.2423
 1007POPC   GL112075   5.952  13.319  16.824 -0.0502  0.1863  0.0488
 1007POPC   GL212076   5.652  13.420  16.906 -0.4790 -0.2909  0.2610
 1007POPC   C1A12077   6.007  12.981  17.152  0.1304 -0.3205 -0.2015
 1007POPC   D2A12078   6.016  12.595  17.358 -0.1752  0.2530 -0.0136
 1007POPC   C3A12079   5.765  12.734  17.749 -0.0697  0.0873  0.0167
 1007POPC   C4A12080   5.845  13.078  18.017 -0.2164  0.0166  0.2286
 1007POPC   C1B12081   5.868  13.600  17.187 -0.0301  0.0483  0.1708
 1007POPC   C2B12082   5.727  13.838  17.555  0.0212  0.1481  0.0337
 1007POPC   C3B12083   5.568  14.049  17.924 -0.1368  0.1586  0.3050
 1007POPC   C4B12084   5.750  14.237  18.318 -0.0390  0.3049  0.0231
 1008POPC   NC312085   9.988  32.069  15.561  0.0010  0.2252 -0.0239
 1008POPC   PO412086  10.364  32.108  15.452 -0.3244  0.1098  0.0868
 1008POPC   GL112087  10.334  32.361  15.837  0.3981 -0.1256 -0.1200
 1008POPC   GL212088  10.268  32.117  16.048 -0.2639 -0.1099 -0.0763
 1008POPC   C1A12089  10.379  32.810  15.788  0.0642  0.2837  0.2010
 1008POPC   D2A12090  10.362  33.275  15.667 -0.2700  0.2645 -0.3583
 1008POPC   C3A12091  10.109  33.538  15.941 -0.1680  0.1904  0.0993
 1008POPC   C4A12092   9.887  33.758  16.224 -0.3268  0.2080 -0.0843
 1008POPC   C1B12093  10.648  32.236  16.308  0.0908 -0.1262  0.1031
 1008POPC   C2B12094  11.015  32.330  16.592 -0.0575  0.0897 -0.2797
 1008POPC   C3B12095  11.011  32.480  17.026 -0.2249  0.0319  0.1484
 1008POPC   C4B12096  10.685  32.480  17.300 -0.0489  0.3624 -0.2226
 1009POPC   NC312097   0.230   0.585  15.726 -0.0469  0.0315 -0.0051
 1009POPC   PO412098   0.546   0.750  15.846  0.3075  0.0834  0.2142
 1009POPC   GL112099   0.530   0.923  16.277  0.3326  0.1618 -0.1031
 1009POPC   GL212100   0.792   0.877  16.402 -0.0017  0.0171  0.2153
 1009POPC   C1A12101   0.407   1.190  16.633 -0.1029  0.0736 -0.0783
 1009POPC   D2A12102   0.392   1.326  17.101  0.0546 -0.4754  0.3121
 1009POPC   C3A12103   0.186   1.401  17.443 -0.1590  0.0082  0.2211
 1009POPC   C4A12104  -0.244   1.396  17.617 -0.3677 -0.2490 -0.0683
 1009POPC   C1B12105   1.019   0.927  16.794 -0.3465 -0.2792 -0.1616
 1009POPC   C2B12106   1.285   1.213  17.099  0.0796 -0.0111 -0.3382
 1009POPC   C3B12107   1.459   1.326  17.557  0.2553  0.0339 -0.2628
 1009POPC   C4B12108   1.342   1.625  17.902 -0.1740 -0.1064 -0.0111
 1010POPC   NC312109   4.526   3.843  13.641  0.2283  0.1170  0.4158
 1010POPC   PO412110   4.566   4.223  13.736  0.0097  0.4577  0.0248
 1010POPC   GL112111   4.899   4.129  13.899 -0.2948  0.2019  0.1681
 1010POPC   GL212112   5.075   3.870  13.990  0.1624  0.4875 -0.0665
 1010POPC   C1A12113   5.303   4.333  13.810  0.0804  0.0623  0.0814
 1010POPC   D2A12114   5.424   4.711  13.885 -0.2571 -0.0374  0.2152
 1010POPC   C3A12115   5.720   4.982  13.739 -0.0857  0.0019  0.2389
 1010POPC   C4A12116   5.771   5.432  13.603 -0.0598  0.2472  0.0051
 1010POPC   C1B12117   5.387   3.817  14.384  0.1169  0.0913  0.2731
 1010POPC   C2B12118   5.826   3.790  14.286  0.0532  0.1120 -0.1285
 1010POPC   C3B12119   6.230   3.926  14.327  0.2484  0.3084 -0.3759
 1010POPC   C4B12120   6.638   3.966  14.469  0.0239  0.0849  0.0960
 1011POPC   NC312121   9.139  13.275  15.794  0.0213 -0.3442 -0.4187
 1011POPC   PO412122   9.185  13.174  16.140 -0.0741  0.2507 -0.3000
 1011POPC   GL112123   9.429  13.059  16.473 -0.1140  0.1154 -0.3184
 1011POPC   GL212124   9.591  13.258  16.656  0.1689  0.1259 -0.3295
 1011POPC   C1A12125   9.462  12.835  16.850  0.1476 -0.0021  0.1228
 1011POPC   D2A12126   9.650  12.735  17.318 -0.2799 -0.2956  0.0970
 1011POPC   C3A12127   9.712  12.809  17.800  0.1192  0.1931 -0.1503
 1011POPC   C4A12128   9.825  13.122  18.139 -0.1508  0.0571  0.4710
 1011POPC   C1B12129   9.494  13.262  17.122 -0.1554 -0.2255 -0.0060
 1011POPC   C2B12130   9.539  13.208  17.579 -0.1423 -0.0149  0.1007
 1011POPC   C3B12131   9.201  13.316  17.966  0.1439 -0.1260  0.2282
 1011POPC   C4B12132   8.886  13.397  18.298  0.2772 -0.0673 -0.0595
 1012POPC   NC312133   6.368   1.423  14.036 -0.0524 -0.1826  0.1188
 1012POPC   PO412134   6.481   1.128  14.277  0.0527 -0.0420 -0.0861
 1012POPC   GL112135   6.483   1.311  14.654 -0.0206 -0.0736 -0.2939
 1012POPC   GL212136   6.333   1.207  14.952 -0.0906 -0.0548  0.0757
 1012POPC   C1A12137   6.607   1.624  14.935 -0.2876 -0.1356  0.3770
 1012POPC   D2A12138   6.881   1.880  15.110 -0.0098  0.0066 -0.0128
 1012POPC   C3A12139   6.724   2.308  15.170  0.2092 -0.0241 -0.1744
 1012POPC   C4A12140   7.115   2.620  15.192  0.0263 -0.1083  0.0372
 1012POPC   C1B12141   6.262   1.254  15.433 -0.1569 -0.0917  0.1108
 1012POPC   C2B12142   6.336   1.516  15.776 -0.1522 -0.4343  0.0799
 1012POPC   C3B12143   6.411   1.840  16.079  0.1345 -0.1843  0.2757
 1012POPC   C4B12144   6.385   1.886  16.552  0.0710 -0.0691  0.0080
 1013POPC   NC312145   2.448  11.534  16.722  0.0016 -0.0456 -0.1317
 1013POPC   PO412146   2.826  11.626  16.779  0.0208  0.1362 -0.0298
 1013POPC   GL112147   2.976  11.637  17.158  0.2758  0.1926  0.1205
 1013POPC   GL212148   3.174  11.390  17.105  0.1311 -0.0448  0.0504
 1013POPC   C1A12149   3.271  11.764  17.410  0.2491  0.0446  0.2653
 1013POPC   D2A12150   3.296  11.587  17.785 -0.2845  0.3909  0.1423
 1013POPC   C3A12151   3.343  11.317  18.110 -0.2146 -0.0161  0.1257
 1013POPC   C4A12152   3.379  11.279  18.545 -0.0971  0.3635  0.0753
 1013POPC   C1B12153   3.155  11.167  17.532 -0.1855  0.3533  0.1715
 1013POPC   C2B12154   3.400  10.888  17.822  0.1068  0.1382 -0.3359
 1013POPC   C3B12155   3.616  10.546  18.014 -0.1197  0.1595 -0.0884
 1013POPC   C4B12156   3.935  10.180  18.064 -0.1402  0.0409 -0.1985
 1014POPC   NC312157   9.127  10.425  13.671  0.2730  0.3110  0.2635
 1014POPC   PO412158   9.387  10.295  13.438 -0.1230 -0.0101  0.1502
 1014POPC   GL112159   9.201   9.969  13.293  0.0575 -0.0413 -0.0843
 1014POPC   GL212160   9.307   9.848  13.564  0.0181 -0.1276  0.1099
 1014POPC   C1A12161   8.837   9.816  12.999 -0.4695  0.2364  0.0369
 1014POPC   D2A12162   8.622   9.538  12.733  0.0477 -0.0808 -0.0135
 1014POPC   C3A12163   8.826   9.140  12.579  0.0492 -0.1640  0.0984
 1014POPC   C4A12164   8.867   8.666  12.449  0.0907  0.0611  0.1602
 1014POPC   C1B12165   9.545   9.489  13.774  0.0504  0.4546  0.1842
 1014POPC   C2B12166   9.457   9.181  14.135  0.2233 -0.2405  0.0888
 1014POPC   C3B12167   9.215   8.835  14.285  0.4065 -0.1036 -0.1350
 1014POPC   C4B12168   8.953   8.460  14.260  0.1624 -0.1715 -0.1710
 1015POPC   NC312169   3.552   5.075  15.025  0.0944  0.1492 -0.0192
 1015POPC   PO412170   3.643   4.685  15.083 -0.0181  0.1304  0.1844
 1015POPC   GL112171   3.948   4.449  15.152  0.2951  0.3271  0.0796
 1015POPC   GL212172   3.972   4.440  15.469 -0.0615  0.3369 -0.1475
 1015POPC   C1A12173   4.378   4.603  15.278 -0.3793 -0.1188  0.1338
 1015POPC   D2A12174   4.535   4.989  15.490  0.1720 -0.0182 -0.1286
 1015POPC   C3A12175   4.508   4.998  15.933  0.0399  0.0583 -0.4550
 1015POPC   C4A12176   4.591   4.679  16.256 -0.3533 -0.0082  0.0312
 1015POPC   C1B12177   4.098   4.798  15.779 -0.1683 -0.2250 -0.0885
 1015POPC   C2B12178   4.093   5.060  16.165  0.0712  0.0049 -0.0109
 1015POPC   C3B12179   4.220   5.124  16.604  0.0934 -0.1110 -0.0827
 1015POPC   C4B12180   4.575   5.198  16.913  0.3176  0.0126  0.1206
 1016POPC   NC312181   3.247   0.526  16.143 -0.3216 -0.4056  0.0020
 1016POPC   PO412182   2.847   0.463  16.202 -0.2322 -0.0987 -0.3644
 1016POPC   GL112183   3.006   0.582  16.565  0.1261 -0.0007 -0.1962
 1016POPC   GL212184   3.225   0.465  16.661  0.1919 -0.0944  0.0441
 1016POPC   C1A12185   3.146   0.933  16.870  0.1120 -0.2007 -0.0280
 1016POPC   D2A12186   2.884   1.266  17.057  0.0526 -0.1315  0.0932
 1016POPC   C3A12187   3.109   1.250  17.482  0.1255  0.1273  0.2546
 1016POPC   C4A12188   3.085   1.370  17.909  0.2840 -0.0012 -0.1260
 1016POPC   C1B12189   3.321   0.553  17.097 -0.2388 -0.1521 -0.2393
 1016POPC   C2B12190   3.404   0.689  17.539  0.0454 -0.1402 -0.2551
 1016POPC   C3B12191   3.454   0.993  17.918  0.1828  0.1350  0.1815
 1016POPC   C4B12192   3.672   1.384  18.043 -0.3850  0.0598 -0.1891
 1017POPC   NC312193  12.905   8.232  13.803 -0.0726  0.2147 -0.0589
 1017POPC   PO412194  12.836   8.528  14.084 -0.3209  0.0029  0.0183
 1017POPC   GL112195  12.672   8.239  14.384  0.0898  0.1226 -0.2905
 1017POPC   GL212196  12.374   8.397  14.334 -0.2824 -0.0110  0.0990
 1017POPC   C1A12197  12.536   7.867  14.558  0.2246  0.0115 -0.3040
 1017POPC   D2A12198  12.416   7.466  14.657 -0.0437 -0.1969  0.1581
 1017POPC   C3A12199  12.067   7.341  14.890 -0.1404  0.0171 -0.0455
 1017POPC   C4A12200  11.751   7.026  15.033  0.2253  0.0114 -0.0582
 1017POPC   C1B12201  11.985   8.129  14.366 -0.3456 -0.0800  0.2512
 1017POPC   C2B12202  11.675   8.196  14.642 -0.0723 -0.0315  0.1795
 1017POPC   C3B12203  11.349   8.150  14.902  0.1104 -0.2771 -0.0607
 1017POPC   C4B12204  10.920   8.247  15.007 -0.1445  0.1358  0.0480
 1018POPC   NC312205  12.703  10.635  10.374 -0.2103  0.0723 -0.2861
 1018POPC   PO412206  12.295  10.525  10.465  0.2637 -0.1373 -0.3501
 1018POPC   GL112207  12.201  10.141  10.158  0.1575  0.0509  0.2753
 1018POPC   GL212208  12.056   9.957  10.333 -0.0679  0.0817  0.0238
 1018POPC   C1A12209  11.930   9.988   9.794 -0.2259 -0.1799 -0.1258
 1018POPC   D2A12210  11.936   9.709   9.434 -0.1012  0.1593 -0.1553
 1018POPC   C3A12211  11.450   9.624   9.165 -0.1471  0.2655 -0.4283
 1018POPC   C4A12212  11.160   9.660   8.791 -0.2354 -0.3773 -0.0600
 1018POPC   C1B12213  11.789   9.627  10.123 -0.2674  0.2250  0.0693
 1018POPC   C2B12214  11.572   9.360   9.817 -0.1675 -0.0056  0.3835
 1018POPC   C3B12215  11.635   9.175   9.422 -0.0582  0.2035  0.1916
 1018POPC   C4B12216  11.846   8.760   9.398  0.0081 -0.1901 -0.1369
 1019POPC   NC312217  13.725   2.058   9.606 -0.1251  0.3593  0.0266
 1019POPC   PO412218  13.708   1.686   9.562  0.3080  0.1447 -0.0429
 1019POPC   GL112219  13.575   1.844   9.191 -0.1542  0.0145  0.1282
 1019POPC   GL212220  13.897   1.912   9.071  0.2765  0.1742 -0.0913
 1019POPC   C1A12221  13.553   2.279   9.086  0.0774  0.1068 -0.0547
 1019POPC   D2A12222  13.334   2.701   9.086  0.4088  0.0079 -0.1281
 1019POPC   C3A12223  12.884   2.813   9.131  0.1692  0.0961 -0.1067
 1019POPC   C4A12224  12.562   3.157   9.099 -0.2363 -0.1389 -0.0312
 1019POPC   C1B12225  13.881   2.203   8.741  0.0735 -0.0366 -0.1846
 1019POPC   C2B12226  13.772   2.413   8.385  0.2563 -0.1004 -0.1997
 1019POPC   C3B12227  13.398   2.618   8.186 -0.0837  0.2839  0.0957
 1019POPC   C4B12228  12.989   2.770   8.063 -0.0537  0.2033  0.0682
 1020POPC   NC312229   2.256   9.559  15.856 -0.1316 -0.1505  0.2658
 1020POPC   PO412230   2.296   9.294  16.163  0.0723 -0.3828  0.2101
 1020POPC   GL112231   2.053   9.003  16.393  0.1789  0.0527  0.1833
 1020POPC   GL212232   1.827   9.095  16.253 -0.1007 -0.2029 -0.1658
 1020POPC   C1A12233   2.077   8.826  16.791 -0.0013  0.4504 -0.2388
 1020POPC   D2A12234   2.140   8.788  17.278  0.0718  0.2668 -0.0842
 1020POPC   C3A12235   2.341   8.664  17.658 -0.0617  0.0165 -0.0381
 1020POPC   C4A12236   2.443   8.606  18.083  0.2596  0.2980 -0.1097
 1020POPC   C1B12237   1.761   9.313  16.636  0.1065 -0.0021 -0.0367
 1020POPC   C2B12238   1.829   9.207  17.084 -0.1378 -0.0380 -0.0590
 1020POPC   C3B12239   1.765   9.057  17.502  0.0371 -0.4547 -0.0358
 1020POPC   C4B12240   1.981   8.881  17.869  0.0529  0.1758  0.0768
 1021POPC   NC312241   4.101   7.424  14.093  0.1185  0.3616  0.0901
 1021POPC   PO412242   3.961   7.070  14.265 -0.0266 -0.1753 -0.0338
 1021POPC   GL112243   4.239   6.777  14.370  0.1001  0.1164 -0.2987
 1021POPC   GL212244   4.432   6.999  14.494  0.3825  0.4003 -0.0690
 1021POPC   C1A12245   4.480   6.588  14.724  0.1867  0.2814  0.0733
 1021POPC   D2A12246   4.792   6.473  14.977 -0.1412  0.1158  0.1031
 1021POPC   C3A12247   5.156   6.177  15.004 -0.0360  0.1702 -0.1626
 1021POPC   C4A12248   5.421   5.768  14.991 -0.0739 -0.2241  0.0717
 1021POPC   C1B12249   4.753   6.984  14.799  0.0745  0.2425  0.2287
 1021POPC   C2B12250   5.033   7.145  15.124 -0.0994  0.0803  0.1259
 1021POPC   C3B12251   5.391   7.197  15.466  0.1673  0.0237 -0.0268
 1021POPC   C4B12252   5.733   7.048  15.788 -0.0372 -0.2000 -0.1304
 1022POPC   NC312253   8.854  11.613  15.566  0.0030 -0.0815 -0.2543
 1022POPC   PO412254   8.617  11.363  15.414 -0.0145  0.0143  0.0272
 1022POPC   GL112255   8.659  11.046  15.669 -0.0790 -0.0058  0.4552
 1022POPC   GL212256   8.448  10.850  15.563  0.0325 -0.0371  0.0184
 1022POPC   C1A12257   8.517  10.948  16.089  0.1259 -0.1518  0.0927
 1022POPC   D2A12258   8.357  10.830  16.481  0.0026 -0.1802  0.1739
 1022POPC   C3A12259   8.407  10.419  16.653 -0.0424  0.0700  0.1552
 1022POPC   C4A12260   8.631   9.986  16.675 -0.3540 -0.0304 -0.0764
 1022POPC   C1B12261   8.456  10.402  15.720  0.0660  0.0301  0.3832
 1022POPC   C2B12262   8.722  10.010  15.707 -0.0915  0.0990 -0.1323
 1022POPC   C3B12263   8.998   9.647  15.838 -0.0990 -0.4132 -0.3011
 1022POPC   C4B12264   9.121   9.241  16.054 -0.2867  0.1226  0.2803
 1023POPC   NC312265   7.642  14.460  15.780  0.0555  0.2622  0.0426
 1023POPC   PO412266   7.657  14.868  15.799 -0.1954  0.1453  0.2022
 1023POPC   GL112267   7.868  14.822  16.100  0.6141  0.0489  0.0527
 1023POPC   GL212268   7.711  14.853  16.329 -0.0477 -0.2217  0.2623
 1023POPC   C1A12269   8.125  14.594  16.409 -0.1454  0.0827 -0.0379
 1023POPC   D2A12270   8.152  14.685  16.850  0.1456  0.2150  0.3340
 1023POPC   C3A12271   8.075  14.961  17.235  0.0978 -0.0272 -0.0557
 1023POPC   C4A12272   8.023  15.182  17.595 -0.3542 -0.0925 -0.2807
 1023POPC   C1B12273   7.702  14.969  16.828  0.1504  0.2610  0.5472
 1023POPC   C2B12274   7.742  15.330  17.099 -0.2482  0.0119  0.0307
 1023POPC   C3B12275   7.741  15.556  17.509 -0.0694  0.0620 -0.0273
 1023POPC   C4B12276   7.715  15.465  17.951  0.0878 -0.0720  0.1266
 1024POPC   NC312277  16.204   6.392  15.137 -0.0266 -0.0246  0.0140
 1024POPC   PO412278  16.209   6.103  15.413 -0.2342  0.1805 -0.0674
 1024POPC   GL112279  15.952   5.861  15.720  0.0160  0.0348 -0.4410
 1024POPC   GL212280  16.209   5.753  15.805 -0.1022 -0.1050 -0.0610
 1024POPC   C1A12281  15.570   5.882  15.968  0.3275  0.2046 -0.1194
 1024POPC   D2A12282  15.251   5.828  16.369  0.1628 -0.0964  0.0972
 1024POPC   C3A12283  15.005   5.769  16.737  0.1545  0.0676 -0.0814
 1024POPC   C4A12284  14.807   5.502  17.061  0.0427  0.1221  0.1067
 1024POPC   C1B12285  15.994   5.620  16.175  0.0280  0.0915  0.0200
 1024POPC   C2B12286  15.688   5.676  16.540 -0.0160  0.3966 -0.1444
 1024POPC   C3B12287  15.428   5.927  16.881  0.0439 -0.0609  0.2014
 1024POPC   C4B12288  15.250   5.899  17.304 -0.2221  0.1725  0.0370
 1025POPC   NC312289  14.946   6.554  15.532  0.0202 -0.0374  0.1137
 1025POPC   PO412290  14.635   6.545  15.269 -0.2122 -0.2457 -0.1067
 1025POPC   GL112291  14.568   6.304  15.575  0.0266  0.0632 -0.1424
 1025POPC   GL212292  14.668   6.030  15.676  0.1546 -0.2362  0.0386
 1025POPC   C1A12293  14.399   6.301  16.021 -0.0215  0.0603  0.1304
 1025POPC   D2A12294  14.171   6.350  16.433 -0.2254  0.0206  0.1936
 1025POPC   C3A12295  14.050   6.132  16.790  0.1070 -0.2869 -0.1507
 1025POPC   C4A12296  13.684   5.826  16.914  0.2454  0.2338 -0.1669
 1025POPC   C1B12297  14.229   5.975  15.650 -0.1087 -0.1259 -0.3038
 1025POPC   C2B12298  13.903   5.956  15.997 -0.0317  0.1030 -0.2363
 1025POPC   C3B12299  13.628   5.814  16.206 -0.1641  0.1112 -0.0376
 1025POPC   C4B12300  13.312   5.820  16.596  0.0371 -0.1295 -0.3249
 1026POPC   NC312301   8.701  15.949  14.994  0.1028  0.3756 -0.0223
 1026POPC   PO412302   9.087  16.010  14.913 -0.0374  0.0919 -0.0833
 1026POPC   GL112303   9.077  16.021  15.334 -0.0293 -0.0922  0.1255
 1026POPC   GL212304   8.827  15.948  15.466 -0.3628  0.2620  0.2539
 1026POPC   C1A12305   8.997  16.385  15.594  0.3141 -0.0436 -0.3805
 1026POPC   D2A12306   8.873  16.663  15.924 -0.0511  0.2286  0.3305
 1026POPC   C3A12307   9.128  17.055  16.041  0.1338 -0.0699 -0.1001
 1026POPC   C4A12308   9.240  17.333  16.434  0.1814 -0.1081  0.0690
 1026POPC   C1B12309   8.822  16.041  15.923 -0.0700  0.1751  0.1425
 1026POPC   C2B12310   8.818  16.205  16.371  0.0126 -0.0416  0.1833
 1026POPC   C3B12311   8.942  16.431  16.761  0.2112  0.0334 -0.2387
 1026POPC   C4B12312   8.691  16.527  17.122 -0.0543  0.0425  0.1639
 1027POPC   NC312313   5.422  12.130  16.509 -0.2507 -0.0624  0.1559
 1027POPC   PO412314   5.655  11.866  16.343  0.0598  0.0020  0.2064
 1027POPC   GL112315   5.575  11.719  16.654 -0.4458 -0.0785 -0.0260
 1027POPC   GL212316   5.863  11.707  16.841 -0.1937 -0.0768  0.0282
 1027POPC   C1A12317   5.458  11.302  16.779 -0.0057  0.1167 -0.0605
 1027POPC   D2A12318   5.441  10.923  17.042 -0.0244  0.0795 -0.0347
 1027POPC   C3A12319   5.337  10.883  17.464 -0.1339 -0.2113  0.0291
 1027POPC   C4A12320   5.153  11.092  17.808  0.1531  0.2227 -0.0830
 1027POPC   C1B12321   5.994  11.574  17.264 -0.2582 -0.0489  0.2973
 1027POPC   C2B12322   6.181  11.431  17.649 -0.1108  0.1308  0.0349
 1027POPC   C3B12323   6.147  11.191  18.007  0.2109  0.0367 -0.1438
 1027POPC   C4B12324   6.388  10.833  18.284 -0.0100 -0.2555  0.4362
 1028POPC   NC312325   7.137  13.684   9.025 -0.3010  0.1507  0.1039
 1028POPC   PO412326   7.134  14.048   8.860  0.0013  0.0598 -0.0873
 1028POPC   GL112327   7.373  14.063   8.560 -0.3188  0.0759  0.1360
 1028POPC   GL212328   7.607  14.138   8.639 -0.3227 -0.1497  0.0326
 1028POPC   C1A12329   7.525  14.021   8.085 -0.2176  0.5893 -0.1693
 1028POPC   D2A12330   7.793  14.097   7.731  0.0556  0.0665  0.0845
 1028POPC   C3A12331   7.615  13.780   7.460  0.1978  0.2269 -0.0745
 1028POPC   C4A12332   7.683  13.832   6.999  0.3163  0.0951  0.0110
 1028POPC   C1B12333   7.952  14.198   8.338  0.0134  0.0576 -0.4219
 1028POPC   C2B12334   8.209  14.091   7.970  0.1222  0.1336  0.2208
 1028POPC   C3B12335   8.350  14.160   7.508  0.2889 -0.3681  0.0238
 1028POPC   C4B12336   8.441  14.092   7.069  0.0168 -0.0997 -0.0577
 1029POPC   NC312337   4.398  11.179  15.818  0.1421  0.2657  0.1804
 1029POPC   PO412338   4.343  10.827  15.998  0.1350  0.2090  0.3370
 1029POPC   GL112339   4.585  10.636  16.260 -0.0112 -0.1509  0.0324
 1029POPC   GL212340   4.534  10.374  16.342  0.0076  0.0379 -0.0012
 1029POPC   C1A12341   5.056  10.672  16.326  0.2365  0.3653 -0.0273
 1029POPC   D2A12342   5.347  10.518  16.675  0.2521 -0.1278 -0.1606
 1029POPC   C3A12343   5.327  10.287  17.101 -0.2923  0.0733  0.4280
 1029POPC   C4A12344   5.516  10.072  17.422 -0.1940  0.4590  0.0786
 1029POPC   C1B12345   4.892  10.269  16.585 -0.0249  0.0485  0.0678
 1029POPC   C2B12346   5.194   9.978  16.764  0.3185 -0.2375  0.0275
 1029POPC   C3B12347   5.309   9.742  17.123  0.1585 -0.2743 -0.0027
 1029POPC   C4B12348   5.425   9.454  17.495 -0.0740 -0.0973  0.0925
 1030POPC   NC312349   4.745   9.672  15.309 -0.1567  0.0452 -0.4175
 1030POPC   PO412350   4.868   9.626  14.916 -0.0538  0.1318  0.1115
 1030POPC   GL112351   5.125   9.271  14.999 -0.1886 -0.2957 -0.6180
 1030POPC   GL212352   5.277   9.278  15.250 -0.1368 -0.0567 -0.2112
 1030POPC   C1A12353   5.404   8.895  14.926  0.4189  0.0521  0.0068
 1030POPC   D2A12354   5.500   8.643  14.568  0.0251  0.0945 -0.0053
 1030POPC   C3A12355   5.843   8.325  14.554  0.2565  0.0217 -0.0640
 1030POPC   C4A12356   5.908   7.961  14.806  0.0348 -0.1692  0.2494
 1030POPC   C1B12357   5.586   9.401  15.592 -0.1277 -0.1004  0.0867
 1030POPC   C2B12358   5.798   9.071  15.820 -0.3696 -0.0027  0.2110
 1030POPC   C3B12359   5.884   8.779  16.144  0.4509 -0.3290 -0.0993
 1030POPC   C4B12360   6.012   8.602  16.536 -0.1352  0.1465 -0.1487
 1031POPC   NC312361  11.527  12.066  15.726 -0.1765 -0.1005  0.3731
 1031POPC   PO412362  11.397  12.398  15.857  0.4637  0.1380 -0.5990
 1031POPC   GL112363  11.302  12.609  16.201 -0.0459 -0.1682  0.1381
 1031POPC   GL212364  11.128  12.538  16.335  0.0439 -0.1563 -0.0909
 1031POPC   C1A12365  11.589  12.684  16.549  0.2022 -0.1815  0.1967
 1031POPC   D2A12366  11.493  12.773  16.985  0.3441 -0.3131  0.2288
 1031POPC   C3A12367  11.498  12.453  17.321  0.0653  0.1081  0.1130
 1031POPC   C4A12368  11.875  12.305  17.552 -0.0631 -0.0162  0.0492
 1031POPC   C1B12369  11.291  12.231  16.654 -0.3249  0.1723 -0.3782
 1031POPC   C2B12370  11.158  12.097  17.090 -0.2301 -0.0218 -0.1583
 1031POPC   C3B12371  11.320  11.972  17.513  0.3417 -0.1962  0.0683
 1031POPC   C4B12372  11.503  12.115  17.875  0.1088 -0.0256 -0.1437
 1032POPC   NC312373   8.641  32.461  14.908 -0.1215 -0.0330  0.3747
 1032POPC   PO412374   8.649  32.839  14.718  0.0342 -0.1081  0.1445
 1032POPC   GL112375   8.809  33.155  14.754  0.0005  0.2586 -0.1413
 1032POPC   GL212376   8.586  33.254  14.997 -0.0951  0.0242  0.2543
 1032POPC   C1A12377   9.038  33.396  15.073  0.1196  0.0662  0.2535
 1032POPC   D2A12378   8.998  33.811  15.229 -0.1106  0.2076  0.1598
 1032POPC   C3A12379   9.276  33.946  15.559  0.1319 -0.1497 -0.1500
 1032POPC   C4A12380   9.478  34.328  15.567 -0.2046 -0.1167 -0.2223
 1032POPC   C1B12381   8.422  33.621  15.187  0.0126  0.4508 -0.2253
 1032POPC   C2B12382   8.531  33.937  15.543  0.3630 -0.0753  0.2240
 1032POPC   C3B12383   8.548  34.198  15.893  0.2645 -0.3470  0.3182
 1032POPC   C4B12384   8.306  34.560  16.114  0.0465 -0.0995 -0.0949
 1033POPC   NC312385   4.186  12.962  16.246  0.0461  0.0315  0.3603
 1033POPC   PO412386   4.397  13.038  16.570  0.3479 -0.0427 -0.0139
 1033POPC   GL112387   4.201  13.047  16.914 -0.2576  0.0598  0.3899
 1033POPC   GL212388   4.411  13.235  17.046 -0.5171 -0.0643 -0.1517
 1033POPC   C1A12389   4.173  12.777  17.297  0.3695 -0.1606 -0.1596
 1033POPC   D2A12390   4.328  12.627  17.696 -0.1040  0.0908  0.2606
 1033POPC   C3A12391   4.338  12.696  18.145 -0.2638  0.1426 -0.0538
 1033POPC   C4A12392   4.498  12.969  18.521  0.3260 -0.1874 -0.0659
 1033POPC   C1B12393   4.478  13.446  17.403  0.1645  0.1699  0.1152
 1033POPC   C2B12394   4.294  13.560  17.803 -0.2227 -0.0064 -0.0307
 1033POPC   C3B12395   4.390  13.900  18.074 -0.1901 -0.1739  0.1453
 1033POPC   C4B12396   4.500  14.114  18.494 -0.1696  0.2170 -0.0171
 1034POPC   NC312397   9.106  14.987  15.918  0.0569 -0.2289  0.1860
 1034POPC   PO412398   9.022  14.650  15.741  0.0954 -0.0600 -0.0811
 1034POPC   GL112399   9.155  14.578  16.126  0.1144 -0.1765 -0.2718
 1034POPC   GL212400   8.972  14.666  16.392 -0.1678  0.2057  0.2075
 1034POPC   C1A12401   9.416  14.477  16.501  0.0626 -0.3309  0.2120
 1034POPC   D2A12402   9.440  14.556  16.928 -0.0762 -0.1207  0.0898
 1034POPC   C3A12403   9.409  14.555  17.386 -0.2266 -0.1017  0.2730
 1034POPC   C4A12404   9.504  14.519  17.782  0.3388 -0.1468 -0.1768
 1034POPC   C1B12405   8.899  14.481  16.774 -0.2891  0.1103 -0.0219
 1034POPC   C2B12406   8.957  14.666  17.194 -0.4012  0.0604 -0.0332
 1034POPC   C3B12407   9.000  14.629  17.648  0.0838 -0.2914 -0.3873
 1034POPC   C4B12408   8.787  14.728  18.056  0.2981  0.1225  0.4759
 1035POPC   NC312409   4.231  11.639  16.591  0.0595  0.1961 -0.0980
 1035POPC   PO412410   4.536  11.871  16.704 -0.2264 -0.1544 -0.1257
 1035POPC   GL112411   4.527  11.861  17.096  0.2050  0.2837  0.2875
 1035POPC   GL212412   4.254  11.904  17.161  0.1066  0.0724  0.0115
 1035POPC   C1A12413   4.613  11.522  17.450 -0.3677 -0.3233 -0.2128
 1035POPC   D2A12414   4.713  11.322  17.877 -0.2422  0.1451 -0.1398
 1035POPC   C3A12415   4.599  11.507  18.225 -0.3495 -0.0049 -0.2468
 1035POPC   C4A12416   4.368  11.891  18.393 -0.0262  0.0131 -0.0050
 1035POPC   C1B12417   4.186  12.056  17.627 -0.0402 -0.1281  0.1106
 1035POPC   C2B12418   4.154  12.204  18.052  0.3613  0.2597 -0.2718
 1035POPC   C3B12419   3.920  12.209  18.430 -0.1249  0.2674 -0.2947
 1035POPC   C4B12420   3.540  12.178  18.699 -0.0909 -0.1432 -0.1466
 1036POPC   NC312421  12.477   8.823  13.151  0.0648  0.1104  0.1415
 1036POPC   PO412422  12.870   8.714  13.181  0.0632 -0.4603  0.1840
 1036POPC   GL112423  12.667   8.427  12.982  0.2566 -0.2857  0.0772
 1036POPC   GL212424  12.481   8.148  13.035 -0.2726 -0.2341 -0.4118
 1036POPC   C1A12425  12.222   8.496  12.836  0.0126 -0.0440 -0.2514
 1036POPC   D2A12426  11.895   8.492  13.220  0.0643 -0.1991  0.1918
 1036POPC   C3A12427  11.440   8.326  13.187  0.2118 -0.1599  0.2660
 1036POPC   C4A12428  11.057   8.305  12.949  0.0185  0.0686 -0.0056
 1036POPC   C1B12429  12.031   7.999  13.046 -0.1313  0.0225  0.2368
 1036POPC   C2B12430  11.608   7.883  13.025  0.1610  0.0823 -0.1643
 1036POPC   C3B12431  11.186   7.824  13.118  0.2348 -0.1542  0.0706
 1036POPC   C4B12432  10.773   7.677  13.218  0.1713  0.2873 -0.1112
 1037POPC   NC312433   0.655  13.822  16.952 -0.1738 -0.2988 -0.0508
 1037POPC   PO412434   0.300  13.910  16.801 -0.3329  0.1083  0.0493
 1037POPC   GL112435   0.204  13.765  17.072 -0.0154  0.1718 -0.2223
 1037POPC   GL212436   0.175  13.469  16.971 -0.0209  0.3269  0.4891
 1037POPC   C1A12437  -0.049  13.873  17.388  0.2188  0.2048 -0.3475
 1037POPC   D2A12438   0.302  13.846  17.730  0.0085 -0.0777 -0.1080
 1037POPC   C3A12439   0.341  14.049  18.113 -0.0407 -0.5027 -0.2149
 1037POPC   C4A12440  -0.014  14.045  18.392  0.1756 -0.1715  0.0165
 1037POPC   C1B12441   0.459  13.529  17.331  0.0603 -0.2054 -0.0576
 1037POPC   C2B12442   0.709  13.890  17.412  0.0562 -0.0020  0.0038
 1037POPC   C3B12443   0.802  14.103  17.809 -0.1381 -0.0320 -0.1485
 1037POPC   C4B12444   0.772  14.236  18.286  0.1306 -0.1242 -0.0422
 1038POPC   NC312445   7.648  11.451  15.907  0.0856 -0.4426  0.0244
 1038POPC   PO412446   7.278  11.285  15.871 -0.1887  0.2193 -0.0694
 1038POPC   GL112447   7.150  11.018  16.080 -0.3546 -0.0956  0.0481
 1038POPC   GL212448   7.082  11.051  16.336 -0.0765 -0.1043 -0.0018
 1038POPC   C1A12449   7.352  10.679  16.352 -0.0134  0.0590 -0.3346
 1038POPC   D2A12450   7.493  10.290  16.527  0.0141  0.0426  0.0262
 1038POPC   C3A12451   7.490  10.351  16.974  0.1367 -0.2193 -0.2564
 1038POPC   C4A12452   7.476  10.439  17.441  0.1910  0.3490  0.0831
 1038POPC   C1B12453   7.094  10.805  16.754  0.0594  0.1505 -0.1609
 1038POPC   C2B12454   7.163  10.813  17.287  0.0308 -0.0834  0.0132
 1038POPC   C3B12455   7.303  11.014  17.675  0.1677 -0.1348 -0.0252
 1038POPC   C4B12456   7.368  10.802  18.041 -0.0085 -0.0306  0.1282
 1039POPC   NC312457   5.222  14.076   8.379  0.3980  0.2630 -0.1690
 1039POPC   PO412458   5.549  14.213   8.257  0.0547 -0.0339  0.0831
 1039POPC   GL112459   5.457  14.180   7.919  0.2761  0.0814  0.1162
 1039POPC   GL212460   5.262  14.352   7.894  0.0065  0.1963  0.2135
 1039POPC   C1A12461   5.739  14.457   7.675 -0.0037  0.2668  0.1393
 1039POPC   D2A12462   6.133  14.696   7.620 -0.3147 -0.0561  0.1283
 1039POPC   C3A12463   6.484  15.020   7.596  0.2531  0.2123  0.1527
 1039POPC   C4A12464   6.980  15.010   7.637  0.2776 -0.1296 -0.1948
 1039POPC   C1B12465   5.194  14.300   7.461 -0.0165 -0.2534 -0.0156
 1039POPC   C2B12466   5.582  14.307   7.161 -0.2845  0.0825  0.1063
 1039POPC   C3B12467   5.647  14.280   6.722  0.2086  0.4011 -0.0672
 1039POPC   C4B12468   5.682  14.290   6.261  0.0129  0.1097 -0.1068
 1040POPC   NC312469   5.803  10.061   9.922 -0.0429 -0.3263 -0.0102
 1040POPC   PO412470   5.719  10.370   9.698 -0.2114  0.0246 -0.0976
 1040POPC   GL112471   5.797  10.559   9.354 -0.5110  0.3713 -0.0089
 1040POPC   GL212472   5.697  10.427   9.176  0.1403  0.1303  0.0313
 1040POPC   C1A12473   6.117  10.554   8.967 -0.1282  0.0239  0.1481
 1040POPC   D2A12474   6.428  10.720   8.614 -0.0093  0.4422  0.3544
 1040POPC   C3A12475   6.328  10.573   8.223  0.2271  0.0720 -0.0185
 1040POPC   C4A12476   6.572  10.453   7.831  0.0233  0.1296  0.0525
 1040POPC   C1B12477   5.725  10.167   8.825 -0.0802  0.0339  0.2600
 1040POPC   C2B12478   5.943   9.772   8.709 -0.1313 -0.0112  0.0738
 1040POPC   C3B12479   6.275   9.561   8.453 -0.0504  0.1172 -0.0872
 1040POPC   C4B12480   6.531   9.378   8.128  0.0297  0.3088 -0.2238
 1041POPC   NC312481  15.172  14.972  16.304  0.0219  0.1794  0.1223
 1041POPC   PO412482  15.153  14.604  16.434 -0.0306 -0.0540  0.6161
 1041POPC   GL112483  15.231  14.875  16.747 -0.0889 -0.0203 -0.1085
 1041POPC   GL212484  15.542  14.930  16.649 -0.2359 -0.0463 -0.0868
 1041POPC   C1A12485  15.130  14.673  17.174 -0.4422  0.1367 -0.0969
 1041POPC   D2A12486  15.081  14.712  17.576 -0.0033  0.1174  0.0905
 1041POPC   C3A12487  15.488  14.864  17.614 -0.1164  0.2378 -0.1521
 1041POPC   C4A12488  15.595  15.136  17.968 -0.0037 -0.0650  0.1136
 1041POPC   C1B12489  15.578  15.368  16.802  0.2643 -0.1350  0.1752
 1041POPC   C2B12490  15.467  15.587  17.170  0.0841 -0.3939 -0.0044
 1041POPC   C3B12491  15.487  15.567  17.631  0.0175  0.3579 -0.1704
 1041POPC   C4B12492  15.250  15.665  18.021  0.2603  0.2981 -0.4384
 1042POPC   NC312493   3.489  13.217  16.523  0.0380 -0.0481  0.0196
 1042POPC   PO412494   3.402  12.822  16.520 -0.3337  0.0716  0.3995
 1042POPC   GL112495   3.440  12.721  16.805  0.0607  0.2927 -0.1033
 1042POPC   GL212496   3.637  12.648  16.992  0.1169  0.1652  0.0572
 1042POPC   C1A12497   3.261  12.958  17.187 -0.0046 -0.4203 -0.3663
 1042POPC   D2A12498   3.269  13.353  17.382 -0.0383  0.0308  0.0442
 1042POPC   C3A12499   3.281  13.311  17.835 -0.0423  0.1904 -0.1220
 1042POPC   C4A12500   3.171  13.451  18.252  0.1760  0.0191 -0.2288
 1042POPC   C1B12501   3.672  12.774  17.391  0.1406  0.0543 -0.3817
 1042POPC   C2B12502   3.639  12.988  17.807  0.2268 -0.1704  0.0619
 1042POPC   C3B12503   3.553  13.119  18.248 -0.0549 -0.0120 -0.0266
 1042POPC   C4B12504   3.271  13.124  18.639 -0.0999  0.0691 -0.3031
 1043POPC   NC312505  14.615   2.712  15.054  0.2688  0.2095  0.0661
 1043POPC   PO412506  14.985   2.543  14.966  0.1711 -0.0963  0.1510
 1043POPC   GL112507  15.047   2.713  15.341 -0.0610 -0.0721  0.1848
 1043POPC   GL212508  15.207   2.947  15.540  0.2403 -0.0992  0.0044
 1043POPC   C1A12509  14.854   2.631  15.737 -0.1746  0.0146 -0.3724
 1043POPC   D2A12510  14.474   2.727  16.089  0.1542 -0.0554 -0.0876
 1043POPC   C3A12511  14.437   2.758  16.540 -0.3263 -0.0609 -0.1823
 1043POPC   C4A12512  14.287   2.675  16.968 -0.0156 -0.1728 -0.0049
 1043POPC   C1B12513  15.048   3.095  15.927 -0.4193 -0.2018 -0.0773
 1043POPC   C2B12514  14.892   2.980  16.352  0.5182  0.1718 -0.1210
 1043POPC   C3B12515  14.788   2.928  16.846  0.2462 -0.1601 -0.1681
 1043POPC   C4B12516  14.696   3.256  17.195  0.3972  0.3288 -0.1415
 1044POPC   NC312517  13.736  12.469   8.872 -0.0128  0.0791 -0.1057
 1044POPC   PO412518  13.959  12.229   9.131  0.2848 -0.2368 -0.4129
 1044POPC   GL112519  13.640  12.045   8.954  0.0585 -0.1212 -0.1744
 1044POPC   GL212520  13.746  11.839   8.767 -0.1527  0.3759  0.3045
 1044POPC   C1A12521  13.442  12.187   8.595  0.0030 -0.1124 -0.1820
 1044POPC   D2A12522  13.379  12.360   8.196 -0.0224  0.0499  0.0089
 1044POPC   C3A12523  13.245  12.556   7.761 -0.1248  0.1194  0.1332
 1044POPC   C4A12524  13.013  12.613   7.361 -0.3275  0.0853  0.0237
 1044POPC   C1B12525  13.621  11.820   8.270 -0.1748 -0.3583  0.4200
 1044POPC   C2B12526  13.762  11.817   7.814  0.1236  0.3375 -0.0687
 1044POPC   C3B12527  13.881  11.934   7.392 -0.0064  0.0957  0.0276
 1044POPC   C4B12528  13.713  11.827   7.066  0.2114  0.1311  0.0204
 1045POPC   NC312529   3.376   7.949  14.931  0.0394  0.1093  0.0624
 1045POPC   PO412530   3.466   7.556  15.009  0.1412  0.0403  0.1658
 1045POPC   GL112531   3.448   7.418  15.531  0.0906 -0.1055  0.0445
 1045POPC   GL212532   3.559   7.178  15.406  0.2716 -0.1146 -0.3872
 1045POPC   C1A12533   3.824   7.322  15.830 -0.0274  0.0701 -0.0148
 1045POPC   D2A12534   4.024   6.899  15.973 -0.0273 -0.1692 -0.2872
 1045POPC   C3A12535   4.267   6.931  16.340  0.0872  0.2017 -0.2394
 1045POPC   C4A12536   4.578   7.064  16.695  0.0409  0.3766  0.1445
 1045POPC   C1B12537   3.524   6.736  15.617 -0.2554  0.0956  0.2330
 1045POPC   C2B12538   3.730   6.418  15.923 -0.1382 -0.1341  0.0382
 1045POPC   C3B12539   3.950   6.428  16.317 -0.0134  0.4059  0.0027
 1045POPC   C4B12540   4.063   6.264  16.729  0.0531 -0.1752 -0.2010
 1046POPC   NC312541  12.669  15.468  15.472 -0.0390 -0.0417 -0.1065
 1046POPC   PO412542  12.582  15.229  15.755  0.0402  0.2605 -0.0733
 1046POPC   GL112543  12.442  15.272  16.116 -0.2867 -0.0296  0.2734
 1046POPC   GL212544  12.314  15.456  16.256  0.1405 -0.1564  0.0495
 1046POPC   C1A12545  12.712  15.429  16.512 -0.2412  0.1455 -0.0455
 1046POPC   D2A12546  12.829  15.382  16.984 -0.2641 -0.1790 -0.1416
 1046POPC   C3A12547  13.011  15.736  17.106 -0.2887 -0.1250 -0.1279
 1046POPC   C4A12548  13.131  16.105  17.369 -0.0790 -0.2844  0.1872
 1046POPC   C1B12549  12.214  15.855  16.458 -0.3582  0.1013  0.0759
 1046POPC   C2B12550  12.296  16.195  16.742 -0.0709  0.0005  0.3444
 1046POPC   C3B12551  12.450  16.538  16.971  0.2056 -0.0755 -0.1376
 1046POPC   C4B12552  12.285  16.970  16.974  0.1540 -0.4455  0.3037
 1047POPC   NC312553   5.623   8.122  11.434 -0.1234 -0.0626 -0.0698
 1047POPC   PO412554   5.906   8.420  11.520  0.2231  0.4111  0.0208
 1047POPC   GL112555   6.087   8.135  11.571 -0.1215  0.1166  0.0383
 1047POPC   GL212556   6.056   7.871  11.519  0.2873 -0.0472  0.0060
 1047POPC   C1A12557   6.525   7.953  11.440 -0.2512 -0.3431 -0.1168
 1047POPC   D2A12558   6.890   7.688  11.343  0.0879 -0.0299  0.0049
 1047POPC   C3A12559   6.698   7.409  11.012  0.1367  0.0871 -0.3415
 1047POPC   C4A12560   6.794   7.238  10.572 -0.3158  0.2259 -0.0712
 1047POPC   C1B12561   6.313   7.488  11.523 -0.2156  0.0574 -0.2454
 1047POPC   C2B12562   6.763   7.249  11.528 -0.2845 -0.3220  0.2945
 1047POPC   C3B12563   7.148   6.971  11.558  0.3206  0.2577 -0.0768
 1047POPC   C4B12564   7.566   6.987  11.760  0.1780 -0.1345 -0.1525
 1048POPC   NC312565   6.987   2.467  10.953  0.0836  0.0335 -0.2101
 1048POPC   PO412566   6.707   2.384  10.666 -0.2195  0.0908  0.0035
 1048POPC   GL112567   6.925   2.377  10.346  0.3764  0.0333  0.2878
 1048POPC   GL212568   7.211   2.381  10.434  0.0804  0.0657 -0.0361
 1048POPC   C1A12569   7.033   2.696   9.963 -0.0353 -0.2418  0.0712
 1048POPC   D2A12570   7.362   2.849   9.673 -0.2228 -0.0592 -0.1662
 1048POPC   C3A12571   7.716   3.129   9.831  0.0936 -0.0559  0.0205
 1048POPC   C4A12572   7.928   3.435  10.079  0.1746  0.4517  0.0466
 1048POPC   C1B12573   7.512   2.611  10.202  0.2253  0.2505 -0.1032
 1048POPC   C2B12574   7.792   2.571   9.827  0.0061  0.0642 -0.2105
 1048POPC   C3B12575   8.075   2.855   9.610  0.0258 -0.0813 -0.2245
 1048POPC   C4B12576   8.273   3.270   9.428  0.4224  0.0513  0.2426
 1049POPC   NC312577   1.958  14.785  16.675 -0.1605  0.0438  0.0664
 1049POPC   PO412578   1.937  14.457  16.901  0.2619 -0.0373  0.3219
 1049POPC   GL112579   1.916  14.381  17.266 -0.2216  0.2682  0.0355
 1049POPC   GL212580   2.167  14.157  17.258 -0.3730 -0.1910  0.3500
 1049POPC   C1A12581   2.087  14.427  17.700  0.0289 -0.1048  0.0554
 1049POPC   D2A12582   2.181  14.466  18.141 -0.1385 -0.3966  0.1656
 1049POPC   C3A12583   1.996  14.401  18.607 -0.1822  0.0802 -0.1731
 1049POPC   C4A12584   1.939  14.022  18.777  0.0167 -0.0135 -0.1984
 1049POPC   C1B12585   2.067  13.752  17.436 -0.0455  0.2747  0.2038
 1049POPC   C2B12586   2.032  13.573  17.864 -0.0633 -0.0990 -0.1501
 1049POPC   C3B12587   2.235  13.427  18.253  0.3510 -0.0846 -0.1134
 1049POPC   C4B12588   2.153  13.200  18.630  0.0374 -0.2139  0.1913
 1050POPC   NC312589  14.621   7.141  10.956 -0.0968 -0.0841  0.2558
 1050POPC   PO412590  14.349   6.877  11.075 -0.3010 -0.1591  0.1627
 1050POPC   GL112591  14.142   6.786  10.745  0.4174  0.0040 -0.0164
 1050POPC   GL212592  14.164   6.998  10.591  0.1189 -0.0737 -0.0597
 1050POPC   C1A12593  13.758   6.594  10.582 -0.3117  0.2320 -0.2096
 1050POPC   D2A12594  13.512   6.295  10.436  0.1949  0.0567 -0.0412
 1050POPC   C3A12595  13.033   6.366  10.332 -0.0948  0.2707  0.1896
 1050POPC   C4A12596  12.692   6.640  10.088 -0.3837  0.2190 -0.1419
 1050POPC   C1B12597  13.965   6.927  10.189  0.0202 -0.0905  0.0251
 1050POPC   C2B12598  13.590   6.789  10.003  0.1410  0.0622  0.0944
 1050POPC   C3B12599  13.130   6.856   9.950 -0.2098  0.2907  0.3748
 1050POPC   C4B12600  12.718   7.091   9.910 -0.0550  0.0715  0.0168
 1051POPC   NC312601  14.495   2.310  13.707  0.0460  0.1840  0.3624
 1051POPC   PO412602  14.165   2.500  13.840  0.2585 -0.1720 -0.0500
 1051POPC   GL112603  13.815   2.650  13.968  0.1408  0.1652  0.2285
 1051POPC   GL212604  13.576   2.453  13.957  0.0945  0.1964  0.0964
 1051POPC   C1A12605  13.681   2.858  14.379  0.3096 -0.0512  0.1626
 1051POPC   D2A12606  13.256   2.979  14.552  0.2083 -0.0463  0.1159
 1051POPC   C3A12607  12.934   2.995  14.920 -0.0210  0.0778 -0.0428
 1051POPC   C4A12608  12.859   2.962  15.381  0.0162  0.1536  0.0275
 1051POPC   C1B12609  13.236   2.673  14.124 -0.0571  0.0118 -0.0614
 1051POPC   C2B12610  12.906   2.885  14.235 -0.0139  0.1245  0.2120
 1051POPC   C3B12611  12.729   3.261  14.050  0.2304  0.0134 -0.0088
 1051POPC   C4B12612  12.313   3.426  14.030  0.2634  0.1683  0.1268
 1052POPC   NC312613   5.283   9.913  15.070 -0.0069 -0.3979 -0.0582
 1052POPC   PO412614   4.980  10.121  15.253 -0.2402  0.0345  0.0807
 1052POPC   GL112615   5.212   9.991  15.640  0.5887 -0.2493 -0.0533
 1052POPC   GL212616   5.187   9.706  15.629 -0.2667 -0.0584  0.0218
 1052POPC   C1A12617   5.601   9.820  15.842  0.0041  0.0268  0.0196
 1052POPC   D2A12618   5.960   9.561  15.919 -0.0240 -0.1585 -0.0190
 1052POPC   C3A12619   6.008   9.257  16.337 -0.1188 -0.0622 -0.0882
 1052POPC   C4A12620   6.008   9.209  16.767  0.0649 -0.0277 -0.1167
 1052POPC   C1B12621   5.318   9.490  16.007 -0.3442  0.2604  0.2654
 1052POPC   C2B12622   5.567   9.223  16.278  0.0219  0.1913 -0.0340
 1052POPC   C3B12623   5.607   8.934  16.624  0.1474  0.0660 -0.0733
 1052POPC   C4B12624   5.569   8.503  16.825 -0.0488 -0.0114  0.0072
 1053POPC   NC312625  32.414  14.088  16.188 -0.4539  0.0467 -0.2110
 1053POPC   PO412626  32.361  13.774  16.424 -0.1246  0.1152  0.3289
 1053POPC   GL112627  32.274  13.600  16.806  0.0245  0.1635 -0.0243
 1053POPC   GL212628  32.080  13.896  16.901 -0.1101  0.0614  0.1297
 1053POPC   C1A12629  31.904  13.459  17.025  0.0220  0.0769 -0.0638
 1053POPC   D2A12630  31.790  13.117  17.377 -0.0951 -0.1594 -0.0774
 1053POPC   C3A12631  32.026  13.066  17.773 -0.1426  0.1840 -0.1250
 1053POPC   C4A12632  32.141  13.110  18.277 -0.2961 -0.2573 -0.0419
 1053POPC   C1B12633  31.965  14.096  17.356  0.3921  0.1794 -0.3370
 1053POPC   C2B12634  31.831  14.178  17.756 -0.4019 -0.1497  0.0187
 1053POPC   C3B12635  32.067  14.448  18.041 -0.3360  0.0376 -0.1501
 1053POPC   C4B12636  32.121  14.889  18.131  0.2289  0.2153  0.0185
 1054POPC   NC312637   4.049   2.684  14.689 -0.1911  0.2759 -0.2134
 1054POPC   PO412638   4.346   2.683  14.486 -0.2216 -0.0060  0.0740
 1054POPC   GL112639   4.483   2.917  14.856 -0.2616 -0.1659 -0.2272
 1054POPC   GL212640   4.335   2.854  15.163 -0.0630 -0.1367 -0.1553
 1054POPC   C1A12641   4.624   3.249  15.199  0.1054 -0.0248  0.2515
 1054POPC   D2A12642   4.476   3.650  15.389 -0.1089  0.0515  0.0706
 1054POPC   C3A12643   4.789   3.665  15.709 -0.0305  0.1363 -0.1605
 1054POPC   C4A12644   5.087   3.636  16.067 -0.2318  0.1937  0.1053
 1054POPC   C1B12645   4.635   2.832  15.535  0.0198  0.0120 -0.1712
 1054POPC   C2B12646   4.876   2.653  15.931 -0.2206 -0.2632  0.2496
 1054POPC   C3B12647   5.067   2.621  16.366 -0.0177  0.1069  0.1056
 1054POPC   C4B12648   5.120   2.591  16.800  0.0313  0.0869 -0.2530
 1055POPC   NC312649   9.957   0.930  12.457 -0.0636 -0.0545 -0.2158
 1055POPC   PO412650   9.715   0.932  12.769 -0.0387 -0.0762 -0.2427
 1055POPC   GL112651   9.611   1.307  12.926 -0.0962 -0.4732 -0.1694
 1055POPC   GL212652   9.316   1.410  12.907  0.0065 -0.0035  0.4533
 1055POPC   C1A12653   9.676   1.616  13.269  0.0182  0.0705 -0.0078
 1055POPC   D2A12654   9.762   2.029  13.356 -0.0026 -0.0727  0.1793
 1055POPC   C3A12655  10.168   2.216  13.305 -0.0516  0.0134  0.1701
 1055POPC   C4A12656  10.610   2.334  13.291 -0.0845 -0.0412  0.0880
 1055POPC   C1B12657   9.098   1.654  13.225  0.3131 -0.0911 -0.0580
 1055POPC   C2B12658   8.816   1.991  13.418  0.1290 -0.0785 -0.0665
 1055POPC   C3B12659   8.705   2.425  13.378 -0.0195  0.1329 -0.1090
 1055POPC   C4B12660   8.224   2.523  13.374  0.2782  0.2995  0.0902
 1056POPC   NC312661   3.756  11.821  17.211 -0.2912  0.3693  0.1441
 1056POPC   PO412662   3.849  11.651  16.865  0.6201 -0.0343 -0.1447
 1056POPC   GL112663   4.108  11.416  16.999 -0.0093 -0.0911  0.0652
 1056POPC   GL212664   4.441  11.372  17.008 -0.0273  0.1357 -0.3056
 1056POPC   C1A12665   4.154  11.354  17.452 -0.1925  0.4907  0.0727
 1056POPC   D2A12666   4.303  11.051  17.755  0.0867  0.0202  0.0470
 1056POPC   C3A12667   3.930  11.104  18.103 -0.1423 -0.0728  0.4892
 1056POPC   C4A12668   3.697  10.818  18.414 -0.0338  0.0991  0.0985
 1056POPC   C1B12669   4.539  10.916  17.217 -0.0294 -0.2456  0.1515
 1056POPC   C2B12670   4.764  10.896  17.584 -0.4779 -0.1060 -0.0824
 1056POPC   C3B12671   4.882  10.676  17.909  0.2326 -0.1814 -0.1473
 1056POPC   C4B12672   4.878  10.231  18.213  0.0040 -0.1358 -0.3001
 1057POPC   NC312673   1.655   3.222  15.332  0.2389  0.0084 -0.0489
 1057POPC   PO412674   1.666   3.386  15.685  0.1991 -0.0602 -0.0646
 1057POPC   GL112675   1.696   3.342  16.017 -0.1477 -0.1461 -0.1606
 1057POPC   GL212676   1.859   3.099  16.083  0.2707  0.1473 -0.0011
 1057POPC   C1A12677   1.458   3.504  16.445  0.2568 -0.2796  0.0599
 1057POPC   D2A12678   1.541   3.751  16.844 -0.1021 -0.0103 -0.0934
 1057POPC   C3A12679   1.678   3.649  17.278  0.0918 -0.2104 -0.0165
 1057POPC   C4A12680   2.088   3.678  17.530 -0.3859  0.2277  0.1334
 1057POPC   C1B12681   1.816   3.122  16.571  0.1051  0.3230 -0.1576
 1057POPC   C2B12682   1.698   3.231  17.033  0.0781  0.0258 -0.2968
 1057POPC   C3B12683   1.825   3.213  17.455  0.1594 -0.1332  0.2873
 1057POPC   C4B12684   1.672   3.498  17.760  0.2167  0.1194 -0.0827
 1058POPC   NC312685  13.321   7.087  13.524 -0.2553  0.0353  0.1107
 1058POPC   PO412686  13.382   7.365  13.805 -0.0599 -0.3960  0.1059
 1058POPC   GL112687  12.985   7.373  13.934  0.1735 -0.0227  0.3187
 1058POPC   GL212688  12.838   7.664  13.865  0.2087  0.0901 -0.0699
 1058POPC   C1A12689  12.882   7.134  14.333 -0.5867 -0.1120  0.2272
 1058POPC   D2A12690  12.850   6.645  14.440 -0.0102  0.5658 -0.2573
 1058POPC   C3A12691  12.440   6.470  14.635  0.0099  0.1935  0.0185
 1058POPC   C4A12692  12.094   6.173  14.540 -0.2348  0.0251 -0.0514
 1058POPC   C1B12693  12.547   7.933  14.035  0.2862  0.0852 -0.0084
 1058POPC   C2B12694  12.161   7.733  14.227  0.5118 -0.0664  0.2000
 1058POPC   C3B12695  11.813   7.621  14.499 -0.2540 -0.1797  0.4852
 1058POPC   C4B12696  11.498   7.320  14.679 -0.0228  0.3347 -0.3005
 1059POPC   NC312697   3.115   7.498  15.815  0.2479 -0.1905 -0.0379
 1059POPC   PO412698   2.999   7.114  15.791 -0.2305 -0.2867  0.2260
 1059POPC   GL112699   3.364   7.117  16.047 -0.0564  0.3807 -0.2310
 1059POPC   GL212700   3.482   6.883  16.101 -0.0113  0.1848  0.1012
 1059POPC   C1A12701   3.598   7.417  16.325  0.0151  0.1836  0.0937
 1059POPC   D2A12702   4.030   7.455  16.521  0.1478 -0.0870 -0.2112
 1059POPC   C3A12703   4.154   7.365  16.954 -0.3084 -0.1618 -0.1803
 1059POPC   C4A12704   4.517   7.497  17.250 -0.1721  0.1686  0.1337
 1059POPC   C1B12705   3.783   6.961  16.463 -0.0286  0.2505  0.0487
 1059POPC   C2B12706   4.129   6.891  16.814  0.0686  0.2552 -0.0696
 1059POPC   C3B12707   4.240   6.994  17.312 -0.0111  0.1303  0.1267
 1059POPC   C4B12708   4.619   7.063  17.643 -0.0572 -0.1064  0.0003
 1060POPC   NC312709  13.959   4.456  13.576 -0.5182  0.2850  0.1630
 1060POPC   PO412710  13.927   4.652  13.240 -0.1620 -0.2197 -0.0896
 1060POPC   GL112711  13.636   4.530  13.011 -0.2228 -0.0619 -0.3265
 1060POPC   GL212712  13.558   4.279  13.183  0.3954  0.2188  0.2753
 1060POPC   C1A12713  13.172   4.694  13.186  0.1423  0.2491  0.1740
 1060POPC   D2A12714  12.857   4.840  13.510  0.1576 -0.0986  0.1217
 1060POPC   C3A12715  12.623   5.235  13.390  0.1088  0.2674  0.3307
 1060POPC   C4A12716  12.428   5.428  12.987 -0.3701  0.1814  0.1177
 1060POPC   C1B12717  13.451   4.414  13.640  0.1968  0.1448  0.0088
 1060POPC   C2B12718  13.134   4.696  13.901 -0.3256  0.2510 -0.1126
 1060POPC   C3B12719  12.684   4.497  13.927  0.2481 -0.1740 -0.4984
 1060POPC   C4B12720  12.253   4.360  14.068 -0.1830  0.0179  0.2239
 1061POPC   NC312721   2.581  10.926  16.365 -0.0383 -0.0498 -0.2651
 1061POPC   PO412722   2.813  10.640  16.251 -0.2763  0.0936  0.0727
 1061POPC   GL112723   2.711  10.548  16.650 -0.3283 -0.1782 -0.1370
 1061POPC   GL212724   2.952  10.656  16.824  0.0444 -0.2162  0.4086
 1061POPC   C1A12725   2.600  10.486  17.142  0.0285  0.0552  0.0122
 1061POPC   D2A12726   2.383  10.196  17.371 -0.1698  0.2119 -0.0811
 1061POPC   C3A12727   2.232  10.177  17.807 -0.1990 -0.3195 -0.0906
 1061POPC   C4A12728   2.296   9.887  18.144  0.1525  0.0097  0.0659
 1061POPC   C1B12729   3.084  10.525  17.262  0.0593  0.3201  0.2413
 1061POPC   C2B12730   3.210  10.393  17.741  0.2477 -0.0774  0.0401
 1061POPC   C3B12731   3.082  10.502  18.168 -0.1627 -0.1137 -0.1499
 1061POPC   C4B12732   3.158  10.877  18.338 -0.2527  0.2072 -0.3173
 1062POPC   NC312733   8.434   0.408  14.533 -0.0624 -0.0854  0.0478
 1062POPC   PO412734   8.044   0.490  14.460 -0.1501  0.0060  0.1987
 1062POPC   GL112735   7.951   0.699  14.774 -0.1645  0.3289 -0.0704
 1062POPC   GL212736   7.815   0.944  14.774 -0.0196 -0.1507 -0.1666
 1062POPC   C1A12737   8.128   0.392  15.174  0.0067 -0.3096 -0.1386
 1062POPC   D2A12738   8.156   0.584  15.569 -0.0525 -0.4669  0.1381
 1062POPC   C3A12739   8.218   0.334  15.931 -0.0670 -0.3056 -0.0667
 1062POPC   C4A12740   8.224   0.025  16.307 -0.1052  0.0749 -0.0191
 1062POPC   C1B12741   7.943   0.932  15.202 -0.2334  0.2364 -0.2189
 1062POPC   C2B12742   7.680   0.806  15.591 -0.0593  0.1182 -0.0917
 1062POPC   C3B12743   7.541   1.121  15.944  0.0952  0.1162  0.0058
 1062POPC   C4B12744   7.824   1.459  16.066 -0.1845 -0.2727  0.0767
 1063POPC   NC312745   0.323   4.572  15.270  0.1497  0.2084 -0.3034
 1063POPC   PO412746   0.237   4.182  15.217  0.1557 -0.1123  0.0973
 1063POPC   GL112747   0.188   4.220  15.592 -0.0540 -0.6342  0.4111
 1063POPC   GL212748  -0.038   4.408  15.624 -0.2121  0.0504  0.1060
 1063POPC   C1A12749   0.319   4.084  16.015  0.0454 -0.1551  0.2606
 1063POPC   D2A12750   0.576   4.040  16.413  0.1111  0.0986 -0.0093
 1063POPC   C3A12751   0.363   4.104  16.789 -0.1842 -0.0951  0.3321
 1063POPC   C4A12752   0.235   4.117  17.219 -0.1334  0.0945 -0.0090
 1063POPC   C1B12753  -0.311   4.368  15.942 -0.2148 -0.1273 -0.0574
 1063POPC   C2B12754  -0.359   4.526  16.377 -0.0003 -0.1723  0.5692
 1063POPC   C3B12755  -0.123   4.762  16.686 -0.0155 -0.0909  0.1379
 1063POPC   C4B12756   0.116   5.077  16.870  0.0480  0.1159 -0.3045
 1064POPC   NC312757   5.634  10.356  15.644 -0.1542  0.1900  0.3109
 1064POPC   PO412758   5.940  10.570  15.655 -0.1917 -0.1004  0.0051
 1064POPC   GL112759   5.988  10.429  15.946  0.1016  0.3437  0.1251
 1064POPC   GL212760   5.987  10.099  15.936  0.0943 -0.0441 -0.0776
 1064POPC   C1A12761   6.255  10.501  16.317 -0.0089  0.2758  0.0292
 1064POPC   D2A12762   6.376  10.351  16.728 -0.0982 -0.0644 -0.0028
 1064POPC   C3A12763   6.244  10.444  17.167 -0.0275  0.0154  0.1731
 1064POPC   C4A12764   6.188  10.258  17.587 -0.1484  0.2847  0.2142
 1064POPC   C1B12765   6.160   9.978  16.388  0.1436 -0.1806 -0.2430
 1064POPC   C2B12766   6.095   9.728  16.745  0.4576  0.0408 -0.1117
 1064POPC   C3B12767   6.235   9.530  17.134 -0.1508 -0.1716  0.0177
 1064POPC   C4B12768   6.455   9.390  17.483 -0.1435  0.1945 -0.0252
 1065POPC   NC312769   5.409  10.762  15.607  0.2959 -0.0698 -0.1435
 1065POPC   PO412770   5.249  11.062  15.800  0.2199  0.1162 -0.0868
 1065POPC   GL112771   5.372  10.850  16.090 -0.1175 -0.0650  0.0915
 1065POPC   GL212772   5.613  10.656  16.061  0.1140  0.1357  0.1323
 1065POPC   C1A12773   5.662  10.870  16.474  0.2835 -0.1460  0.2307
 1065POPC   D2A12774   6.001  10.664  16.780 -0.0271 -0.2556 -0.0704
 1065POPC   C3A12775   5.756  10.539  17.177 -0.2518  0.2161 -0.1322
 1065POPC   C4A12776   5.686  10.489  17.597 -0.0028 -0.3736 -0.0891
 1065POPC   C1B12777   5.792  10.342  16.378  0.0942  0.5550  0.0616
 1065POPC   C2B12778   5.833  10.204  16.786 -0.0934 -0.1132 -0.2480
 1065POPC   C3B12779   5.980  10.036  17.146 -0.2800 -0.0332 -0.2197
 1065POPC   C4B12780   5.852   9.685  17.371 -0.0680 -0.0938 -0.0823
 1066POPC   NC312781  14.155   1.472   9.071 -0.1617  0.1747  0.0908
 1066POPC   PO412782  13.836   1.348   9.261  0.0378  0.0222  0.1402
 1066POPC   GL112783  13.577   1.178   8.972 -0.0452 -0.2010  0.1137
 1066POPC   GL212784  13.623   1.441   8.808  0.2430  0.0017  0.0595
 1066POPC   C1A12785  13.294   1.043   8.598  0.1268 -0.1033  0.3648
 1066POPC   D2A12786  12.994   1.111   8.201 -0.0185 -0.3364  0.0697
 1066POPC   C3A12787  12.760   1.413   7.938 -0.0241 -0.3241  0.2608
 1066POPC   C4A12788  12.444   1.771   7.915 -0.1378  0.0127 -0.2587
 1066POPC   C1B12789  13.475   1.883   8.748  0.4059  0.1957  0.2675
 1066POPC   C2B12790  13.362   2.323   8.653  0.2125 -0.1860  0.0427
 1066POPC   C3B12791  13.056   2.705   8.564 -0.1889  0.3098 -0.2146
 1066POPC   C4B12792  12.685   2.931   8.444 -0.0007  0.0797  0.1148
 1067POPC   NC312793  10.653   1.010  10.594 -0.0760  0.3555 -0.1235
 1067POPC   PO412794  10.601   1.066  10.973  0.0074  0.0561  0.1491
 1067POPC   GL112795  10.416   1.374  10.809 -0.1315 -0.1384  0.0469
 1067POPC   GL212796  10.365   1.666  10.891  0.1901 -0.0802  0.1536
 1067POPC   C1A12797  10.373   1.494  10.363 -0.1122  0.0326 -0.2187
 1067POPC   D2A12798  10.182   1.838  10.146  0.2300  0.2863  0.1406
 1067POPC   C3A12799  10.418   2.139   9.897  0.4921  0.1990 -0.0174
 1067POPC   C4A12800  10.695   2.120   9.586 -0.0987 -0.0048 -0.1875
 1067POPC   C1B12801  10.213   2.078  10.645  0.1256  0.1167  0.2361
 1067POPC   C2B12802   9.964   2.302  10.340  0.2062  0.2018  0.1644
 1067POPC   C3B12803  10.029   2.444   9.919 -0.0087  0.0614  0.2299
 1067POPC   C4B12804   9.936   2.813   9.596 -0.2054 -0.0274  0.4384
 1068POPC   NC312805   5.559  11.351  16.126 -0.0769 -0.2323  0.1995
 1068POPC   PO412806   5.903  11.431  15.971 -0.3053 -0.2895 -0.2781
 1068POPC   GL112807   5.899  11.393  16.397  0.0189 -0.2276  0.2061
 1068POPC   GL212808   6.233  11.460  16.519  0.0414  0.3880  0.1323
 1068POPC   C1A12809   5.964  11.239  16.879 -0.1803  0.0694  0.0452
 1068POPC   D2A12810   5.941  10.999  17.243 -0.0454 -0.0486  0.0521
 1068POPC   C3A12811   6.253  10.761  17.537 -0.1293  0.0594 -0.1603
 1068POPC   C4A12812   6.507  10.545  17.862  0.1583 -0.0553 -0.1327
 1068POPC   C1B12813   6.263  11.011  16.622 -0.1100  0.1972  0.3702
 1068POPC   C2B12814   6.466  10.786  16.946  0.0198 -0.0921  0.0249
 1068POPC   C3B12815   6.756  10.378  17.027  0.0726  0.2186 -0.1650
 1068POPC   C4B12816   6.969  10.198  17.373 -0.1075  0.1604 -0.0514
 1069POPC   NC312817  11.076  11.503  10.476 -0.0600  0.0122  0.0165
 1069POPC   PO412818  10.964  11.202  10.688  0.1443 -0.1079 -0.0941
 1069POPC   GL112819  10.857  10.777  10.638 -0.3382  0.1689  0.0476
 1069POPC   GL212820  11.045  10.748  10.466 -0.2092  0.0516 -0.2219
 1069POPC   C1A12821  10.599  10.447  10.858 -0.3105 -0.0571 -0.0797
 1069POPC   D2A12822  10.565   9.975  10.737  0.0282 -0.2918  0.1073
 1069POPC   C3A12823  10.626   9.538  10.680  0.0356  0.0081 -0.0643
 1069POPC   C4A12824  10.774   9.155  10.485 -0.0030  0.2168  0.1769
 1069POPC   C1B12825  10.721  10.468  10.393 -0.0843 -0.2085 -0.1771
 1069POPC   C2B12826  10.465  10.153  10.173 -0.1443  0.2504 -0.0741
 1069POPC   C3B12827  10.106   9.845  10.014  0.1230  0.1321  0.4632
 1069POPC   C4B12828   9.898   9.468   9.946 -0.2973  0.1037  0.5156
 1070POPC   NC312829   2.737  10.148  16.307  0.0787 -0.0680  0.0308
 1070POPC   PO412830   2.355   9.983  16.188 -0.3587 -0.2058 -0.1421
 1070POPC   GL112831   2.404   9.968  16.584  0.1511 -0.1077 -0.0737
 1070POPC   GL212832   2.193   9.764  16.688  0.0953  0.1054 -0.0678
 1070POPC   C1A12833   2.707   9.956  16.933  0.2389  0.1622 -0.0646
 1070POPC   D2A12834   2.813   9.911  17.369 -0.2894 -0.0584 -0.4116
 1070POPC   C3A12835   2.713  10.166  17.741  0.0283  0.1690 -0.2771
 1070POPC   C4A12836   2.540  10.363  18.151 -0.0815  0.1505  0.0329
 1070POPC   C1B12837   2.347   9.771  17.158  0.4657  0.0328 -0.0747
 1070POPC   C2B12838   2.390   9.698  17.590  0.0184 -0.2128  0.1718
 1070POPC   C3B12839   2.610   9.542  17.950 -0.0525  0.0219  0.0808
 1070POPC   C4B12840   2.856   9.384  18.396 -0.3349 -0.1123  0.1453
 1071POPC   NC312841  16.400  11.880  16.463  0.3265 -0.0852 -0.2933
 1071POPC   PO412842  16.681  11.820  16.715  0.0674  0.1116 -0.0077
 1071POPC   GL112843  16.663  11.752  17.109  0.0899 -0.3922 -0.1785
 1071POPC   GL212844  16.765  11.485  17.088 -0.0725 -0.4781 -0.3897
 1071POPC   C1A12845  16.829  11.832  17.551 -0.0909  0.2278  0.1720
 1071POPC   D2A12846  16.857  11.864  17.998  0.0964 -0.0316  0.1978
 1071POPC   C3A12847  17.072  11.742  18.339  0.2270  0.2085 -0.0277
 1071POPC   C4A12848  17.010  11.576  18.818 -0.1172  0.3199  0.0144
 1071POPC   C1B12849  16.761  11.335  17.531  0.1168 -0.2864  0.1827
 1071POPC   C2B12850  16.800  11.298  17.965 -0.1306  0.1159  0.1448
 1071POPC   C3B12851  16.805  11.283  18.397  0.0203 -0.1009 -0.1107
 1071POPC   C4B12852  16.561  11.331  18.813 -0.0391  0.1397 -0.2952
 1072POPC   NC312853   5.298  13.973  16.554 -0.0700 -0.0848 -0.2200
 1072POPC   PO412854   5.513  14.105  16.265 -0.0494  0.0515  0.0124
 1072POPC   GL112855   5.852  14.131  16.629  0.0114 -0.0773 -0.1533
 1072POPC   GL212856   5.838  13.959  16.857  0.0537 -0.0767 -0.2788
 1072POPC   C1A12857   6.195  14.392  16.824  0.0938  0.1953 -0.1947
 1072POPC   D2A12858   6.312  14.812  17.008  0.0770  0.1446  0.0640
 1072POPC   C3A12859   5.991  15.048  17.187 -0.2467 -0.0115 -0.1448
 1072POPC   C4A12860   5.545  14.974  17.307  0.4062  0.2131  0.2165
 1072POPC   C1B12861   5.464  14.153  17.063 -0.0188  0.0713 -0.2526
 1072POPC   C2B12862   5.576  14.354  17.469 -0.0615 -0.0822 -0.2222
 1072POPC   C3B12863   5.299  14.413  17.865  0.1812 -0.1902  0.0894
 1072POPC   C4B12864   5.173  14.532  18.277  0.2558  0.0831  0.1883
 1073POPC   NC312865   9.901  32.755  14.176  0.0844  0.0702  0.0009
 1073POPC   PO412866  10.154  32.937  14.463 -0.0024  0.1533  0.1210
 1073POPC   GL112867  10.335  32.909  14.879  0.1999 -0.1230 -0.0032
 1073POPC   GL212868   9.978  32.958  15.003 -0.1421 -0.3234 -0.0851
 1073POPC   C1A12869  10.445  33.240  15.205 -0.4510  0.0662 -0.0318
 1073POPC   D2A12870  10.315  33.647  15.084  0.1257 -0.0747  0.3161
 1073POPC   C3A12871  10.407  33.805  15.481 -0.0444 -0.0923  0.0319
 1073POPC   C4A12872  10.094  34.110  15.783 -0.0031  0.0201 -0.0725
 1073POPC   C1B12873   9.894  33.284  15.379  0.1714 -0.0078 -0.7026
 1073POPC   C2B12874   9.828  33.684  15.582 -0.1698  0.2917 -0.2256
 1073POPC   C3B12875   9.986  34.106  15.320  0.0319 -0.2198 -0.0296
 1073POPC   C4B12876  10.356  34.286  15.229 -0.1343 -0.0181  0.1842
 1074POPC   NC312877   1.611   1.380  16.139 -0.0057 -0.0067 -0.0030
 1074POPC   PO412878   1.467   1.729  15.991  0.2373  0.0694 -0.1200
 1074POPC   GL112879   1.542   1.815  16.392 -0.1928 -0.4033 -0.0850
 1074POPC   GL212880   1.681   2.027  16.391 -0.0091  0.3016  0.2828
 1074POPC   C1A12881   1.521   1.969  16.839 -0.0637 -0.2080 -0.1894
 1074POPC   D2A12882   1.816   2.156  17.182  0.0568 -0.0717 -0.0941
 1074POPC   C3A12883   1.803   2.406  17.596 -0.4824 -0.0579  0.0591
 1074POPC   C4A12884   1.903   2.642  17.974  0.1433 -0.1828  0.0787
 1074POPC   C1B12885   1.737   2.400  16.681 -0.0750 -0.1576 -0.1687
 1074POPC   C2B12886   1.693   2.686  17.014  0.0237 -0.0065 -0.0401
 1074POPC   C3B12887   1.486   2.770  17.373  0.1672 -0.0588  0.0351
 1074POPC   C4B12888   1.321   3.135  17.584 -0.2901 -0.0939  0.1195
 1075POPC   NC312889   4.655  11.079  16.279  0.1648  0.0828  0.2875
 1075POPC   PO412890   4.715  11.394  16.566 -0.0738  0.0333  0.1950
 1075POPC   GL112891   4.867  11.222  16.876  0.0083  0.1119 -0.0180
 1075POPC   GL212892   4.991  10.996  16.762  0.1041  0.2663  0.0088
 1075POPC   C1A12893   5.081  11.286  17.230  0.0011  0.2143  0.1251
 1075POPC   D2A12894   5.088  11.556  17.616  0.0993 -0.1984 -0.4564
 1075POPC   C3A12895   5.077  11.574  18.066 -0.0631  0.1028 -0.4991
 1075POPC   C4A12896   4.994  11.497  18.528  0.0151  0.0795 -0.0378
 1075POPC   C1B12897   4.964  10.653  17.097  0.1167 -0.1911  0.0497
 1075POPC   C2B12898   5.068  10.478  17.495  0.0759  0.1503  0.0440
 1075POPC   C3B12899   5.300  10.300  17.851 -0.1354  0.0537  0.2747
 1075POPC   C4B12900   5.327   9.993  18.171 -0.0691  0.1191  0.0219
 1076POPC   NC312901   9.441  31.697  15.098 -0.1065 -0.0283  0.2830
 1076POPC   PO412902   9.514  32.092  15.240 -0.2219 -0.4624  0.1358
 1076POPC   GL112903   9.499  32.239  15.592 -0.1166 -0.1025 -0.0493
 1076POPC   GL212904   9.303  32.166  15.788 -0.0872  0.1158  0.0237
 1076POPC   C1A12905   9.440  32.684  15.719 -0.0038 -0.3743  0.0337
 1076POPC   D2A12906   9.496  33.105  16.001  0.3466  0.0117 -0.0113
 1076POPC   C3A12907   9.748  33.067  16.398 -0.1434 -0.0665  0.0792
 1076POPC   C4A12908  10.133  33.070  16.616  0.6770 -0.1712 -0.0872
 1076POPC   C1B12909   9.462  32.423  16.142  0.2069  0.0222 -0.2042
 1076POPC   C2B12910   9.775  32.484  16.476  0.0360 -0.0367  0.2413
 1076POPC   C3B12911   9.829  32.473  16.934  0.1507  0.1313  0.1077
 1076POPC   C4B12912  10.067  32.743  17.213 -0.1251 -0.0912 -0.1069
 1077POPC   NC312913   2.582   9.101  16.520 -0.0456  0.1513  0.0153
 1077POPC   PO412914   2.885   8.878  16.344 -0.2751  0.1556 -0.2300
 1077POPC   GL112915   3.193   8.737  16.559  0.2307  0.1114 -0.0005
 1077POPC   GL212916   3.192   8.506  16.425 -0.0732 -0.0593 -0.0000
 1077POPC   C1A12917   3.500   8.632  16.838 -0.2179  0.3629 -0.0035
 1077POPC   D2A12918   3.834   8.318  16.977  0.0083  0.2041  0.3162
 1077POPC   C3A12919   3.645   8.148  17.351  0.1186 -0.1693 -0.0679
 1077POPC   C4A12920   3.668   7.740  17.635  0.1559  0.1547 -0.0101
 1077POPC   C1B12921   3.515   8.143  16.457 -0.1270  0.1500  0.0252
 1077POPC   C2B12922   3.649   7.782  16.692 -0.1995  0.1965  0.3857
 1077POPC   C3B12923   3.648   7.327  16.830 -0.0625 -0.2575  0.0689
 1077POPC   C4B12924   3.729   7.106  17.258  0.2822  0.0865 -0.1739
 1078POPC   NC312925   4.423  10.210  15.311 -0.0376  0.0256  0.1400
 1078POPC   PO412926   4.284   9.866  15.325  0.0232  0.0591  0.1158
 1078POPC   GL112927   4.220   9.775  15.715  0.0466 -0.0677  0.0434
 1078POPC   GL212928   4.345   9.499  15.674 -0.1902 -0.3767 -0.2470
 1078POPC   C1A12929   4.438   9.918  16.099 -0.2579  0.0216  0.1841
 1078POPC   D2A12930   4.657   9.794  16.424 -0.0148  0.0903 -0.2714
 1078POPC   C3A12931   4.785   9.406  16.546 -0.0478  0.0411  0.2129
 1078POPC   C4A12932   5.164   9.221  16.653 -0.1474  0.1913 -0.1238
 1078POPC   C1B12933   4.356   9.418  16.182  0.1316 -0.0501  0.1059
 1078POPC   C2B12934   4.515   9.047  16.409  0.2200 -0.0701 -0.2911
 1078POPC   C3B12935   4.695   8.965  16.816  0.1823  0.0092 -0.1819
 1078POPC   C4B12936   4.671   8.871  17.282  0.4167  0.0402  0.2047
 1079POPC   NC312937   7.810  12.479  16.250  0.3011  0.2177  0.0919
 1079POPC   PO412938   7.857  12.852  16.296  0.2186 -0.0831 -0.1516
 1079POPC   GL112939   8.048  12.763  16.644 -0.0426  0.0063  0.0546
 1079POPC   GL212940   7.956  12.879  16.843  0.0523 -0.2001 -0.0677
 1079POPC   C1A12941   8.057  12.455  16.985  0.0028 -0.0982 -0.2756
 1079POPC   D2A12942   8.494  12.389  17.057 -0.0501 -0.0850 -0.0190
 1079POPC   C3A12943   8.554  12.583  17.443 -0.1402 -0.0256 -0.2099
 1079POPC   C4A12944   8.832  12.422  17.813 -0.0162  0.5776  0.4761
 1079POPC   C1B12945   7.999  12.810  17.347  0.0339 -0.0094 -0.0052
 1079POPC   C2B12946   8.200  12.896  17.788 -0.0418 -0.0560 -0.1224
 1079POPC   C3B12947   8.497  12.658  18.087 -0.2812  0.0293 -0.1019
 1079POPC   C4B12948   8.777  12.341  18.303  0.0349 -0.1681  0.0106
 1080POPC   NC312949   9.129  10.596  14.248 -0.3559  0.4356 -0.2491
 1080POPC   PO412950   8.816  10.500  14.030  0.1080 -0.2133 -0.1449
 1080POPC   GL112951   8.739  10.059  14.138 -0.1385 -0.1128  0.1156
 1080POPC   GL212952   9.001   9.979  14.012 -0.3851  0.1678 -0.2117
 1080POPC   C1A12953   8.788   9.681  14.475 -0.1579  0.1964 -0.2678
 1080POPC   D2A12954   8.975   9.224  14.446  0.0218  0.1902  0.1491
 1080POPC   C3A12955   8.740   8.862  14.521  0.0528 -0.1545  0.3089
 1080POPC   C4A12956   8.663   8.455  14.772 -0.0434  0.0733  0.1613
 1080POPC   C1B12957   9.030   9.490  14.008 -0.0583 -0.0578 -0.0003
 1080POPC   C2B12958   9.050   9.158  13.674  0.0106 -0.1364 -0.1290
 1080POPC   C3B12959   8.989   8.850  13.332 -0.1581 -0.1379  0.2875
 1080POPC   C4B12960   9.182   8.742  12.958 -0.3076 -0.2833 -0.1842
 1081POPC   NC312961   9.895  15.321  15.788 -0.2725  0.2297  0.2071
 1081POPC   PO412962   9.803  15.632  15.594  0.2566 -0.0384  0.2622
 1081POPC   GL112963   9.659  15.681  15.997  0.0565 -0.5160  0.1120
 1081POPC   GL212964   9.497  15.404  16.052 -0.0735 -0.0124 -0.2692
 1081POPC   C1A12965   9.701  16.044  16.276  0.1064  0.0728  0.0990
 1081POPC   D2A12966   9.690  16.482  16.483  0.0648  0.2914 -0.1551
 1081POPC   C3A12967   9.429  16.624  16.813  0.0398  0.0464 -0.0307
 1081POPC   C4A12968   9.309  16.528  17.249  0.0201 -0.0389  0.0669
 1081POPC   C1B12969   9.483  15.596  16.495 -0.1157  0.0661  0.1657
 1081POPC   C2B12970   9.373  15.538  16.906 -0.0633  0.0778 -0.3225
 1081POPC   C3B12971   9.407  15.640  17.392  0.1196  0.0485  0.2635
 1081POPC   C4B12972   9.548  15.545  17.788 -0.3706 -0.0324 -0.0413
 1082POPC   NC312973   4.982   1.975  14.934  0.0934  0.1105  0.0622
 1082POPC   PO412974   4.775   2.006  14.603  0.0231 -0.1194  0.1010
 1082POPC   GL112975   4.955   2.392  14.713  0.3825  0.1013 -0.0697
 1082POPC   GL212976   4.790   2.618  14.694 -0.1031  0.0039 -0.2041
 1082POPC   C1A12977   5.335   2.357  14.930  0.0733  0.0265  0.1618
 1082POPC   D2A12978   5.667   2.722  15.051  0.0127  0.1965  0.2457
 1082POPC   C3A12979   5.915   3.127  14.997 -0.1054  0.0073 -0.1104
 1082POPC   C4A12980   6.181   3.383  14.749  0.0941  0.0405 -0.1368
 1082POPC   C1B12981   4.887   2.770  15.127  0.1609 -0.2371 -0.0986
 1082POPC   C2B12982   5.067   3.068  15.408  0.0873 -0.2647 -0.0522
 1082POPC   C3B12983   5.328   3.363  15.621 -0.0288 -0.1219 -0.0521
 1082POPC   C4B12984   5.550   3.562  15.971  0.1282 -0.0919 -0.0862
 1083POPC   NC312985  14.939   9.738  16.026  0.2400 -0.1828  0.0674
 1083POPC   PO412986  15.134   9.727  16.361 -0.5123  0.0038  0.0417
 1083POPC   GL112987  15.068   9.820  16.820 -0.0856 -0.0235 -0.0362
 1083POPC   GL212988  15.399   9.739  16.783 -0.2775 -0.5266 -0.3885
 1083POPC   C1A12989  14.993   9.659  17.327  0.0907 -0.0318  0.2899
 1083POPC   D2A12990  15.093   9.640  17.803 -0.0161  0.2936 -0.0115
 1083POPC   C3A12991  15.065   9.364  18.186  0.0329  0.1717  0.0338
 1083POPC   C4A12992  14.966   9.185  18.605 -0.1688  0.1521  0.0579
 1083POPC   C1B12993  15.348   9.357  17.047  0.0707 -0.2368 -0.3506
 1083POPC   C2B12994  15.401   9.371  17.466 -0.0838 -0.1910  0.1552
 1083POPC   C3B12995  15.468   9.314  17.911  0.0458  0.2886  0.1959
 1083POPC   C4B12996  15.569   9.167  18.371  0.0356  0.2193 -0.0929
 1084POPC   NC312997   6.935  12.029  16.154 -0.1312 -0.3934  0.0630
 1084POPC   PO412998   6.958  12.323  16.488 -0.0660  0.1843  0.1277
 1084POPC   GL112999   7.112  12.212  16.881 -0.1525 -0.0922 -0.2993
 1084POPC   GL213000   6.841  12.106  16.933 -0.1473  0.1124 -0.0509
 1084POPC   C1A13001   7.298  12.274  17.248 -0.0349  0.2059 -0.2596
 1084POPC   D2A13002   7.623  12.308  17.560  0.0587  0.1344 -0.1229
 1084POPC   C3A13003   8.090  12.357  17.566  0.0133 -0.0714  0.0292
 1084POPC   C4A13004   8.379  12.176  17.833 -0.1077 -0.2770 -0.3417
 1084POPC   C1B13005   6.742  11.935  17.340 -0.2114  0.0659 -0.0920
 1084POPC   C2B13006   6.522  11.791  17.671 -0.1402  0.0793  0.1925
 1084POPC   C3B13007   6.501  11.528  18.071  0.0045  0.0152 -0.0771
 1084POPC   C4B13008   6.556  11.295  18.415 -0.2318  0.4133  0.2722
 1085POPC   NC313009   1.731  13.814  16.324  0.0946 -0.1140 -0.0090
 1085POPC   PO413010   1.436  13.875  16.583 -0.1628  0.1484  0.0910
 1085POPC   GL113011   1.360  13.832  17.095 -0.0654 -0.1317 -0.0324
 1085POPC   GL213012   1.601  14.006  17.215 -0.1835  0.1838 -0.0649
 1085POPC   C1A13013   1.227  13.925  17.487  0.0733 -0.2288  0.3084
 1085POPC   D2A13014   1.241  13.870  17.974  0.0107 -0.1796  0.0575
 1085POPC   C3A13015   0.959  13.719  18.284 -0.0405  0.2226 -0.0133
 1085POPC   C4A13016   0.617  13.872  18.583  0.0948 -0.2962  0.2753
 1085POPC   C1B13017   1.669  14.038  17.652 -0.0160 -0.0002 -0.0764
 1085POPC   C2B13018   1.702  13.947  18.142 -0.2625 -0.1405  0.2338
 1085POPC   C3B13019   1.397  14.021  18.431  0.3162  0.0071  0.2739
 1085POPC   C4B13020   1.060  14.087  18.676  0.4639 -0.1666  0.1020
 1086POPC   NC313021  13.383  11.362  16.825  0.1197 -0.0682 -0.0695
 1086POPC   PO413022  13.116  11.658  16.797  0.1121  0.0086 -0.0876
 1086POPC   GL113023  12.993  11.672  17.148 -0.1004 -0.0940  0.1452
 1086POPC   GL213024  12.968  11.963  17.153  0.0261  0.0707 -0.1683
 1086POPC   C1A13025  12.711  11.469  17.459 -0.2360 -0.1032  0.1246
 1086POPC   D2A13026  12.644  11.259  17.824 -0.3529  0.0057  0.0153
 1086POPC   C3A13027  12.464  10.828  17.929 -0.1785 -0.3468 -0.3993
 1086POPC   C4A13028  12.441  10.337  18.086  0.1221  0.1942 -0.1587
 1086POPC   C1B13029  12.937  12.091  17.601 -0.0514 -0.0442 -0.0355
 1086POPC   C2B13030  12.809  12.264  18.041  0.2475  0.0646  0.1237
 1086POPC   C3B13031  12.853  12.321  18.458  0.3267 -0.0095 -0.1017
 1086POPC   C4B13032  12.943  12.630  18.820  0.2398 -0.0403  0.0208
 1087POPC   NC313033   6.542  13.045  16.221 -0.2187 -0.0404  0.0169
 1087POPC   PO413034   6.348  12.694  16.206  0.0310  0.0177  0.0595
 1087POPC   GL113035   6.530  12.528  16.551 -0.2945  0.0308  0.1909
 1087POPC   GL213036   6.584  12.774  16.664 -0.1834  0.0931 -0.1697
 1087POPC   C1A13037   6.424  12.371  17.014  0.1622  0.0877 -0.1221
 1087POPC   D2A13038   6.300  12.038  17.241  0.3661  0.2701  0.3642
 1087POPC   C3A13039   6.040  12.024  17.614 -0.1443 -0.1921  0.2588
 1087POPC   C4A13040   5.825  12.227  17.934  0.5422  0.3944 -0.2242
 1087POPC   C1B13041   6.489  12.874  17.071  0.1167 -0.1648  0.0105
 1087POPC   C2B13042   6.442  13.284  17.302 -0.0684 -0.0374 -0.3126
 1087POPC   C3B13043   6.683  13.531  17.611 -0.0171  0.2374 -0.1583
 1087POPC   C4B13044   6.912  13.531  18.013  0.3256 -0.0883  0.1945
 1088POPC   NC313045   2.050   7.134  16.494 -0.4010 -0.3094 -0.0449
 1088POPC   PO413046   2.402   7.163  16.375  0.3591 -0.1018  0.1696
 1088POPC   GL113047   2.480   6.941  16.705  0.3622 -0.0014  0.1391
 1088POPC   GL213048   2.714   7.175  16.746 -0.6520  0.1690 -0.1148
 1088POPC   C1A13049   2.863   6.685  16.922  0.0321  0.0735 -0.1775
 1088POPC   D2A13050   3.174   6.685  17.269 -0.0205  0.1462 -0.1502
 1088POPC   C3A13051   3.253   7.143  17.494 -0.4534 -0.2579 -0.2783
 1088POPC   C4A13052   3.534   7.312  17.850 -0.1132 -0.0107 -0.0278
 1088POPC   C1B13053   2.344   7.080  17.082 -0.3461 -0.5193 -0.0820
 1088POPC   C2B13054   2.095   6.977  17.424 -0.2652  0.0045 -0.0578
 1088POPC   C3B13055   2.276   6.772  17.841 -0.2368 -0.2030 -0.1756
 1088POPC   C4B13056   2.476   6.953  18.220 -0.2246 -0.0780  0.1162
 1089POPC   NC313057  12.766  11.221   9.918 -0.1240  0.2716  0.1396
 1089POPC   PO413058  12.872  10.831   9.953 -0.0872  0.0312  0.3355
 1089POPC   GL113059  12.972  10.782   9.556  0.0658 -0.1402 -0.1693
 1089POPC   GL213060  12.611  10.653   9.559  0.1231  0.0086  0.0678
 1089POPC   C1A13061  12.881  10.366   9.327  0.1228  0.0775 -0.0553
 1089POPC   D2A13062  13.099  10.133   8.973 -0.1898 -0.0173  0.0690
 1089POPC   C3A13063  12.999   9.772   8.723 -0.4800  0.0827 -0.1318
 1089POPC   C4A13064  13.125   9.329   8.733 -0.0784 -0.1832 -0.2437
 1089POPC   C1B13065  12.413  10.455   9.225  0.2780 -0.0960 -0.0601
 1089POPC   C2B13066  12.278  10.273   8.804 -0.0924 -0.2307  0.0385
 1089POPC   C3B13067  12.292  10.427   8.343 -0.1899 -0.1596  0.3830
 1089POPC   C4B13068  12.478  10.387   7.886 -0.0162  0.0503  0.3213
 1090POPC   NC313069  15.492   5.402  15.062 -0.0009  0.2119  0.0407
 1090POPC   PO413070  15.130   5.281  15.055  0.0902  0.0308  0.0708
 1090POPC   GL113071  14.731   5.400  15.080  0.1780 -0.2390 -0.0937
 1090POPC   GL213072  14.586   5.411  14.898  0.1832 -0.0622  0.0130
 1090POPC   C1A13073  14.534   5.630  15.415 -0.0230  0.1751  0.3525
 1090POPC   D2A13074  14.531   5.535  15.872  0.0973  0.0306 -0.1131
 1090POPC   C3A13075  14.472   5.194  16.145 -0.0615 -0.1418  0.0308
 1090POPC   C4A13076  14.152   5.051  16.396  0.2336  0.0551  0.1185
 1090POPC   C1B13077  14.300   5.131  15.161 -0.0342  0.0234 -0.0310
 1090POPC   C2B13078  14.209   4.773  15.437  0.1700 -0.2929 -0.2054
 1090POPC   C3B13079  14.129   4.289  15.452  0.4124  0.0357 -0.2143
 1090POPC   C4B13080  13.911   3.888  15.553  0.2783  0.0012 -0.1684
 1091POPC   NC313081  11.632  11.988   9.276  0.1080 -0.1365  0.0285
 1091POPC   PO413082  11.641  11.744   9.554 -0.1466  0.2093  0.3078
 1091POPC   GL113083  11.716  11.547   9.183 -0.2878  0.0152 -0.2154
 1091POPC   GL213084  11.417  11.460   9.174  0.1448 -0.0106 -0.0059
 1091POPC   C1A13085  11.830  11.119   9.046 -0.0350  0.2751  0.0976
 1091POPC   D2A13086  11.722  10.745   9.222 -0.0210  0.0486  0.0311
 1091POPC   C3A13087  11.654  10.351   9.034 -0.1373 -0.2304  0.0127
 1091POPC   C4A13088  11.327  10.064   8.953 -0.2751  0.3411  0.0686
 1091POPC   C1B13089  11.341  10.987   9.070  0.0697  0.0310 -0.1502
 1091POPC   C2B13090  11.338  10.676   8.683  0.0066 -0.2868 -0.0040
 1091POPC   C3B13091  11.560  10.280   8.509  0.1288 -0.3156  0.0645
 1091POPC   C4B13092  11.804  10.129   8.151  0.1874  0.3314 -0.2256
 1092POPC   NC313093  14.581   0.528  15.151  0.1309  0.0552 -0.0439
 1092POPC   PO413094  14.803   0.877  15.215 -0.0359  0.3401 -0.1653
 1092POPC   GL113095  14.767   0.924  15.642  0.0522 -0.0223  0.0685
 1092POPC   GL213096  14.776   1.195  15.608  0.1421  0.1469  0.2431
 1092POPC   C1A13097  14.476   1.072  15.968 -0.0085  0.0589  0.0564
 1092POPC   D2A13098  14.418   1.346  16.332  0.1214  0.0316  0.1937
 1092POPC   C3A13099  14.146   1.374  16.707 -0.0003 -0.0549 -0.0124
 1092POPC   C4A13100  13.849   1.433  17.032 -0.0966  0.0714  0.0977
 1092POPC   C1B13101  14.589   1.575  15.812  0.1280 -0.0898  0.3083
 1092POPC   C2B13102  14.485   1.819  16.178 -0.1449 -0.3759 -0.0045
 1092POPC   C3B13103  14.340   1.798  16.557  0.0217 -0.1635  0.1645
 1092POPC   C4B13104  14.268   1.762  17.002 -0.1219  0.3283  0.0423
 1093POPC   NC313105   6.695  16.277  15.341 -0.0671  0.1221  0.0610
 1093POPC   PO413106   6.998  16.399  15.117 -0.1151  0.1839 -0.0183
 1093POPC   GL113107   7.058  16.557  15.412  0.0601 -0.0443  0.0989
 1093POPC   GL213108   7.033  16.372  15.663 -0.2272  0.1627 -0.3476
 1093POPC   C1A13109   6.651  16.700  15.689  0.1433 -0.1331  0.1544
 1093POPC   D2A13110   6.225  16.650  15.930 -0.2712 -0.2146  0.0918
 1093POPC   C3A13111   6.117  16.721  16.382 -0.2895  0.1569  0.4647
 1093POPC   C4A13112   6.116  16.957  16.797  0.0063 -0.1019 -0.0444
 1093POPC   C1B13113   7.108  16.191  16.034 -0.0647 -0.1949 -0.3645
 1093POPC   C2B13114   7.321  16.354  16.449  0.0818 -0.1825 -0.0617
 1093POPC   C3B13115   7.272  16.721  16.789 -0.0442  0.0355  0.1452
 1093POPC   C4B13116   7.007  17.134  16.802  0.2495 -0.0303  0.1545
 1094POPC   NC313117  13.494   8.026  13.271 -0.0466  0.1824  0.1425
 1094POPC   PO413118  13.495   8.001  12.870 -0.2389  0.1342  0.1456
 1094POPC   GL113119  13.368   7.771  12.575  0.0573 -0.1099  0.0873
 1094POPC   GL213120  13.600   7.756  12.360 -0.0880  0.2135  0.1347
 1094POPC   C1A13121  13.256   7.376  12.527  0.1241  0.1385  0.0662
 1094POPC   D2A13122  13.168   7.038  12.219 -0.0653 -0.2580  0.2557
 1094POPC   C3A13123  12.927   6.627  12.304 -0.2969 -0.1352  0.0597
 1094POPC   C4A13124  12.776   6.294  12.028  0.0567 -0.2588  0.3327
 1094POPC   C1B13125  13.424   7.477  12.048 -0.1042 -0.1982 -0.1713
 1094POPC   C2B13126  13.348   7.473  11.622  0.0544  0.0211 -0.2563
 1094POPC   C3B13127  13.262   7.516  11.206  0.0004  0.1987  0.2658
 1094POPC   C4B13128  12.858   7.437  10.948  0.2280  0.0613  0.1430
 1095POPC   NC313129  12.806   9.502  12.660  0.1226 -0.3149  0.1454
 1095POPC   PO413130  12.531   9.301  12.869 -0.0872  0.2569  0.2836
 1095POPC   GL113131  12.369   9.114  12.549 -0.2707 -0.0382 -0.1523
 1095POPC   GL213132  12.090   9.116  12.653 -0.2373  0.0241 -0.0509
 1095POPC   C1A13133  12.341   8.665  12.386  0.1188 -0.0285 -0.0771
 1095POPC   D2A13134  12.028   8.283  12.427 -0.1620  0.0692 -0.0263
 1095POPC   C3A13135  11.713   8.305  12.078  0.0167 -0.1688 -0.3561
 1095POPC   C4A13136  11.490   8.019  11.763 -0.2014  0.2143  0.0154
 1095POPC   C1B13137  11.872   8.841  12.364 -0.1220  0.2866  0.0323
 1095POPC   C2B13138  11.496   8.612  12.507  0.1749  0.2198 -0.0790
 1095POPC   C3B13139  11.056   8.499  12.478  0.1183  0.2843 -0.0610
 1095POPC   C4B13140  10.627   8.652  12.438  0.0042 -0.3447  0.0622
 1096POPC   NC313141   7.523   0.548  15.091 -0.2433 -0.0264 -0.0259
 1096POPC   PO413142   7.272   0.233  15.168  0.0112  0.0531  0.1383
 1096POPC   GL113143   7.366   0.326  15.521 -0.1215  0.0926  0.0313
 1096POPC   GL213144   7.204   0.580  15.569 -0.2832 -0.1930 -0.0214
 1096POPC   C1A13145   7.706   0.381  15.838  0.0529 -0.0448  0.1160
 1096POPC   D2A13146   7.758   0.178  16.232 -0.1298  0.1061 -0.2484
 1096POPC   C3A13147   7.957   0.431  16.505 -0.1284  0.1035 -0.0862
 1096POPC   C4A13148   8.335   0.504  16.785 -0.0067 -0.1079  0.0530
 1096POPC   C1B13149   7.126   0.817  15.887  0.0240  0.1318 -0.3280
 1096POPC   C2B13150   7.096   1.136  16.204  0.0967 -0.1219 -0.0965
 1096POPC   C3B13151   7.126   1.497  16.428 -0.0566  0.1477  0.1221
 1096POPC   C4B13152   6.902   1.737  16.725 -0.3372 -0.0137  0.0383
 1097POPC   NC313153   2.222   3.625  15.942  0.0450  0.2963  0.0632
 1097POPC   PO413154   2.292   3.962  15.741 -0.4307  0.4967  0.1701
 1097POPC   GL113155   2.350   4.095  15.973 -0.0870  0.1723 -0.1061
 1097POPC   GL213156   2.118   4.116  16.151 -0.1238  0.2205  0.1996
 1097POPC   C1A13157   2.549   4.195  16.346 -0.2759  0.3087  0.0471
 1097POPC   D2A13158   2.492   4.127  16.787  0.2814 -0.1073  0.1002
 1097POPC   C3A13159   2.254   4.401  17.039 -0.2850  0.0514  0.4339
 1097POPC   C4A13160   2.400   4.518  17.495 -0.2053  0.2098  0.0949
 1097POPC   C1B13161   2.026   4.079  16.605  0.2592 -0.2626  0.0300
 1097POPC   C2B13162   2.117   3.920  17.055  0.0819 -0.4151  0.2560
 1097POPC   C3B13163   2.366   4.032  17.437  0.3693  0.0018  0.2325
 1097POPC   C4B13164   2.769   4.153  17.674  0.2286  0.0268 -0.2370
 1098POPC   NC313165  15.756   5.808  15.321  0.0794  0.1606 -0.1039
 1098POPC   PO413166  15.945   5.461  15.394 -0.1566 -0.1198 -0.5220
 1098POPC   GL113167  15.597   5.429  15.633  0.0513 -0.1824 -0.0629
 1098POPC   GL213168  15.362   5.642  15.598 -0.0277  0.1570 -0.2911
 1098POPC   C1A13169  15.472   5.424  16.068 -0.1048 -0.0954 -0.3355
 1098POPC   D2A13170  15.273   5.234  16.448  0.0508 -0.3466  0.3526
 1098POPC   C3A13171  15.338   5.444  16.833 -0.1196 -0.2340 -0.0360
 1098POPC   C4A13172  15.339   5.289  17.216  0.1781  0.0828 -0.0435
 1098POPC   C1B13173  15.059   5.663  15.942 -0.1212  0.0678 -0.1067
 1098POPC   C2B13174  14.868   5.463  16.316 -0.0818  0.3306 -0.1198
 1098POPC   C3B13175  14.457   5.539  16.568 -0.2796  0.1215  0.1467
 1098POPC   C4B13176  14.013   5.662  16.568 -0.0386 -0.0209  0.0471
 1099POPC   NC313177   4.682   8.649  14.190 -0.0434 -0.1438  0.1213
 1099POPC   PO413178   4.569   8.904  14.438  0.3712 -0.1810  0.1270
 1099POPC   GL113179   4.740   8.757  14.700  0.1687 -0.4838  0.3658
 1099POPC   GL213180   4.991   8.687  14.625  0.0228  0.0179 -0.0372
 1099POPC   C1A13181   4.915   8.780  15.123 -0.2902 -0.2355 -0.3689
 1099POPC   D2A13182   5.204   8.632  15.414  0.1523  0.0748  0.0370
 1099POPC   C3A13183   4.900   8.804  15.724 -0.0004  0.2312 -0.3668
 1099POPC   C4A13184   4.508   9.041  15.878 -0.0284 -0.1033  0.0278
 1099POPC   C1B13185   5.250   8.428  14.992 -0.2829  0.0444  0.1336
 1099POPC   C2B13186   5.432   8.025  15.036  0.0884  0.0046 -0.0985
 1099POPC   C3B13187   5.802   7.821  15.264  0.1859 -0.2967  0.0173
 1099POPC   C4B13188   6.244   7.767  15.318 -0.0281  0.2433 -0.2985
 1100POPC   NC313189   6.342   0.119  14.690  0.0797 -0.0174  0.3913
 1100POPC   PO413190   6.601   0.393  14.845 -0.3986 -0.1089  0.0313
 1100POPC   GL113191   6.549   0.761  15.059  0.2750 -0.1009  0.4185
 1100POPC   GL213192   6.575   0.599  15.341 -0.2695 -0.3079 -0.2432
 1100POPC   C1A13193   6.760   1.078  15.294 -0.0768  0.0189 -0.3709
 1100POPC   D2A13194   6.781   1.496  15.407  0.1989 -0.2096  0.1043
 1100POPC   C3A13195   6.881   1.727  15.813  0.0195  0.0782  0.2741
 1100POPC   C4A13196   6.929   1.900  16.240 -0.3125  0.1174 -0.0975
 1100POPC   C1B13197   6.528   0.891  15.696 -0.0213 -0.2677  0.1085
 1100POPC   C2B13198   6.399   0.938  16.152 -0.0593  0.0292 -0.1468
 1100POPC   C3B13199   6.630   0.984  16.545  0.2704  0.2814  0.1901
 1100POPC   C4B13200   6.817   0.819  16.976 -0.1448  0.0126  0.0212
 1101POPC   NC313201  15.987   8.580  15.528 -0.3378 -0.0416 -0.1941
 1101POPC   PO413202  16.089   8.454  15.912 -0.1057 -0.0163 -0.0516
 1101POPC   GL113203  15.960   8.037  16.011  0.4837 -0.3756  0.0270
 1101POPC   GL213204  15.817   8.192  16.242 -0.2771 -0.1673  0.0000
 1101POPC   C1A13205  16.015   7.779  16.450  0.2191 -0.0469 -0.0045
 1101POPC   D2A13206  16.162   7.650  16.860  0.1300 -0.2939 -0.2911
 1101POPC   C3A13207  15.958   7.627  17.274  0.0733 -0.2246  0.0662
 1101POPC   C4A13208  16.082   7.602  17.722 -0.3624  0.0423 -0.3271
 1101POPC   C1B13209  15.824   8.184  16.739  0.0173 -0.1843  0.1692
 1101POPC   C2B13210  15.628   8.069  17.192 -0.4048 -0.3746 -0.0181
 1101POPC   C3B13211  15.603   7.782  17.603  0.0621 -0.1178  0.0197
 1101POPC   C4B13212  15.705   7.641  18.035  0.0138  0.1642 -0.0993
 1102POPC   NC313213  14.166   9.466  15.861 -0.0991 -0.2947  0.3097
 1102POPC   PO413214  13.883   9.661  16.032 -0.2939 -0.2042 -0.0783
 1102POPC   GL113215  13.835   9.594  16.373 -0.1193  0.2494 -0.3187
 1102POPC   GL213216  14.021   9.392  16.469  0.1848  0.1952  0.0990
 1102POPC   C1A13217  13.528   9.813  16.734  0.2776  0.3113 -0.1413
 1102POPC   D2A13218  13.654  10.040  17.112 -0.1040  0.2485  0.0287
 1102POPC   C3A13219  13.454  10.280  17.425  0.1269 -0.4125 -0.2420
 1102POPC   C4A13220  13.169  10.065  17.838 -0.2440 -0.0344  0.0746
 1102POPC   C1B13221  14.083   9.255  16.905 -0.1550 -0.0310  0.0822
 1102POPC   C2B13222  14.225   9.168  17.329  0.0047 -0.0227 -0.0781
 1102POPC   C3B13223  14.444   8.976  17.651  0.1023 -0.2616 -0.4385
 1102POPC   C4B13224  14.650   9.077  18.060  0.2847 -0.1655 -0.0229
 1103POPC   NC313225  32.633  13.176  16.197  0.0337 -0.2118 -0.1510
 1103POPC   PO413226  32.537  13.231  16.576 -0.4981  0.2264 -0.1247
 1103POPC   GL113227  32.678  13.133  16.964  0.0473 -0.0135  0.2408
 1103POPC   GL213228  32.505  13.108  17.179  0.0124 -0.2959  0.4836
 1103POPC   C1A13229  32.831  13.364  17.390  0.0872 -0.2678 -0.0896
 1103POPC   D2A13230  32.891  13.383  17.867  0.0105 -0.0286  0.2975
 1103POPC   C3A13231  32.742  13.742  18.051 -0.0828 -0.0557  0.4797
 1103POPC   C4A13232  32.666  14.180  17.856  0.1053  0.1390 -0.0444
 1103POPC   C1B13233  32.388  13.578  17.214 -0.1322  0.2628  0.2837
 1103POPC   C2B13234  32.339  13.930  17.574 -0.5246  0.1799  0.0247
 1103POPC   C3B13235  32.271  13.948  18.024 -0.0278 -0.1824  0.2499
 1103POPC   C4B13236  31.878  14.043  18.289 -0.0024 -0.1633 -0.0116
 1104POPC   NC313237   8.428  13.615  16.285 -0.1754 -0.3015  0.0048
 1104POPC   PO413238   8.609  13.264  16.127  0.0976 -0.2483 -0.2536
 1104POPC   GL113239   8.726  13.200  16.477 -0.2105 -0.0060  0.0687
 1104POPC   GL213240   8.764  12.900  16.511  0.1775  0.1233  0.2197
 1104POPC   C1A13241   8.585  13.426  16.825 -0.1562 -0.0626 -0.0498
 1104POPC   D2A13242   8.410  13.879  16.763  0.0040  0.1148  0.3572
 1104POPC   C3A13243   8.608  14.077  17.135 -0.1355 -0.0459 -0.0993
 1104POPC   C4A13244   8.649  14.270  17.570  0.0878 -0.2619  0.1255
 1104POPC   C1B13245   8.995  13.061  16.842 -0.2307 -0.1171 -0.0486
 1104POPC   C2B13246   8.879  13.101  17.296  0.1568 -0.0119 -0.2958
 1104POPC   C3B13247   8.696  13.269  17.669 -0.0753 -0.0839 -0.3453
 1104POPC   C4B13248   8.413  13.278  18.061  0.1270 -0.0427 -0.0255
 1105POPC   NC313249   2.571   3.673  15.399  0.0184 -0.0141  0.2900
 1105POPC   PO413250   2.903   3.890  15.393  0.4520  0.0055  0.2495
 1105POPC   GL113251   2.992   3.813  15.732 -0.2672  0.0987 -0.0230
 1105POPC   GL213252   2.716   3.710  15.857 -0.0496 -0.0720  0.3608
 1105POPC   C1A13253   2.996   4.028  16.093  0.0720 -0.6004  0.1138
 1105POPC   D2A13254   2.997   4.053  16.556 -0.1613  0.2562 -0.3571
 1105POPC   C3A13255   3.189   4.462  16.766  0.0734  0.1512  0.1614
 1105POPC   C4A13256   3.561   4.651  17.087 -0.0790  0.4369  0.1071
 1105POPC   C1B13257   2.541   3.724  16.293  0.1541 -0.0102 -0.1390
 1105POPC   C2B13258   2.750   3.550  16.694  0.0680 -0.1939  0.2100
 1105POPC   C3B13259   2.885   3.818  17.058  0.0601 -0.0105 -0.0293
 1105POPC   C4B13260   2.779   4.309  17.116  0.2602  0.0380  0.0895
 1106POPC   NC313261   4.417  12.811   8.247 -0.1870  0.0423  0.0419
 1106POPC   PO413262   4.276  13.129   8.129 -0.1887 -0.2719 -0.2041
 1106POPC   GL113263   4.466  13.123   7.832 -0.1558 -0.1668  0.3362
 1106POPC   GL213264   4.708  13.258   7.891  0.1893 -0.3544 -0.1839
 1106POPC   C1A13265   4.574  12.820   7.467 -0.0324 -0.2011 -0.1685
 1106POPC   D2A13266   4.789  12.630   7.071  0.1820 -0.2116 -0.0481
 1106POPC   C3A13267   5.020  12.423   6.767 -0.1506  0.0530 -0.1984
 1106POPC   C4A13268   4.820  12.127   6.515  0.0693 -0.0095  0.0166
 1106POPC   C1B13269   5.016  12.975   7.677 -0.2230  0.1996 -0.0727
 1106POPC   C2B13270   5.051  12.541   7.513  0.0751  0.0670  0.1674
 1106POPC   C3B13271   5.055  12.194   7.273  0.3232  0.4683  0.3393
 1106POPC   C4B13272   5.032  11.904   6.938  0.3149  0.0181 -0.3576
 1107POPC   NC313273  13.458   0.081  15.175  0.1676  0.0796  0.2568
 1107POPC   PO413274  13.360   0.452  15.079 -0.1780  0.1216  0.0425
 1107POPC   GL113275  13.210   0.788  15.272  0.5348 -0.0931 -0.0092
 1107POPC   GL213276  12.866   0.740  15.234  0.3843  0.1237  0.3762
 1107POPC   C1A13277  13.043   0.947  15.692 -0.1299  0.1013  0.1530
 1107POPC   D2A13278  13.178   1.221  16.077  0.2064 -0.0223 -0.0106
 1107POPC   C3A13279  13.000   1.502  16.403 -0.1701 -0.2053 -0.2634
 1107POPC   C4A13280  12.621   1.749  16.415 -0.1341  0.2431 -0.1510
 1107POPC   C1B13281  12.635   1.095  15.365 -0.0211  0.0614  0.2084
 1107POPC   C2B13282  12.406   1.412  15.634 -0.0428  0.0085 -0.0449
 1107POPC   C3B13283  12.275   1.416  16.088 -0.1645  0.2687  0.1137
 1107POPC   C4B13284  12.100   1.240  16.413 -0.1852 -0.0484 -0.1125
 1108POPC   NC313285   1.788  16.631  16.233 -0.1415 -0.0126  0.3121
 1108POPC   PO413286   1.487  16.558  16.404  0.1394  0.0358  0.0930
 1108POPC   GL113287   1.656  16.603  16.770  0.0079 -0.3195 -0.1223
 1108POPC   GL213288   1.489  16.417  16.974 -0.0458 -0.0787 -0.0042
 1108POPC   C1A13289   1.871  16.812  17.146  0.1901 -0.1144 -0.0834
 1108POPC   D2A13290   2.115  17.044  17.417  0.5964  0.0310  0.1929
 1108POPC   C3A13291   2.227  17.029  17.854  0.0680  0.1546  0.1311
 1108POPC   C4A13292   2.015  17.098  18.257  0.1456 -0.1877  0.0507
 1108POPC   C1B13293   1.553  16.591  17.395 -0.1043  0.1652 -0.2242
 1108POPC   C2B13294   1.826  16.731  17.690  0.2106  0.0401 -0.1286
 1108POPC   C3B13295   1.784  16.666  18.103  0.1743 -0.0684  0.0125
 1108POPC   C4B13296   1.901  16.596  18.551  0.1685  0.0665  0.2439
 1109POPC   NC313297   4.190  12.292  16.780 -0.0469 -0.0976 -0.0774
 1109POPC   PO413298   4.220  12.551  16.485  0.2288 -0.0961 -0.1265
 1109POPC   GL113299   4.404  12.687  16.839  0.0430  0.1372 -0.1530
 1109POPC   GL213300   4.688  12.832  16.941 -0.0981  0.1070  0.0438
 1109POPC   C1A13301   4.453  12.387  17.237 -0.2562  0.0024 -0.1931
 1109POPC   D2A13302   4.649  12.240  17.635  0.2208 -0.1551 -0.0484
 1109POPC   C3A13303   4.575  11.901  17.887  0.1326 -0.0363  0.0397
 1109POPC   C4A13304   4.205  11.631  17.991  0.1199  0.2847 -0.2027
 1109POPC   C1B13305   4.670  12.935  17.417  0.2992 -0.1901  0.0857
 1109POPC   C2B13306   4.564  13.126  17.813  0.0552 -0.0992 -0.2084
 1109POPC   C3B13307   4.557  13.345  18.181 -0.1943 -0.2455  0.0498
 1109POPC   C4B13308   4.233  13.561  18.386 -0.1885 -0.0534 -0.0265
 1110POPC   NC313309   0.852  12.487  16.826 -0.2529  0.0577  0.0912
 1110POPC   PO413310   1.169  12.708  16.794 -0.0190 -0.1695  0.0929
 1110POPC   GL113311   1.061  12.779  17.153 -0.0381  0.0307  0.1174
 1110POPC   GL213312   1.221  13.000  17.191  0.1754  0.1228  0.1435
 1110POPC   C1A13313   1.027  12.624  17.550 -0.0221 -0.1205 -0.0095
 1110POPC   D2A13314   0.662  12.604  17.831 -0.3124  0.1082 -0.1110
 1110POPC   C3A13315   0.582  12.282  18.165 -0.0937 -0.2356  0.1987
 1110POPC   C4A13316   0.423  11.984  18.511  0.3400 -0.0615 -0.4313
 1110POPC   C1B13317   1.241  13.064  17.660  0.2767  0.3535  0.0705
 1110POPC   C2B13318   1.108  13.213  18.049  0.0639  0.0568 -0.1496
 1110POPC   C3B13319   1.214  13.352  18.523 -0.1657  0.0710  0.3113
 1110POPC   C4B13320   1.071  13.624  18.784  0.0769  0.3034  0.3232
 1111POPC   NC313321  13.999   5.402  12.490 -0.2667 -0.1489 -0.4346
 1111POPC   PO413322  13.998   5.791  12.466  0.2966 -0.1289  0.0557
 1111POPC   GL113323  13.610   5.621  12.589  0.1277 -0.0473 -0.0519
 1111POPC   GL213324  13.531   5.586  12.325  0.2819  0.2113  0.1016
 1111POPC   C1A13325  13.251   5.711  12.857 -0.2939 -0.0887  0.1571
 1111POPC   D2A13326  12.906   5.443  13.012  0.1737  0.2808  0.0770
 1111POPC   C3A13327  12.826   5.011  13.050 -0.0484 -0.0750  0.3397
 1111POPC   C4A13328  12.968   4.618  12.758 -0.2636  0.0077  0.0054
 1111POPC   C1B13329  13.406   5.276  11.989 -0.4210 -0.0031 -0.1869
 1111POPC   C2B13330  13.058   5.083  11.696 -0.0143 -0.2418 -0.0281
 1111POPC   C3B13331  12.617   4.983  11.449 -0.0812  0.1649 -0.2194
 1111POPC   C4B13332  12.281   4.926  11.236 -0.0291 -0.0197 -0.0550
 1112POPC   NC313333   5.637   3.709  12.308 -0.2670  0.0661 -0.1749
 1112POPC   PO413334   5.871   3.387  12.290 -0.1483  0.4190  0.3927
 1112POPC   GL113335   6.196   3.522  12.173 -0.2483  0.1651  0.0284
 1112POPC   GL213336   6.059   3.742  11.969  0.0162 -0.4452  0.0617
 1112POPC   C1A13337   6.648   3.546  12.328  0.2362  0.0498 -0.2872
 1112POPC   D2A13338   6.722   3.592  12.776 -0.0043 -0.0671  0.2486
 1112POPC   C3A13339   6.979   3.913  12.921  0.0247  0.0304 -0.3238
 1112POPC   C4A13340   7.262   4.175  13.196  0.2858 -0.1001  0.2290
 1112POPC   C1B13341   6.504   3.712  11.833  0.0525  0.4168  0.0091
 1112POPC   C2B13342   6.935   3.557  11.876  0.0615  0.2149  0.0616
 1112POPC   C3B13343   7.340   3.658  12.058 -0.1727 -0.3137 -0.0111
 1112POPC   C4B13344   7.324   4.077  12.154  0.0927 -0.1208 -0.0803
 1113POPC   NC313345  13.146   8.525  14.969  0.0240  0.0397 -0.1908
 1113POPC   PO413346  13.291   8.694  15.262 -0.3064 -0.1091 -0.0507
 1113POPC   GL113347  13.002   8.651  15.488  0.0294 -0.4030  0.3071
 1113POPC   GL213348  12.744   8.526  15.299 -0.2407 -0.2020  0.1168
 1113POPC   C1A13349  12.829   8.320  15.801 -0.4459  0.0262  0.0499
 1113POPC   D2A13350  12.811   8.001  16.175  0.0920 -0.0432  0.4265
 1113POPC   C3A13351  12.555   7.960  16.547  0.1126  0.2263 -0.0511
 1113POPC   C4A13352  12.279   8.266  16.749 -0.3358  0.1868  0.0104
 1113POPC   C1B13353  12.293   8.358  15.409  0.1170  0.2481 -0.0152
 1113POPC   C2B13354  12.027   8.200  15.746  0.2484  0.1280 -0.1077
 1113POPC   C3B13355  11.856   8.300  16.184  0.0646 -0.1731  0.0722
 1113POPC   C4B13356  11.792   8.196  16.616 -0.3387  0.0676 -0.0624
 1114POPC   NC313357   9.558  14.079  16.189 -0.0006  0.0512 -0.2894
 1114POPC   PO413358   9.871  13.911  16.041 -0.4806  0.2215 -0.2200
 1114POPC   GL113359  10.042  13.979  16.416 -0.5634 -0.0567  0.1967
 1114POPC   GL213360   9.997  13.722  16.477  0.4616 -0.2615  0.1206
 1114POPC   C1A13361   9.707  14.115  16.716 -0.0468 -0.1243 -0.2869
 1114POPC   D2A13362   9.651  14.151  17.152 -0.0033 -0.1394 -0.0541
 1114POPC   C3A13363   9.392  13.846  17.278  0.1377  0.2055 -0.2131
 1114POPC   C4A13364   9.195  13.628  17.576 -0.2936 -0.1398 -0.0287
 1114POPC   C1B13365  10.131  13.932  16.861  0.0851  0.0799  0.0030
 1114POPC   C2B13366  10.197  14.030  17.313  0.0026 -0.0447 -0.2115
 1114POPC   C3B13367  10.315  14.301  17.691 -0.1150  0.1570  0.0264
 1114POPC   C4B13368  10.431  14.409  18.138 -0.0223 -0.0815 -0.0642
 1115POPC   NC313369  13.429   9.585  15.905  0.0823  0.0488  0.0779
 1115POPC   PO413370  13.331   9.703  15.549  0.0679 -0.0446 -0.0916
 1115POPC   GL113371  13.030   9.479  15.663 -0.4021  0.0833 -0.1951
 1115POPC   GL213372  12.759   9.456  15.693  0.1520 -0.0896 -0.1540
 1115POPC   C1A13373  13.005   9.290  16.109 -0.0015  0.0318 -0.1103
 1115POPC   D2A13374  13.012   8.935  16.489  0.2266 -0.3328  0.2578
 1115POPC   C3A13375  12.783   9.000  16.844 -0.1225  0.0027 -0.1266
 1115POPC   C4A13376  12.752   9.162  17.253 -0.1177  0.1181 -0.1472
 1115POPC   C1B13377  12.437   9.155  15.942  0.2687 -0.0462  0.0230
 1115POPC   C2B13378  12.180   9.011  16.323 -0.1237  0.1155 -0.2171
 1115POPC   C3B13379  11.955   8.671  16.496 -0.1172 -0.0124 -0.0405
 1115POPC   C4B13380  11.799   8.642  16.900 -0.1088  0.1438 -0.3123
 1116POPC   NC313381   9.130   1.153  11.569 -0.1013 -0.1114 -0.0297
 1116POPC   PO413382   9.367   1.286  11.855  0.0564 -0.3114 -0.0339
 1116POPC   GL113383   9.319   1.651  11.783  0.2673  0.2140  0.3680
 1116POPC   GL213384   9.554   1.719  11.668  0.2683  0.0017  0.1082
 1116POPC   C1A13385   9.265   2.089  11.833  0.1374 -0.2365 -0.2785
 1116POPC   D2A13386   9.429   2.458  12.071  0.0167  0.2642  0.2459
 1116POPC   C3A13387   9.719   2.856  12.199 -0.1309  0.0258 -0.2091
 1116POPC   C4A13388   9.874   3.248  12.063 -0.1486  0.0994 -0.0807
 1116POPC   C1B13389   9.764   2.077  11.889 -0.1466  0.1465  0.1229
 1116POPC   C2B13390   9.980   2.474  11.900  0.1145 -0.3445  0.0779
 1116POPC   C3B13391  10.221   2.845  11.940  0.0279 -0.0678  0.3282
 1116POPC   C4B13392  10.498   3.151  11.736 -0.2029 -0.3989  0.2671
 1117POPC   NC313393  15.152   7.331  15.578 -0.0599 -0.4434  0.1231
 1117POPC   PO413394  14.931   7.038  15.663  0.1346 -0.1528  0.0331
 1117POPC   GL113395  15.121   7.088  15.970  0.0788  0.0399  0.1614
 1117POPC   GL213396  15.389   7.064  16.096  0.4302  0.1508 -0.0046
 1117POPC   C1A13397  14.921   7.024  16.397 -0.1126  0.1657  0.1383
 1117POPC   D2A13398  14.944   6.793  16.824  0.1460  0.1303  0.1440
 1117POPC   C3A13399  14.589   6.460  17.001 -0.0101  0.2280 -0.0833
 1117POPC   C4A13400  14.571   6.250  17.343  0.4042  0.2822 -0.0018
 1117POPC   C1B13401  15.377   6.869  16.534 -0.3130 -0.0501  0.0336
 1117POPC   C2B13402  15.483   6.810  16.996  0.0032  0.1771 -0.2189
 1117POPC   C3B13403  15.778   6.878  17.348  0.1218  0.2014 -0.0242
 1117POPC   C4B13404  15.841   6.739  17.743 -0.0131 -0.0527  0.2194
 1118POPC   NC313405   2.313   7.614  16.114 -0.2681  0.3474 -0.0911
 1118POPC   PO413406   2.617   7.445  15.966  0.0615 -0.2931  0.0324
 1118POPC   GL113407   2.807   7.197  16.240  0.2059 -0.0084 -0.1949
 1118POPC   GL213408   3.067   7.301  16.290  0.0633 -0.1633  0.1173
 1118POPC   C1A13409   2.946   6.768  16.336 -0.2435  0.0217  0.0611
 1118POPC   D2A13410   3.217   6.386  16.276 -0.2775 -0.1820  0.0580
 1118POPC   C3A13411   3.517   6.465  16.623  0.0757 -0.1580  0.2069
 1118POPC   C4A13412   3.638   6.734  16.947 -0.0297 -0.2596  0.1229
 1118POPC   C1B13413   3.300   7.057  16.540  0.0135 -0.0741 -0.1342
 1118POPC   C2B13414   3.135   7.085  16.963  0.0379  0.0962  0.1928
 1118POPC   C3B13415   2.848   7.066  17.243  0.0257 -0.1856 -0.0415
 1118POPC   C4B13416   2.574   7.297  17.560 -0.0606  0.0022  0.0634
 1119POPC   NC313417  10.815  13.719   9.185 -0.3254 -0.1055  0.0552
 1119POPC   PO413418  11.146  13.558   9.137  0.1014  0.1256 -0.0537
 1119POPC   GL113419  10.994  13.495   8.752 -0.1364  0.5270  0.1363
 1119POPC   GL213420  10.912  13.181   8.701  0.1348 -0.0492 -0.0759
 1119POPC   C1A13421  11.064  13.498   8.262 -0.0633  0.3012 -0.0086
 1119POPC   D2A13422  11.181  13.273   7.853  0.1768  0.2487  0.1091
 1119POPC   C3A13423  11.022  13.421   7.421 -0.2153  0.1346  0.2330
 1119POPC   C4A13424  10.663  13.628   7.206  0.0326 -0.1718 -0.0925
 1119POPC   C1B13425  10.684  12.800   8.548  0.2271 -0.0052  0.1052
 1119POPC   C2B13426  10.438  12.526   8.310  0.0170 -0.1104  0.0373
 1119POPC   C3B13427  10.410  12.248   7.919  0.0712 -0.0854 -0.0649
 1119POPC   C4B13428  10.434  11.841   7.748  0.2061  0.4421  0.2296
 1120POPC   NC313429  12.650   9.621  14.892 -0.2329 -0.0901  0.1282
 1120POPC   PO413430  12.308   9.818  14.882 -0.1541 -0.1999  0.2004
 1120POPC   GL113431  11.983   9.624  15.010  0.4014 -0.1096  0.0067
 1120POPC   GL213432  11.759   9.718  14.686  0.1486 -0.1799  0.0916
 1120POPC   C1A13433  11.557   9.758  15.180  0.0310  0.1180 -0.0341
 1120POPC   D2A13434  11.101   9.809  15.264 -0.0509 -0.1180  0.1531
 1120POPC   C3A13435  10.742   9.719  15.598 -0.0106  0.1414  0.2587
 1120POPC   C4A13436  10.422   9.937  15.846 -0.3165 -0.1188 -0.2585
 1120POPC   C1B13437  11.402   9.711  14.372  0.2039  0.0039 -0.2047
 1120POPC   C2B13438  11.066   9.329  14.357 -0.0991  0.0500  0.0094
 1120POPC   C3B13439  10.920   8.894  14.437  0.0674 -0.4344  0.1768
 1120POPC   C4B13440  10.626   8.539  14.358  0.0591  0.2642  0.3652
 1121POPC   NC313441  13.254   9.361  15.212 -0.0319 -0.2819  0.3283
 1121POPC   PO413442  12.895   9.427  15.206 -0.4665 -0.1017 -0.1656
 1121POPC   GL113443  12.778   9.081  15.481  0.2819  0.0831  0.0221
 1121POPC   GL213444  12.531   9.065  15.498 -0.1237 -0.1156  0.2972
 1121POPC   C1A13445  12.869   8.844  15.864 -0.0071  0.2907 -0.0479
 1121POPC   D2A13446  12.749   8.606  16.239 -0.1120  0.0483 -0.0619
 1121POPC   C3A13447  12.460   8.707  16.597 -0.0974 -0.1144 -0.4785
 1121POPC   C4A13448  12.383   8.678  17.082  0.2618 -0.1865 -0.1809
 1121POPC   C1B13449  12.451   8.665  15.793  0.1621 -0.1740  0.2803
 1121POPC   C2B13450  12.420   8.277  16.080  0.0156 -0.2420 -0.1130
 1121POPC   C3B13451  12.171   7.937  16.266 -0.0407 -0.1577  0.0555
 1121POPC   C4B13452  11.808   7.627  16.248  0.0355 -0.4738  0.1714
 1122POPC   NC313453  12.206  10.294  14.948  0.0510 -0.3564 -0.0523
 1122POPC   PO413454  12.004  10.412  15.300 -0.2022 -0.2690  0.0911
 1122POPC   GL113455  11.710  10.120  15.438  0.2560  0.4030  0.0636
 1122POPC   GL213456  11.422  10.240  15.406  0.2979 -0.1128 -0.2186
 1122POPC   C1A13457  11.404   9.819  15.634  0.0115 -0.1242 -0.0032
 1122POPC   D2A13458  11.139   9.405  15.724  0.1212  0.1593  0.0992
 1122POPC   C3A13459  11.206   9.082  16.093 -0.0371 -0.3495  0.1330
 1122POPC   C4A13460  11.047   8.808  16.467  0.1848 -0.1211  0.0274
 1122POPC   C1B13461  11.307  10.244  15.815 -0.2371  0.0015 -0.0194
 1122POPC   C2B13462  11.282  10.130  16.258 -0.0558  0.0910 -0.0219
 1122POPC   C3B13463  11.067   9.890  16.533  0.2387 -0.0264  0.2957
 1122POPC   C4B13464  10.888   9.641  16.876  0.2593 -0.3091  0.1186
 1123POPC   NC313465  13.541  15.519  15.717  0.1463  0.0972  0.0649
 1123POPC   PO413466  13.285  15.228  15.771  0.2501 -0.1932 -0.0178
 1123POPC   GL113467  13.310  15.526  16.112 -0.4675  0.0052 -0.5904
 1123POPC   GL213468  13.204  15.399  16.369 -0.1445 -0.1931 -0.3978
 1123POPC   C1A13469  13.459  15.947  16.187 -0.0210  0.2886  0.2538
 1123POPC   D2A13470  13.438  16.195  16.550  0.1712  0.0599  0.0789
 1123POPC   C3A13471  13.252  16.393  16.960  0.2174 -0.2421 -0.1497
 1123POPC   C4A13472  12.896  16.570  17.172 -0.0132  0.2493  0.0544
 1123POPC   C1B13473  13.396  15.602  16.718  0.0523  0.2504  0.0441
 1123POPC   C2B13474  13.461  15.916  17.058  0.1843  0.0307  0.0071
 1123POPC   C3B13475  13.653  16.257  17.363 -0.0564 -0.0048 -0.1541
 1123POPC   C4B13476  13.752  16.534  17.725  0.1400  0.3027  0.1176
 1124POPC   NC313477   1.959   4.301  15.689  0.1614 -0.0853  0.0567
 1124POPC   PO413478   1.648   4.388  15.922  0.2806  0.2579 -0.1023
 1124POPC   GL113479   1.462   4.721  16.021 -0.1430 -0.0403  0.0258
 1124POPC   GL213480   1.570   4.840  16.191 -0.0341  0.1129  0.0108
 1124POPC   C1A13481   1.010   4.811  16.145 -0.1233 -0.2091 -0.1966
 1124POPC   D2A13482   0.707   4.434  16.191  0.3921 -0.3096 -0.2682
 1124POPC   C3A13483   0.511   4.567  16.600  0.1658  0.1794  0.4395
 1124POPC   C4A13484   0.279   4.583  16.974 -0.1988 -0.2352 -0.2598
 1124POPC   C1B13485   1.374   4.714  16.633  0.2605  0.2255  0.0703
 1124POPC   C2B13486   1.111   4.568  17.013 -0.0174 -0.3322 -0.2675
 1124POPC   C3B13487   0.654   4.357  17.228  0.0263 -0.6693 -0.0727
 1124POPC   C4B13488   0.323   4.468  17.567 -0.1603 -0.0579 -0.1446
 1125POPC   NC313489   6.164  11.797  16.195  0.1660  0.1948 -0.1265
 1125POPC   PO413490   6.511  11.738  15.960  0.1362  0.1252  0.0606
 1125POPC   GL113491   6.567  11.684  16.360 -0.0317  0.0154 -0.2515
 1125POPC   GL213492   6.760  11.835  16.564 -0.0792  0.0693 -0.0303
 1125POPC   C1A13493   6.683  11.317  16.618  0.3259 -0.2378 -0.2064
 1125POPC   D2A13494   6.867  11.130  17.051  0.0382 -0.1979 -0.1701
 1125POPC   C3A13495   6.716  10.844  17.420 -0.1972 -0.2784 -0.0914
 1125POPC   C4A13496   6.591  11.102  17.768 -0.3611 -0.0947  0.1888
 1125POPC   C1B13497   6.925  11.617  16.936 -0.1681 -0.0442 -0.0727
 1125POPC   C2B13498   7.022  11.490  17.378 -0.0807  0.0450  0.1717
 1125POPC   C3B13499   6.913  11.526  17.848  0.2381  0.0638 -0.1181
 1125POPC   C4B13500   6.931  11.590  18.256 -0.0940  0.1397  0.2396
 1126POPC   NC313501  11.401  12.043  16.259 -0.3360 -0.0897 -0.1893
 1126POPC   PO413502  11.677  11.788  16.159  0.1455  0.0213 -0.1991
 1126POPC   GL113503  11.626  11.533  16.395  0.4542  0.0448  0.1390
 1126POPC   GL213504  11.381  11.387  16.351  0.1228  0.3142 -0.0420
 1126POPC   C1A13505  11.826  11.387  16.799  0.0305  0.0123  0.1331
 1126POPC   D2A13506  11.835  11.306  17.219  0.1935  0.1039 -0.4249
 1126POPC   C3A13507  11.632  10.925  17.416  0.0388 -0.0564  0.1152
 1126POPC   C4A13508  11.701  10.490  17.568 -0.3803 -0.1500 -0.0551
 1126POPC   C1B13509  11.256  11.706  16.663  0.3895 -0.1924  0.0025
 1126POPC   C2B13510  11.000  11.642  16.994  0.3214  0.0828 -0.0675
 1126POPC   C3B13511  10.948  11.581  17.417 -0.0270 -0.1229  0.1649
 1126POPC   C4B13512  10.723  11.506  17.817  0.0507 -0.1921 -0.4261
 1127POPC   NC313513   3.940   9.649  16.050  0.1185 -0.0903 -0.2030
 1127POPC   PO413514   3.547   9.634  16.000  0.2612 -0.2077 -0.1753
 1127POPC   GL113515   3.632   9.697  16.415 -0.0742 -0.0188  0.1536
 1127POPC   GL213516   3.401   9.518  16.543  0.1769 -0.0444  0.6174
 1127POPC   C1A13517   3.768   9.756  16.857 -0.1259  0.3987  0.0375
 1127POPC   D2A13518   4.186   9.795  17.071  0.1872 -0.0070  0.2203
 1127POPC   C3A13519   4.457   9.690  17.374  0.1006 -0.1046  0.1399
 1127POPC   C4A13520   4.798   9.501  17.671 -0.1363 -0.1396 -0.1780
 1127POPC   C1B13521   3.649   9.299  16.887  0.1436  0.0126  0.1188
 1127POPC   C2B13522   3.976   9.355  17.161 -0.2124 -0.1917 -0.0230
 1127POPC   C3B13523   3.996   9.613  17.556  0.0302  0.1361 -0.1865
 1127POPC   C4B13524   3.902   9.639  17.985 -0.0066  0.1742 -0.2218
 1128POPC   NC313525  11.450  13.058  15.788 -0.0926 -0.0835  0.0921
 1128POPC   PO413526  11.566  13.251  16.152  0.1446 -0.0761 -0.1009
 1128POPC   GL113527  11.497  13.182  16.495 -0.0695  0.2374  0.0655
 1128POPC   GL213528  11.786  13.118  16.723 -0.2631 -0.0054 -0.0244
 1128POPC   C1A13529  11.328  13.328  16.902  0.1946  0.3592  0.2638
 1128POPC   D2A13530  11.326  13.339  17.346  0.1393  0.4464 -0.2013
 1128POPC   C3A13531  11.457  12.917  17.568 -0.1855  0.0756  0.1088
 1128POPC   C4A13532  11.525  12.797  18.021 -0.0745 -0.1999 -0.2313
 1128POPC   C1B13533  11.773  13.199  17.164 -0.0041 -0.1215 -0.1402
 1128POPC   C2B13534  11.756  13.276  17.618 -0.2157 -0.3332  0.1768
 1128POPC   C3B13535  11.432  13.323  17.959  0.1250 -0.3067 -0.2156
 1128POPC   C4B13536  11.104  13.638  18.110 -0.2622 -0.4562 -0.1460
 1129POPC   NC313537   0.943   2.955  15.932 -0.0084 -0.3272  0.1175
 1129POPC   PO413538   1.229   2.654  15.963 -0.0772 -0.1114 -0.3678
 1129POPC   GL113539   1.331   2.555  16.321 -0.2032  0.0146 -0.2161
 1129POPC   GL213540   1.537   2.787  16.390 -0.0169  0.0623  0.0299
 1129POPC   C1A13541   1.178   2.354  16.731 -0.1112 -0.1306 -0.2262
 1129POPC   D2A13542   1.286   2.281  17.216  0.2301  0.2930 -0.3101
 1129POPC   C3A13543   1.236   2.106  17.652 -0.0349  0.1265  0.1567
 1129POPC   C4A13544   0.887   2.179  17.893  0.0040 -0.1824  0.2548
 1129POPC   C1B13545   1.269   2.816  16.673  0.1463  0.0307 -0.0299
 1129POPC   C2B13546   1.078   2.723  17.111  0.0137 -0.0491  0.2269
 1129POPC   C3B13547   1.065   2.571  17.568 -0.0690 -0.0186 -0.0490
 1129POPC   C4B13548   1.328   2.522  17.972 -0.2760  0.1474 -0.0704
 1130POPC   NC313549   8.260  10.418  13.481 -0.4368 -0.1872 -0.1965
 1130POPC   PO413550   8.622  10.580  13.449 -0.2142  0.0418  0.1070
 1130POPC   GL113551   8.716  10.199  13.724 -0.2222 -0.1847 -0.1285
 1130POPC   GL213552   8.785  10.070  13.437 -0.1923 -0.0200 -0.4787
 1130POPC   C1A13553   8.596   9.746  13.854  0.1694  0.0578 -0.3136
 1130POPC   D2A13554   8.544   9.368  14.121  0.1963 -0.0260  0.0483
 1130POPC   C3A13555   8.756   9.021  14.012  0.1635  0.1244  0.0127
 1130POPC   C4A13556   8.607   8.834  13.700 -0.1520  0.0409  0.0901
 1130POPC   C1B13557   8.938   9.579  13.458  0.1036  0.0025  0.2577
 1130POPC   C2B13558   9.060   9.320  13.046  0.0018 -0.2213  0.0323
 1130POPC   C3B13559   9.439   9.165  12.830  0.1069 -0.1085  0.1532
 1130POPC   C4B13560   9.390   8.955  12.437 -0.0052  0.0300 -0.0714
 1131POPC   NC313561   2.923   0.972  15.959  0.1159  0.0091  0.0658
 1131POPC   PO413562   2.979   1.233  15.737  0.1497  0.0089  0.1381
 1131POPC   GL113563   2.982   1.406  16.045  0.0675 -0.1621 -0.1136
 1131POPC   GL213564   2.958   1.660  16.044 -0.1356  0.0224  0.1138
 1131POPC   C1A13565   3.338   1.610  16.316 -0.1698  0.3227 -0.1564
 1131POPC   D2A13566   3.485   1.886  16.679 -0.0368 -0.1314  0.1272
 1131POPC   C3A13567   3.507   1.688  17.126  0.0071  0.0337  0.1180
 1131POPC   C4A13568   3.383   1.750  17.561  0.1356  0.0544  0.2557
 1131POPC   C1B13569   3.049   1.933  16.400  0.5231 -0.0926 -0.4422
 1131POPC   C2B13570   3.050   2.242  16.766 -0.0461  0.1830 -0.1247
 1131POPC   C3B13571   3.147   2.224  17.213  0.0046  0.2151 -0.2390
 1131POPC   C4B13572   3.109   2.170  17.643  0.0237  0.1746 -0.3768
 1132POPC   NC313573   7.308  10.047  13.949 -0.0572 -0.3815 -0.0622
 1132POPC   PO413574   7.089  10.203  14.210 -0.0251  0.0882  0.2686
 1132POPC   GL113575   7.203   9.891  14.450  0.2072  0.1370 -0.2506
 1132POPC   GL213576   7.116   9.943  14.708  0.1285  0.0234  0.1805
 1132POPC   C1A13577   7.292   9.439  14.526  0.2528  0.4268 -0.0327
 1132POPC   D2A13578   7.706   9.144  14.686 -0.2989 -0.5570  0.0705
 1132POPC   C3A13579   7.615   8.734  14.790  0.1458 -0.3656 -0.1202
 1132POPC   C4A13580   7.380   8.374  14.885 -0.0713  0.2128 -0.0891
 1132POPC   C1B13581   6.911   9.661  15.001 -0.0579  0.0207 -0.0353
 1132POPC   C2B13582   6.640   9.330  15.196  0.1019  0.0858 -0.3105
 1132POPC   C3B13583   6.722   8.915  15.459 -0.2489 -0.0955  0.0374
 1132POPC   C4B13584   6.744   8.648  15.833 -0.1019 -0.0363 -0.1722
 1133POPC   NC313585   6.984   9.490  11.328 -0.0415 -0.2937  0.2951
 1133POPC   PO413586   6.837   9.807  11.103 -0.0409 -0.0042  0.1184
 1133POPC   GL113587   7.038   9.634  10.844  0.3022 -0.1652 -0.0354
 1133POPC   GL213588   7.141   9.779  10.599 -0.1192  0.1376  0.0006
 1133POPC   C1A13589   7.387   9.330  10.793 -0.0683  0.0109 -0.1857
 1133POPC   D2A13590   7.729   9.061  10.604 -0.1584 -0.1414 -0.3100
 1133POPC   C3A13591   8.101   8.878  10.838 -0.0670  0.2455  0.0356
 1133POPC   C4A13592   8.591   8.722  10.881 -0.0769 -0.0976  0.1373
 1133POPC   C1B13593   7.213   9.732  10.131 -0.0380 -0.0063  0.1526
 1133POPC   C2B13594   7.441   9.587   9.820  0.2782 -0.0620  0.0886
 1133POPC   C3B13595   7.673   9.675   9.435  0.1505  0.0202  0.1336
 1133POPC   C4B13596   7.904   9.968   9.213 -0.0687 -0.1216  0.1832
 1134POPC   NC313597   0.162  13.065  16.643 -0.1710  0.0524  0.0441
 1134POPC   PO413598   0.337  12.806  16.376 -0.0623 -0.0098 -0.2269
 1134POPC   GL113599   0.418  12.678  16.641 -0.0405 -0.1951 -0.1256
 1134POPC   GL213600   0.335  12.415  16.748  0.1198  0.1204  0.0336
 1134POPC   C1A13601  -0.001  12.695  16.917  0.0050  0.2036  0.2314
 1134POPC   D2A13602  -0.423  12.548  17.070  0.1817 -0.1447  0.1079
 1134POPC   C3A13603  -0.511  12.727  17.466  0.1754  0.4078  0.1573
 1134POPC   C4A13604  -0.351  13.017  17.801 -0.1894  0.0899 -0.0634
 1134POPC   C1B13605   0.523  12.183  17.048  0.2109  0.0281  0.3621
 1134POPC   C2B13606   0.911  12.239  17.302  0.2554  0.0959  0.2579
 1134POPC   C3B13607   1.078  12.160  17.693 -0.1505 -0.0643  0.0159
 1134POPC   C4B13608   1.040  12.149  18.144  0.1205  0.0419  0.1680
 1135POPC   NC313609  13.117  32.716  15.614 -0.2788 -0.1132 -0.1223
 1135POPC   PO413610  12.929  32.592  15.312  0.0341  0.1495 -0.2037
 1135POPC   GL113611  12.667  32.694  15.636 -0.0203 -0.0301  0.0427
 1135POPC   GL213612  12.582  32.963  15.484  0.0490  0.0941 -0.2587
 1135POPC   C1A13613  12.276  32.658  15.816  0.1932 -0.0690  0.5211
 1135POPC   D2A13614  12.089  32.837  16.191  0.1133 -0.1778  0.3417
 1135POPC   C3A13615  12.121  33.205  16.518 -0.0920  0.1280  0.1657
 1135POPC   C4A13616  12.239  33.569  16.808 -0.3700 -0.2042 -0.4783
 1135POPC   C1B13617  12.705  33.333  15.685  0.0602 -0.1689 -0.0173
 1135POPC   C2B13618  12.561  33.799  15.835  0.0908 -0.1232  0.0239
 1135POPC   C3B13619  12.778  34.208  15.966  0.0666  0.0769  0.2558
 1135POPC   C4B13620  13.129  34.495  15.815 -0.2515  0.0862  0.1669
 1136POPC   NC313621  14.138   9.981  16.330  0.0888 -0.0676 -0.4672
 1136POPC   PO413622  14.187  10.368  16.348  0.0039  0.0670  0.0436
 1136POPC   GL113623  14.027  10.319  16.727 -0.0234 -0.1219 -0.1951
 1136POPC   GL213624  14.295  10.232  16.895 -0.0390 -0.1135  0.1410
 1136POPC   C1A13625  13.723  10.571  16.947  0.0056 -0.1611 -0.1004
 1136POPC   D2A13626  13.283  10.467  16.996  0.0854  0.1521 -0.2213
 1136POPC   C3A13627  12.981  10.540  17.355 -0.1816  0.0896 -0.1551
 1136POPC   C4A13628  12.888  10.564  17.769  0.0260 -0.0763 -0.1011
 1136POPC   C1B13629  14.240   9.875  17.213  0.1282 -0.1477  0.0345
 1136POPC   C2B13630  14.065   9.682  17.574 -0.3196  0.2392  0.0916
 1136POPC   C3B13631  14.116   9.303  17.859 -0.0216 -0.1022  0.0834
 1136POPC   C4B13632  14.065   9.000  18.229 -0.1840 -0.3831 -0.0735
 1137POPC   NC313633   8.446  11.389  15.874 -0.3263 -0.1878  0.1787
 1137POPC   PO413634   8.348  11.732  15.811  0.2905 -0.0111  0.0454
 1137POPC   GL113635   8.313  11.636  16.262  0.1362  0.4262 -0.1518
 1137POPC   GL213636   8.525  11.365  16.397 -0.0165 -0.0076 -0.1825
 1137POPC   C1A13637   8.220  11.630  16.724 -0.2445  0.2097 -0.2402
 1137POPC   D2A13638   8.256  11.640  17.179 -0.2234  0.4746  0.1429
 1137POPC   C3A13639   8.594  11.383  17.404  0.1053 -0.1386 -0.0577
 1137POPC   C4A13640   8.841  11.456  17.697 -0.1308  0.0687 -0.1371
 1137POPC   C1B13641   8.558  11.155  16.761  0.0866  0.1344  0.3506
 1137POPC   C2B13642   8.704  10.984  17.137 -0.0201  0.3799  0.0647
 1137POPC   C3B13643   8.893  10.896  17.583  0.1296 -0.2712 -0.2054
 1137POPC   C4B13644   8.890  11.084  18.029 -0.1803  0.0217 -0.0914
 1138POPC   NC313645   0.136   9.337  16.262 -0.2184  0.0950 -0.0105
 1138POPC   PO413646  -0.214   9.457  16.276  0.0476 -0.4869 -0.0476
 1138POPC   GL113647  -0.267   9.218  16.539 -0.0271  0.2825  0.1101
 1138POPC   GL213648  -0.062   9.280  16.745  0.0540  0.0569  0.1275
 1138POPC   C1A13649  -0.615   9.007  16.821 -0.1540 -0.2933  0.2026
 1138POPC   D2A13650  -0.700   9.059  17.267 -0.1202  0.0412  0.0830
 1138POPC   C3A13651  -0.526   8.785  17.647 -0.2878 -0.0908  0.0988
 1138POPC   C4A13652  -0.250   8.647  17.945  0.1994  0.2274  0.3137
 1138POPC   C1B13653  -0.136   9.146  17.233  0.1261  0.0844  0.0316
 1138POPC   C2B13654  -0.105   9.199  17.681 -0.1039  0.0901 -0.0696
 1138POPC   C3B13655  -0.211   9.135  18.082  0.1787 -0.0281 -0.1409
 1138POPC   C4B13656  -0.516   9.077  18.450 -0.0754 -0.0821 -0.1012
 1139POPC   NC313657  16.468   9.612  16.371 -0.4704  0.0571 -0.1814
 1139POPC   PO413658  16.153   9.499  16.148 -0.1449 -0.2695 -0.2267
 1139POPC   GL113659  16.053   9.687  16.540  0.2548  0.2114  0.0752
 1139POPC   GL213660  15.918   9.888  16.566  0.1773 -0.0104 -0.3418
 1139POPC   C1A13661  15.865   9.606  16.968  0.0103  0.0286 -0.2319
 1139POPC   D2A13662  15.568   9.773  17.276 -0.2161 -0.1721  0.2167
 1139POPC   C3A13663  15.719   9.711  17.667  0.0456  0.4374 -0.2272
 1139POPC   C4A13664  15.492   9.860  18.047 -0.1355 -0.1693 -0.1816
 1139POPC   C1B13665  15.674  10.143  16.869 -0.0171  0.1684  0.0151
 1139POPC   C2B13666  15.706  10.366  17.295  0.1680  0.3003 -0.1966
 1139POPC   C3B13667  15.717  10.530  17.758  0.0943 -0.0244 -0.2322
 1139POPC   C4B13668  15.935  10.857  17.991  0.2935  0.1644  0.0318
 1140POPC   NC313669   5.520   4.317  12.298 -0.1176  0.0928  0.0686
 1140POPC   PO413670   5.656   4.121  11.944  0.0900 -0.1736 -0.1778
 1140POPC   GL113671   5.909   4.211  11.992 -0.4208  0.1180  0.1076
 1140POPC   GL213672   5.954   4.084  12.311  0.0262 -0.0853 -0.0442
 1140POPC   C1A13673   6.404   4.164  11.986  0.0533 -0.1177  0.2132
 1140POPC   D2A13674   6.710   4.502  12.092 -0.1080  0.1055  0.0574
 1140POPC   C3A13675   7.176   4.555  12.072  0.5385  0.0853  0.1696
 1140POPC   C4A13676   7.466   4.870  12.207  0.2372 -0.2777  0.2573
 1140POPC   C1B13677   6.270   4.283  12.554  0.1078 -0.0047  0.2157
 1140POPC   C2B13678   6.742   4.265  12.630 -0.1557 -0.0718 -0.2120
 1140POPC   C3B13679   7.195   4.437  12.578  0.2137  0.2175  0.0892
 1140POPC   C4B13680   7.620   4.402  12.624 -0.0102 -0.0396 -0.1247
 1141POPC   NC313681   2.090  12.877  16.645 -0.2910  0.1595  0.1700
 1141POPC   PO413682   2.147  12.524  16.474 -0.1456 -0.1375 -0.2908
 1141POPC   GL113683   2.048  12.448  16.867 -0.1577  0.0008  0.1010
 1141POPC   GL213684   2.042  12.623  17.073 -0.2108  0.1780 -0.0750
 1141POPC   C1A13685   2.344  12.349  17.287 -0.0414  0.2743 -0.1701
 1141POPC   D2A13686   2.313  12.490  17.712 -0.2359 -0.1199  0.3839
 1141POPC   C3A13687   2.294  12.522  18.139  0.1624  0.1704 -0.1641
 1141POPC   C4A13688   2.417  12.947  18.282 -0.1030  0.1344  0.1680
 1141POPC   C1B13689   1.888  12.719  17.522 -0.2741  0.0886  0.1513
 1141POPC   C2B13690   1.862  12.648  17.948 -0.0008 -0.3572 -0.3752
 1141POPC   C3B13691   1.859  12.629  18.460  0.3618  0.0226  0.2748
 1141POPC   C4B13692   2.195  12.636  18.713  0.1783 -0.1680 -0.1542
 1142POPC   NC313693  32.708  10.277  15.759 -0.1065  0.0020 -0.2210
 1142POPC   PO413694  32.484  10.125  16.022  0.0733 -0.0115  0.0426
 1142POPC   GL113695  32.433  10.142  16.480 -0.4725 -0.2265 -0.1433
 1142POPC   GL213696  32.458   9.883  16.486 -0.2222 -0.1348  0.1404
 1142POPC   C1A13697  32.419  10.086  16.988  0.0828  0.0395 -0.1408
 1142POPC   D2A13698  32.409  10.076  17.491  0.2299 -0.2864  0.0153
 1142POPC   C3A13699  32.560   9.802  17.849 -0.3728  0.2445 -0.4526
 1142POPC   C4A13700  32.886   9.905  18.127  0.2987  0.1655  0.0660
 1142POPC   C1B13701  32.304   9.556  16.802 -0.1870  0.0366 -0.2300
 1142POPC   C2B13702  32.370   9.579  17.233 -0.1731 -0.1437  0.0036
 1142POPC   C3B13703  32.262   9.436  17.670  0.1920 -0.1772  0.2037
 1142POPC   C4B13704  32.149   9.102  17.989  0.1182  0.1132 -0.2169
 1143POPC   NC313705   5.090   6.631  12.476 -0.0832  0.1245 -0.1697
 1143POPC   PO413706   5.074   6.397  12.142  0.0498  0.0988  0.1163
 1143POPC   GL113707   5.418   6.522  12.104 -0.2062 -0.0363  0.0018
 1143POPC   GL213708   5.587   6.342  12.228 -0.0769 -0.2076  0.2646
 1143POPC   C1A13709   5.671   6.793  12.385  0.2513 -0.1571 -0.1830
 1143POPC   D2A13710   5.912   6.855  12.777  0.1598 -0.0057  0.5047
 1143POPC   C3A13711   6.229   6.597  12.966 -0.3411 -0.0364 -0.0875
 1143POPC   C4A13712   6.655   6.457  13.209  0.0446  0.4725  0.1491
 1143POPC   C1B13713   6.001   6.439  12.429  0.0443 -0.2327 -0.0168
 1143POPC   C2B13714   6.412   6.297  12.569 -0.0171  0.2943  0.2272
 1143POPC   C3B13715   6.845   6.304  12.739  0.3506 -0.0642  0.0641
 1143POPC   C4B13716   7.114   6.397  13.088  0.0993  0.1505  0.3818
 1144POPC   NC313717   7.858  11.887   9.983 -0.0382  0.1174  0.3066
 1144POPC   PO413718   8.100  12.000  10.350 -0.0285 -0.1710 -0.1556
 1144POPC   GL113719   8.182  11.609  10.203  0.0428 -0.2864  0.0582
 1144POPC   GL213720   8.449  11.451  10.249  0.0358 -0.0566  0.0825
 1144POPC   C1A13721   8.191  11.444   9.775  0.2413 -0.1879 -0.1961
 1144POPC   D2A13722   8.260  11.214   9.381  0.1373  0.2846 -0.1290
 1144POPC   C3A13723   8.438  10.813   9.148  0.4403 -0.1567  0.3471
 1144POPC   C4A13724   8.488  10.444   8.811  0.0463 -0.1709 -0.0369
 1144POPC   C1B13725   8.536  11.090  10.006  0.1296  0.0001  0.1003
 1144POPC   C2B13726   8.385  10.733   9.702 -0.1365  0.3101 -0.2129
 1144POPC   C3B13727   8.369  10.378   9.335  0.2785 -0.0222  0.2047
 1144POPC   C4B13728   8.398   9.948   9.104 -0.3079 -0.0884 -0.1957
 1145POPC   NC313729  10.555  10.625  15.360  0.0176  0.2565  0.1742
 1145POPC   PO413730  10.199  10.796  15.351  0.0258 -0.1552  0.1892
 1145POPC   GL113731   9.807  10.729  15.507  0.1697 -0.1807  0.1573
 1145POPC   GL213732   9.904  10.827  15.781  0.1025 -0.3392  0.3885
 1145POPC   C1A13733   9.488  10.626  15.847 -0.1090 -0.0305 -0.1209
 1145POPC   D2A13734   9.030  10.789  15.937  0.0617 -0.1865  0.0535
 1145POPC   C3A13735   8.724  10.496  16.108 -0.2986  0.2490 -0.2575
 1145POPC   C4A13736   8.533  10.088  16.224 -0.2884  0.2582  0.2142
 1145POPC   C1B13737   9.794  10.755  16.234 -0.1653 -0.2121  0.0307
 1145POPC   C2B13738   9.817  10.339  16.474 -0.4993 -0.1769  0.1568
 1145POPC   C3B13739  10.061  10.017  16.680  0.0566  0.0339 -0.0187
 1145POPC   C4B13740  10.366   9.802  16.981  0.1834 -0.0906  0.0308
 1146POPC   NC313741   8.344  10.823  14.550 -0.2023 -0.1784 -0.1655
 1146POPC   PO413742   8.698  10.913  14.739  0.2569 -0.1383  0.1089
 1146POPC   GL113743   8.892  10.660  14.638  0.3738 -0.1431 -0.2380
 1146POPC   GL213744   8.710  10.461  14.524  0.0266 -0.2737  0.4369
 1146POPC   C1A13745   9.087  10.260  14.674  0.3399  0.0418  0.0050
 1146POPC   D2A13746   9.046   9.799  14.860 -0.0608  0.3918 -0.0209
 1146POPC   C3A13747   9.278   9.797  15.243  0.4838 -0.0587 -0.4382
 1146POPC   C4A13748   9.778   9.859  15.323 -0.0606 -0.1306  0.0981
 1146POPC   C1B13749   8.526  10.112  14.754 -0.0228  0.2339 -0.0466
 1146POPC   C2B13750   8.523   9.661  14.880  0.0436 -0.0845 -0.0697
 1146POPC   C3B13751   8.514   9.308  14.621  0.2910  0.0070  0.2468
 1146POPC   C4B13752   8.258   9.014  14.433  0.2682  0.1228  0.0096
 1147POPC   NC313753   4.608   5.154  14.679  0.0701 -0.0546 -0.2604
 1147POPC   PO413754   4.384   4.905  14.488 -0.0190  0.4149 -0.0102
 1147POPC   GL113755   4.770   4.834  14.469  0.0918  0.3738 -0.0631
 1147POPC   GL213756   4.897   4.644  14.600 -0.1442  0.1315 -0.2618
 1147POPC   C1A13757   5.228   4.873  14.302  0.1112  0.0427  0.1171
 1147POPC   D2A13758   5.658   4.728  14.496 -0.0116  0.2532 -0.0784
 1147POPC   C3A13759   5.955   4.885  14.173  0.1434 -0.1511 -0.2223
 1147POPC   C4A13760   6.120   5.250  13.933 -0.0016  0.1483  0.1216
 1147POPC   C1B13761   5.104   4.844  14.993 -0.0010  0.0689  0.1741
 1147POPC   C2B13762   5.353   5.142  15.265 -0.0396  0.1400  0.0647
 1147POPC   C3B13763   5.469   5.421  15.630 -0.0454 -0.2808 -0.0379
 1147POPC   C4B13764   5.622   5.588  15.994  0.1835 -0.0012 -0.2688
 1148POPC   NC313765   6.653  15.344  15.721 -0.0057 -0.2553 -0.1365
 1148POPC   PO413766   6.670  15.490  15.327  0.0602  0.0854 -0.1441
 1148POPC   GL113767   6.494  15.771  15.619  0.0582  0.4323 -0.1501
 1148POPC   GL213768   6.739  15.903  15.712  0.0472  0.0658 -0.3279
 1148POPC   C1A13769   6.344  15.839  16.058  0.0680  0.0946  0.2819
 1148POPC   D2A13770   6.206  16.176  16.311  0.2508  0.0947  0.2740
 1148POPC   C3A13771   6.044  16.313  16.749  0.0153  0.0249 -0.0121
 1148POPC   C4A13772   5.999  16.617  17.095  0.0843  0.1291  0.0884
 1148POPC   C1B13773   6.585  16.290  15.942 -0.0001 -0.0215 -0.2761
 1148POPC   C2B13774   6.649  16.628  16.217  0.0860  0.0379 -0.0161
 1148POPC   C3B13775   6.464  17.040  16.419  0.0027  0.1033  0.4156
 1148POPC   C4B13776   6.379  17.350  16.830 -0.0180 -0.1910 -0.0678
 1149POPC   NC313777   3.944   9.526  15.122  0.0308 -0.2273  0.0076
 1149POPC   PO413778   4.329   9.347  15.161  0.1044  0.0386  0.4412
 1149POPC   GL113779   4.514   9.138  15.310  0.0807 -0.2970 -0.4697
 1149POPC   GL213780   4.484   8.883  15.387  0.1156 -0.0365 -0.3213
 1149POPC   C1A13781   4.894   9.224  15.524  0.1187  0.1479  0.1471
 1149POPC   D2A13782   5.297   9.025  15.759  0.1230  0.0515  0.2379
 1149POPC   C3A13783   5.490   8.630  15.869 -0.1992 -0.0373 -0.0421
 1149POPC   C4A13784   5.494   8.491  16.298 -0.3213  0.2042  0.1070
 1149POPC   C1B13785   4.289   8.607  15.748  0.2301  0.0852  0.3520
 1149POPC   C2B13786   4.313   8.610  16.192 -0.0252  0.2020  0.1693
 1149POPC   C3B13787   4.711   8.585  16.424 -0.0946 -0.2297 -0.3340
 1149POPC   C4B13788   5.139   8.535  16.573 -0.2380 -0.0356  0.0526
 1150POPC   NC313789   1.405  13.373  16.393  0.2210  0.0212 -0.1838
 1150POPC   PO413790   1.694  13.204  16.314  0.0537  0.2599  0.4391
 1150POPC   GL113791   1.789  13.253  16.694 -0.0125 -0.1864  0.2062
 1150POPC   GL213792   1.577  13.342  16.854  0.0481  0.0624 -0.1160
 1150POPC   C1A13793   1.711  12.973  17.048 -0.0611  0.1310 -0.2780
 1150POPC   D2A13794   1.524  12.597  17.269  0.2480  0.1650  0.0776
 1150POPC   C3A13795   1.513  12.445  17.753  0.4141 -0.0755  0.1994
 1150POPC   C4A13796   1.512  12.331  18.153  0.0633  0.0918 -0.1582
 1150POPC   C1B13797   1.593  13.521  17.286  0.1768 -0.1408 -0.0260
 1150POPC   C2B13798   1.517  13.572  17.745 -0.0214 -0.3073 -0.1294
 1150POPC   C3B13799   1.527  13.472  18.187 -0.2354 -0.0230  0.0090
 1150POPC   C4B13800   1.771  13.530  18.532 -0.2784 -0.0247 -0.2344
 1151POPC   NC313801   9.301  14.834  15.412 -0.2457 -0.0174 -0.1479
 1151POPC   PO413802   9.576  14.965  15.678 -0.3767  0.1167 -0.1223
 1151POPC   GL113803   9.573  14.906  16.081 -0.2995 -0.0819 -0.2225
 1151POPC   GL213804   9.850  14.864  16.126  0.1626 -0.0649 -0.2319
 1151POPC   C1A13805   9.429  15.026  16.505 -0.2124 -0.1808  0.3198
 1151POPC   D2A13806   9.131  14.920  16.821 -0.1178  0.4215  0.0816
 1151POPC   C3A13807   9.226  15.100  17.267  0.2566  0.1141  0.0712
 1151POPC   C4A13808   9.385  15.021  17.661 -0.0293  0.0676  0.0156
 1151POPC   C1B13809   9.888  15.258  16.320  0.1961  0.2089 -0.0615
 1151POPC   C2B13810  10.138  15.275  16.749  0.0548 -0.0990 -0.0872
 1151POPC   C3B13811  10.165  15.216  17.202 -0.1045  0.1209  0.4901
 1151POPC   C4B13812  10.330  14.977  17.579 -0.4506  0.2893 -0.0269
 1152POPC   NC313813  11.722   0.028  15.058  0.0016  0.2565 -0.0815
 1152POPC   PO413814  11.318   0.084  15.184  0.1885 -0.0197 -0.0385
 1152POPC   GL113815  11.315   0.315  15.476  0.0044  0.1336 -0.0671
 1152POPC   GL213816  11.610   0.206  15.568  0.0516 -0.2433  0.4406
 1152POPC   C1A13817  11.329   0.652  15.797  0.0505 -0.2614  0.4241
 1152POPC   D2A13818  11.199   0.918  16.180  0.1970  0.0208 -0.1388
 1152POPC   C3A13819  10.871   0.838  16.506 -0.0009  0.1112 -0.1117
 1152POPC   C4A13820  10.595   0.539  16.791  0.2292  0.0753  0.3131
 1152POPC   C1B13821  11.673   0.342  16.016  0.0429 -0.1532  0.1273
 1152POPC   C2B13822  11.753   0.679  16.401 -0.2599  0.0473  0.2511
 1152POPC   C3B13823  11.773   0.993  16.782  0.0263  0.0435  0.0022
 1152POPC   C4B13824  12.099   1.204  17.043  0.0782 -0.0181 -0.0199
 1153POPC   NC313825   4.817  11.785  16.290  0.1879  0.0618 -0.0432
 1153POPC   PO413826   5.169  11.693  16.376  0.0496  0.1209  0.0359
 1153POPC   GL113827   5.161  11.719  16.768  0.2892 -0.1582 -0.2687
 1153POPC   GL213828   4.925  11.697  16.926  0.0743  0.1567 -0.0551
 1153POPC   C1A13829   5.400  11.666  17.182 -0.1972  0.0806  0.0040
 1153POPC   D2A13830   5.574  11.352  17.434  0.1352  0.0486  0.2777
 1153POPC   C3A13831   5.516  11.376  17.890 -0.2506 -0.5554  0.0223
 1153POPC   C4A13832   5.521  11.370  18.338  0.0415 -0.0098 -0.1467
 1153POPC   C1B13833   4.977  11.937  17.357  0.0779 -0.0027 -0.0509
 1153POPC   C2B13834   5.012  12.053  17.806 -0.0634  0.0853  0.1387
 1153POPC   C3B13835   4.811  12.290  18.121 -0.0222  0.0271  0.0326
 1153POPC   C4B13836   4.773  12.512  18.521 -0.0363 -0.5369  0.1289
 1154POPC   NC313837  15.091  14.088  16.539  0.0867  0.1248  0.1999
 1154POPC   PO413838  14.911  13.783  16.376 -0.1487  0.0934 -0.2080
 1154POPC   GL113839  14.670  13.909  16.667 -0.0990  0.2140 -0.0672
 1154POPC   GL213840  14.497  13.672  16.692 -0.0233  0.2579  0.2072
 1154POPC   C1A13841  14.852  14.162  17.036  0.2652  0.0544 -0.0383
 1154POPC   D2A13842  14.948  14.217  17.521  0.1987 -0.1390 -0.1252
 1154POPC   C3A13843  14.844  13.966  17.829  0.1460  0.0736  0.0934
 1154POPC   C4A13844  14.817  13.621  18.184  0.1713  0.1219 -0.0624
 1154POPC   C1B13845  14.313  13.760  17.139 -0.1809 -0.0914  0.1436
 1154POPC   C2B13846  13.963  13.905  17.338 -0.1799 -0.2876 -0.3364
 1154POPC   C3B13847  13.607  13.998  17.562  0.0502 -0.0483 -0.1529
 1154POPC   C4B13848  13.297  14.291  17.362 -0.0523  0.0515 -0.1985
 1155POPC   NC313849   6.121   9.959  12.880  0.4460 -0.2079  0.0627
 1155POPC   PO413850   6.208   9.743  13.183 -0.1826 -0.1551 -0.0651
 1155POPC   GL113851   6.296   9.404  13.569  0.0902 -0.2501 -0.1032
 1155POPC   GL213852   6.604   9.367  13.553 -0.0630  0.0208 -0.1276
 1155POPC   C1A13853   6.372   8.924  13.526  0.0011  0.0541  0.1075
 1155POPC   D2A13854   6.464   8.489  13.349  0.0102  0.0253 -0.0133
 1155POPC   C3A13855   6.869   8.282  13.496  0.0458 -0.3147  0.0290
 1155POPC   C4A13856   7.308   8.324  13.631 -0.1195 -0.1181 -0.0844
 1155POPC   C1B13857   6.832   9.233  13.915  0.0991  0.2306  0.0734
 1155POPC   C2B13858   7.192   9.043  14.194 -0.1057  0.2045 -0.1050
 1155POPC   C3B13859   7.467   8.703  14.284  0.0391  0.0841  0.2692
 1155POPC   C4B13860   7.899   8.629  14.388 -0.1001  0.0521 -0.0891
 1156POPC   NC313861   5.592  13.190  16.446  0.1595 -0.1233  0.4925
 1156POPC   PO413862   5.283  13.435  16.555  0.1205  0.0268 -0.1034
 1156POPC   GL113863   5.107  13.538  16.897  0.0450  0.4695 -0.1562
 1156POPC   GL213864   4.885  13.344  17.005  0.3068  0.0894 -0.3342
 1156POPC   C1A13865   5.287  13.684  17.259  0.3405 -0.0749  0.0044
 1156POPC   D2A13866   5.241  13.691  17.711  0.0998 -0.2912  0.0127
 1156POPC   C3A13867   5.605  13.568  18.026  0.0635  0.0183  0.0570
 1156POPC   C4A13868   5.943  13.705  18.342 -0.2019  0.0905  0.3342
 1156POPC   C1B13869   4.967  13.348  17.465  0.0256  0.0712  0.0201
 1156POPC   C2B13870   4.965  13.333  17.937 -0.3490 -0.0626 -0.2643
 1156POPC   C3B13871   5.013  13.607  18.272  0.1566  0.0475 -0.0484
 1156POPC   C4B13872   4.916  13.875  18.646 -0.1963 -0.3919 -0.3577
 1157POPC   NC313873   2.414   8.274  16.186 -0.3261 -0.0321 -0.3665
 1157POPC   PO413874   2.567   8.012  15.925  0.2430 -0.1232  0.2916
 1157POPC   GL113875   2.687   7.901  16.288 -0.0917 -0.0586  0.0911
 1157POPC   GL213876   2.790   7.646  16.461  0.0646 -0.1789  0.1514
 1157POPC   C1A13877   2.983   8.087  16.639  0.0263  0.0706 -0.3251
 1157POPC   D2A13878   3.316   8.124  16.976 -0.0523  0.0537 -0.1407
 1157POPC   C3A13879   3.197   8.003  17.431 -0.1482  0.0966  0.0926
 1157POPC   C4A13880   3.067   8.198  17.848 -0.2607  0.0678  0.1631
 1157POPC   C1B13881   2.689   7.638  16.878 -0.3492  0.0549  0.1675
 1157POPC   C2B13882   2.890   7.519  17.243  0.0407  0.1454 -0.0313
 1157POPC   C3B13883   3.045   7.563  17.691 -0.2919  0.0152 -0.1912
 1157POPC   C4B13884   2.995   7.167  18.000 -0.0224  0.1039 -0.1718
 1158POPC   NC313885  10.136  10.351  14.621  0.0834  0.0450 -0.0421
 1158POPC   PO413886  10.302  10.562  14.929  0.1542  0.0662  0.1162
 1158POPC   GL113887  10.290  10.266  15.090 -0.0256 -0.1005 -0.1314
 1158POPC   GL213888  10.134  10.018  15.043  0.0391 -0.0615  0.0200
 1158POPC   C1A13889  10.172  10.171  15.510  0.1944 -0.0707  0.0913
 1158POPC   D2A13890   9.949   9.817  15.799  0.0724  0.0693  0.2686
 1158POPC   C3A13891   9.474   9.832  15.775  0.1139 -0.0698  0.2542
 1158POPC   C4A13892   9.223  10.180  15.755  0.2170  0.1271  0.0378
 1158POPC   C1B13893  10.239   9.581  15.301  0.2905  0.0166 -0.1753
 1158POPC   C2B13894  10.150   9.219  15.533  0.0042  0.1825  0.0455
 1158POPC   C3B13895   9.831   8.900  15.638  0.0169  0.0902  0.1884
 1158POPC   C4B13896   9.397   8.893  15.819 -0.2771  0.2779 -0.1650
 1159POPC   NC313897   1.117   4.946  15.572 -0.3893 -0.0470 -0.2561
 1159POPC   PO413898   0.720   4.977  15.486  0.0357 -0.2017 -0.0806
 1159POPC   GL113899   0.684   5.060  15.853  0.2302 -0.4044 -0.0302
 1159POPC   GL213900   0.519   4.995  16.103  0.1179 -0.1401  0.1309
 1159POPC   C1A13901   0.790   5.355  16.203 -0.0490  0.1701  0.3232
 1159POPC   D2A13902   0.600   5.439  16.665  0.1239 -0.0364 -0.2159
 1159POPC   C3A13903   0.429   5.416  17.100 -0.1137  0.3292  0.2655
 1159POPC   C4A13904   0.395   5.728  17.455 -0.2290 -0.0045 -0.0447
 1159POPC   C1B13905   0.752   4.983  16.522 -0.1700 -0.2048  0.1421
 1159POPC   C2B13906   0.741   4.871  16.974 -0.2690  0.1397  0.4211
 1159POPC   C3B13907   0.390   4.954  17.329 -0.2199  0.0039 -0.1564
 1159POPC   C4B13908   0.067   5.264  17.518 -0.1086 -0.1492 -0.1449
 1160POPC   NC313909  14.783   9.430  16.374  0.0941 -0.1104 -0.0262
 1160POPC   PO413910  14.473   9.629  16.200 -0.1477  0.0354 -0.1451
 1160POPC   GL113911  14.438   9.635  16.626  0.2106 -0.0556  0.1468
 1160POPC   GL213912  14.582   9.882  16.631  0.2352 -0.1283  0.3742
 1160POPC   C1A13913  13.975   9.706  16.822 -0.0319 -0.2425  0.2390
 1160POPC   D2A13914  13.719   9.532  17.179 -0.0599 -0.0520 -0.2121
 1160POPC   C3A13915  13.729   9.194  17.518  0.1071  0.1245 -0.1277
 1160POPC   C4A13916  13.740   8.980  17.915 -0.0033  0.0582  0.2782
 1160POPC   C1B13917  14.705   9.989  17.072  0.1668 -0.3240 -0.0715
 1160POPC   C2B13918  14.765  10.047  17.512 -0.1673  0.2373  0.2087
 1160POPC   C3B13919  14.896  10.063  17.929 -0.0394  0.3363  0.3044
 1160POPC   C4B13920  15.035   9.821  18.309 -0.0999 -0.0644  0.0060
 1161POPC   NC313921  15.319   1.044  15.722 -0.2724  0.0554  0.1380
 1161POPC   PO413922  15.533   0.805  15.923 -0.2920 -0.2374 -0.1573
 1161POPC   GL113923  15.165   0.936  16.113 -0.1016  0.0345  0.0255
 1161POPC   GL213924  15.022   0.775  16.112 -0.0698 -0.0728 -0.1652
 1161POPC   C1A13925  14.928   1.307  16.254 -0.4666  0.0142 -0.0315
 1161POPC   D2A13926  14.960   1.518  16.660  0.1399 -0.1793 -0.2003
 1161POPC   C3A13927  14.748   1.580  17.091 -0.0300  0.0015 -0.1108
 1161POPC   C4A13928  14.623   1.721  17.498  0.0827 -0.0290 -0.3924
 1161POPC   C1B13929  14.705   0.842  16.413  0.2996 -0.0262 -0.0343
 1161POPC   C2B13930  14.649   1.141  16.743 -0.1000  0.1422  0.0763
 1161POPC   C3B13931  14.395   1.277  17.187  0.0598  0.1191 -0.1403
 1161POPC   C4B13932  14.100   1.388  17.542 -0.1005  0.0708  0.0549
 1162POPC   NC313933   1.440   9.371  16.138  0.0183  0.0608 -0.1877
 1162POPC   PO413934   1.310   9.031  16.190  0.1672 -0.0149 -0.2526
 1162POPC   GL113935   1.281   9.065  16.628 -0.2705  0.2769  0.0270
 1162POPC   GL213936   1.052   9.037  16.640 -0.3297 -0.1816  0.2268
 1162POPC   C1A13937   1.338   9.019  17.086  0.0618  0.0263 -0.3967
 1162POPC   D2A13938   1.307   9.007  17.582  0.1912 -0.1007  0.0921
 1162POPC   C3A13939   1.317   8.646  17.785  0.0296 -0.3052  0.0043
 1162POPC   C4A13940   1.305   8.206  17.961  0.3048 -0.0708  0.1875
 1162POPC   C1B13941   0.912   9.340  17.036 -0.3306  0.0020 -0.0549
 1162POPC   C2B13942   0.946   9.367  17.492  0.3599 -0.2208 -0.0240
 1162POPC   C3B13943   0.880   9.348  17.899  0.1037 -0.0472 -0.0514
 1162POPC   C4B13944   0.733   9.434  18.341 -0.2467  0.1498 -0.0979
 1163POPC   NC313945  10.055  13.174  15.979 -0.0316  0.0551  0.2404
 1163POPC   PO413946   9.776  13.340  16.206 -0.1582 -0.0745 -0.2074
 1163POPC   GL113947  10.018  13.188  16.521  0.0518 -0.4201  0.1064
 1163POPC   GL213948  10.237  12.972  16.428 -0.0569  0.3201 -0.2453
 1163POPC   C1A13949  10.192  13.473  16.883 -0.1380 -0.1692  0.1971
 1163POPC   D2A13950  10.288  13.542  17.333 -0.2316  0.0304 -0.2690
 1163POPC   C3A13951  10.245  13.750  17.755  0.1241 -0.1720  0.1488
 1163POPC   C4A13952  10.040  13.811  18.166 -0.0485  0.2038  0.0589
 1163POPC   C1B13953   9.975  12.969  16.889  0.1388  0.2059 -0.1665
 1163POPC   C2B13954   9.944  13.123  17.276  0.0921  0.0866  0.0369
 1163POPC   C3B13955  10.103  13.185  17.713  0.1765 -0.1449  0.0597
 1163POPC   C4B13956  10.297  13.269  18.156 -0.3966  0.0453 -0.0896
 1164POPC   NC313957  14.105   3.665  14.078 -0.0122 -0.0102  0.3397
 1164POPC   PO413958  14.361   3.416  14.167  0.3852  0.1082 -0.3859
 1164POPC   GL113959  14.047   3.298  14.423  0.4588  0.0820  0.0997
 1164POPC   GL213960  13.951   3.539  14.591 -0.2053 -0.2104 -0.0410
 1164POPC   C1A13961  13.899   3.116  14.855 -0.0957 -0.0485 -0.0948
 1164POPC   D2A13962  13.484   3.245  14.997  0.1333 -0.0138 -0.1650
 1164POPC   C3A13963  13.241   3.217  15.386  0.3011  0.3539 -0.1854
 1164POPC   C4A13964  13.074   3.121  15.820 -0.2204 -0.1058 -0.1177
 1164POPC   C1B13965  13.495   3.409  14.456  0.4393  0.1055  0.1327
 1164POPC   C2B13966  13.069   3.413  14.438  0.0958  0.0014  0.1314
 1164POPC   C3B13967  12.611   3.254  14.527 -0.3286 -0.1349 -0.0335
 1164POPC   C4B13968  12.168   3.413  14.660  0.2027  0.3100  0.3116
 1165POPC   NC313969  14.195  15.182  16.261  0.1140  0.1396  0.0380
 1165POPC   PO413970  14.147  14.962  16.567 -0.1369 -0.1082  0.0799
 1165POPC   GL113971  13.961  14.984  16.888  0.1933  0.0487  0.1632
 1165POPC   GL213972  14.140  15.022  17.125 -0.0164  0.2434  0.4088
 1165POPC   C1A13973  13.680  14.786  17.166  0.1140  0.1831  0.3230
 1165POPC   D2A13974  13.363  14.781  17.538  0.0037 -0.1937 -0.0036
 1165POPC   C3A13975  12.960  14.743  17.773  0.0368  0.0177 -0.0320
 1165POPC   C4A13976  12.580  14.779  18.032  0.3614  0.1003  0.1828
 1165POPC   C1B13977  13.822  15.127  17.432  0.0712 -0.1155 -0.1594
 1165POPC   C2B13978  13.430  15.276  17.692  0.1636  0.0095 -0.0226
 1165POPC   C3B13979  13.376  15.730  17.593 -0.0232  0.2937  0.3707
 1165POPC   C4B13980  13.464  16.067  17.903 -0.0523 -0.2311  0.1484
 1166POPC   NC313981   3.948   7.625  14.678 -0.1920 -0.0001  0.0905
 1166POPC   PO413982   4.322   7.482  14.551  0.0873 -0.0217 -0.3716
 1166POPC   GL113983   4.593   7.685  14.879 -0.0904 -0.0351 -0.0635
 1166POPC   GL213984   4.805   7.488  14.886  0.0678  0.1737 -0.0036
 1166POPC   C1A13985   4.631   7.865  15.306  0.1521 -0.4077  0.0784
 1166POPC   D2A13986   4.829   7.853  15.712  0.4000  0.3524 -0.1992
 1166POPC   C3A13987   5.201   7.782  15.979 -0.0714  0.1584 -0.2003
 1166POPC   C4A13988   5.532   7.862  16.266  0.0059  0.1106  0.0481
 1166POPC   C1B13989   5.082   7.590  15.238  0.2664  0.1042  0.0484
 1166POPC   C2B13990   5.393   7.659  15.551 -0.0570 -0.1979  0.1024
 1166POPC   C3B13991   5.768   7.644  15.838  0.2954 -0.1863 -0.0368
 1166POPC   C4B13992   6.063   7.411  16.071 -0.2623  0.3354 -0.1062
 1167POPC   NC313993  12.000   9.621  12.277  0.2568 -0.0071  0.0962
 1167POPC   PO413994  12.061   9.891  11.982  0.1724  0.2404  0.1738
 1167POPC   GL113995  11.789   9.584  11.851  0.0552 -0.0137  0.3452
 1167POPC   GL213996  11.518   9.598  11.942  0.2761 -0.3880  0.0939
 1167POPC   C1A13997  11.885   9.341  11.464 -0.1339  0.1275 -0.0593
 1167POPC   D2A13998  11.977   9.466  11.033  0.0846  0.0750  0.2729
 1167POPC   C3A13999  11.556   9.483  10.803 -0.1017  0.4634 -0.3504
 1167POPC   C4A14000  11.192   9.171  10.766 -0.0297 -0.3088 -0.1138
 1167POPC   C1B14001  11.259   9.251  11.883 -0.2627  0.3041 -0.0276
 1167POPC   C2B14002  11.085   8.851  11.725 -0.0263  0.0092 -0.0817
 1167POPC   C3B14003  10.986   8.444  11.547 -0.0525 -0.3877  0.1107
 1167POPC   C4B14004  11.146   8.086  11.291 -0.0282 -0.1278  0.0885
 1168POPC   NC314005   0.867   8.792  16.257  0.0614  0.1806  0.1887
 1168POPC   PO414006   0.526   8.773  16.330  0.0446 -0.0019  0.1015
 1168POPC   GL114007   0.567   8.764  16.709 -0.1197  0.6143  0.1592
 1168POPC   GL214008   0.503   9.072  16.774  0.0812 -0.2211 -0.0647
 1168POPC   C1A14009   0.865   8.834  17.054 -0.2971  0.0024 -0.2116
 1168POPC   D2A14010   1.135   8.616  17.300 -0.0675  0.0939 -0.0847
 1168POPC   C3A14011   1.371   8.254  17.459  0.1370 -0.0611 -0.0908
 1168POPC   C4A14012   1.687   8.090  17.696  0.0565  0.2347  0.1625
 1168POPC   C1B14013   0.204   8.809  17.068  0.0117  0.1322  0.2086
 1168POPC   C2B14014   0.010   8.737  17.504 -0.0376 -0.1346  0.2310
 1168POPC   C3B14015   0.254   8.830  17.835  0.2155  0.4022  0.0260
 1168POPC   C4B14016   0.500   8.461  18.091  0.0665 -0.3836 -0.2500
 1169POPC   NC314017  13.011   8.001  12.919 -0.0389 -0.1107 -0.3226
 1169POPC   PO414018  12.949   8.046  13.352 -0.0659  0.1464 -0.1611
 1169POPC   GL114019  12.724   7.805  13.394 -0.1323  0.1609  0.3717
 1169POPC   GL214020  12.478   7.940  13.536 -0.0924 -0.2512  0.0323
 1169POPC   C1A14021  12.376   7.632  13.065 -0.3629  0.0257 -0.2942
 1169POPC   D2A14022  12.018   7.510  12.805 -0.0590 -0.2102 -0.1617
 1169POPC   C3A14023  11.701   7.348  13.004  0.0236  0.1253  0.3181
 1169POPC   C4A14024  11.231   7.342  12.975  0.0095  0.1475 -0.2902
 1169POPC   C1B14025  12.437   7.480  13.607 -0.2561  0.1921 -0.0530
 1169POPC   C2B14026  12.370   6.986  13.445 -0.0961 -0.0228  0.0590
 1169POPC   C3B14027  12.343   6.502  13.507  0.1055 -0.0241  0.2202
 1169POPC   C4B14028  12.448   6.080  13.733  0.0262 -0.1091 -0.0634
 1170POPC   NC314029   7.120  10.738  12.114  0.1433  0.1660  0.0457
 1170POPC   PO414030   7.427  10.607  11.908 -0.1012 -0.1936 -0.0349
 1170POPC   GL114031   7.734  10.357  11.845  0.2067  0.1965 -0.1336
 1170POPC   GL214032   8.020  10.499  11.899  0.2086  0.1967  0.0574
 1170POPC   C1A14033   7.790   9.888  11.981 -0.0020  0.2341  0.0545
 1170POPC   D2A14034   7.936   9.516  11.717 -0.1777 -0.1517  0.1584
 1170POPC   C3A14035   8.186   9.085  11.740 -0.1420 -0.1577 -0.0040
 1170POPC   C4A14036   8.298   8.669  11.727  0.2379 -0.0615  0.1826
 1170POPC   C1B14037   8.275  10.335  11.519  0.2154 -0.0333  0.0148
 1170POPC   C2B14038   8.187  10.213  11.127  0.6727  0.1842 -0.2094
 1170POPC   C3B14039   8.109   9.882  10.799  0.1427 -0.0333 -0.0014
 1170POPC   C4B14040   8.188   9.543  10.474 -0.2636  0.1738  0.2796
 1171POPC   NC314041   9.788  11.516  15.715  0.1642  0.2989  0.0868
 1171POPC   PO414042   9.561  11.848  15.771 -0.3280 -0.0391  0.2576
 1171POPC   GL114043   9.491  11.703  16.162  0.1006 -0.0639 -0.1488
 1171POPC   GL214044   9.798  11.712  16.168  0.2448 -0.1831  0.1026
 1171POPC   C1A14045   9.394  11.383  16.516  0.2666  0.1310  0.1241
 1171POPC   D2A14046   9.483  11.551  16.935  0.0552 -0.0355 -0.0318
 1171POPC   C3A14047   9.659  11.173  17.117 -0.0111  0.3726 -0.0940
 1171POPC   C4A14048   9.790  11.054  17.577  0.0026  0.1863 -0.3247
 1171POPC   C1B14049   9.903  11.613  16.611  0.2741 -0.1493 -0.2226
 1171POPC   C2B14050  10.063  11.429  17.004 -0.1834 -0.1538 -0.0153
 1171POPC   C3B14051   9.901  11.523  17.470 -0.0977  0.0065  0.2060
 1171POPC   C4B14052   9.877  11.821  17.781 -0.0405  0.0314 -0.0835
 1172POPC   NC314053   6.411  13.288  16.699 -0.0354  0.2892 -0.0361
 1172POPC   PO414054   6.230  13.658  16.667 -0.3905  0.2348 -0.2167
 1172POPC   GL114055   6.287  13.861  17.057 -0.1235 -0.0645 -0.0644
 1172POPC   GL214056   6.467  13.768  17.165  0.1102 -0.1256 -0.1348
 1172POPC   C1A14057   6.064  14.146  17.334  0.0956  0.1645 -0.5919
 1172POPC   D2A14058   6.059  14.145  17.811 -0.2859  0.3900  0.1942
 1172POPC   C3A14059   5.954  14.540  17.995 -0.2028 -0.3702 -0.0679
 1172POPC   C4A14060   5.767  14.703  18.384 -0.2247  0.1118 -0.1527
 1172POPC   C1B14061   6.210  13.642  17.558 -0.1082 -0.2534  0.1677
 1172POPC   C2B14062   6.276  13.376  18.008  0.1349  0.1179  0.0585
 1172POPC   C3B14063   6.228  13.269  18.475 -0.4662  0.1831  0.0619
 1172POPC   C4B14064   6.099  13.369  18.876  0.1945 -0.2043 -0.1187
 1173POPC   NC314065   6.028   9.370  14.311 -0.4540 -0.0116 -0.2867
 1173POPC   PO414066   5.773   9.575  14.482 -0.2140 -0.1557 -0.0892
 1173POPC   GL114067   5.670   9.293  14.795  0.2351  0.0669 -0.0249
 1173POPC   GL214068   5.841   9.064  14.679 -0.1042  0.0239  0.2660
 1173POPC   C1A14069   5.759   9.103  15.227  0.0886 -0.0649 -0.1627
 1173POPC   D2A14070   5.808   8.696  15.473  0.2608  0.1691  0.2593
 1173POPC   C3A14071   6.234   8.620  15.644  0.2633  0.2362 -0.2056
 1173POPC   C4A14072   6.299   8.428  16.074  0.1045  0.2258 -0.0260
 1173POPC   C1B14073   5.906   8.674  14.863 -0.1209  0.1097 -0.1669
 1173POPC   C2B14074   5.821   8.338  15.062 -0.1320  0.4691 -0.1390
 1173POPC   C3B14075   5.989   8.182  15.508 -0.0293 -0.0887 -0.0418
 1173POPC   C4B14076   6.205   7.815  15.858  0.1947 -0.0740  0.3018
 1174POPC   NC314077   2.718  15.199  16.786 -0.2106  0.2418 -0.0192
 1174POPC   PO414078   2.991  15.355  16.541 -0.1724 -0.0728 -0.0384
 1174POPC   GL114079   3.064  15.618  16.793 -0.2310 -0.2915  0.1212
 1174POPC   GL214080   2.979  15.527  17.085 -0.1111 -0.0479 -0.2101
 1174POPC   C1A14081   3.238  15.926  17.123  0.2042  0.0102  0.1398
 1174POPC   D2A14082   3.253  16.390  17.252 -0.0894  0.0946  0.1353
 1174POPC   C3A14083   3.285  16.486  17.746 -0.0029 -0.1644  0.1902
 1174POPC   C4A14084   3.221  16.757  18.073 -0.3336  0.1665 -0.0714
 1174POPC   C1B14085   3.264  15.561  17.495 -0.4645 -0.1668  0.0319
 1174POPC   C2B14086   3.586  15.308  17.751  0.0423  0.0418  0.2187
 1174POPC   C3B14087   3.754  15.261  18.146  0.0816 -0.1523  0.0394
 1174POPC   C4B14088   4.066  15.133  18.465 -0.1757  0.2361  0.1326
 1175POPC   NC314089  10.563  15.588  15.977 -0.0112  0.1002 -0.0995
 1175POPC   PO414090  10.348  15.719  15.666 -0.1308 -0.0636  0.2087
 1175POPC   GL114091  10.139  15.847  15.943  0.0741 -0.1280  0.0345
 1175POPC   GL214092  10.067  15.658  16.086  0.1365 -0.1449  0.3030
 1175POPC   C1A14093  10.225  16.162  16.244  0.0138  0.1640 -0.2411
 1175POPC   D2A14094  10.167  16.514  16.582 -0.0820 -0.4238  0.0727
 1175POPC   C3A14095   9.959  16.788  16.858  0.2644 -0.2636 -0.1127
 1175POPC   C4A14096   9.633  16.903  17.185 -0.0329  0.1042  0.3028
 1175POPC   C1B14097  10.040  15.699  16.533  0.0937 -0.0755 -0.0176
 1175POPC   C2B14098   9.886  16.109  16.758  0.3432  0.4931 -0.0612
 1175POPC   C3B14099   9.821  16.405  17.115  0.1498  0.0963 -0.1398
 1175POPC   C4B14100   9.668  16.451  17.564 -0.0197 -0.1145  0.1679
 1176POPC   NC314101  10.705  14.435  16.377  0.0963  0.1218 -0.1864
 1176POPC   PO414102  11.053  14.242  16.381 -0.0699 -0.2636  0.1187
 1176POPC   GL114103  11.064  14.147  16.801  0.1709  0.1716 -0.0603
 1176POPC   GL214104  11.044  14.472  16.847 -0.0747  0.2443  0.0158
 1176POPC   C1A14105  11.006  14.284  17.282  0.0055 -0.0045 -0.1652
 1176POPC   D2A14106  11.293  14.639  17.485 -0.1433 -0.0237 -0.0010
 1176POPC   C3A14107  11.434  14.580  17.939 -0.1898 -0.0475 -0.1324
 1176POPC   C4A14108  11.705  14.573  18.319  0.1865 -0.2929  0.2028
 1176POPC   C1B14109  10.858  14.836  17.135  0.0332 -0.0220  0.2374
 1176POPC   C2B14110  11.006  15.043  17.576  0.0924 -0.2860 -0.1945
 1176POPC   C3B14111  11.541  15.030  17.776  0.1648 -0.2932 -0.2386
 1176POPC   C4B14112  11.977  15.197  17.804  0.0529 -0.1877 -0.0547
 1177POPC   NC314113   6.537   9.560  10.666 -0.0214  0.3242 -0.2171
 1177POPC   PO414114   6.614   9.909  10.470  0.2210  0.2803  0.1596
 1177POPC   GL114115   6.797   9.538  10.220 -0.0531  0.1047 -0.0369
 1177POPC   GL214116   6.945   9.341  10.439  0.3763 -0.0854 -0.0645
 1177POPC   C1A14117   6.936   9.391   9.774 -0.0741  0.2367 -0.0900
 1177POPC   D2A14118   6.865   9.324   9.334  0.0471  0.0058  0.2060
 1177POPC   C3A14119   7.314   9.327   9.195  0.1386  0.0168  0.1633
 1177POPC   C4A14120   7.663   9.447   8.939  0.1344  0.3168  0.0018
 1177POPC   C1B14121   7.294   9.145  10.179  0.3864 -0.1170 -0.0367
 1177POPC   C2B14122   7.515   8.812  10.248  0.3997 -0.3419 -0.1459
 1177POPC   C3B14123   7.926   8.735  10.328  0.3067 -0.3008 -0.2117
 1177POPC   C4B14124   8.328   8.705  10.442  0.2607 -0.1678  0.1877
 1178POPC   NC314125  10.610  11.484  15.902 -0.1136 -0.0415 -0.1359
 1178POPC   PO414126  10.328  11.753  15.898  0.3052 -0.0933 -0.1271
 1178POPC   GL114127  10.279  11.708  16.253  0.0260 -0.1519 -0.3031
 1178POPC   GL214128  10.379  11.832  16.488 -0.2006  0.0745  0.3256
 1178POPC   C1A14129  10.341  11.362  16.546 -0.0501  0.1232 -0.1549
 1178POPC   D2A14130  10.317  11.008  16.907  0.0091  0.0359 -0.1312
 1178POPC   C3A14131  10.046  10.806  17.226  0.0528 -0.2746  0.0526
 1178POPC   C4A14132   9.903  10.576  17.644  0.1385 -0.4309  0.1347
 1178POPC   C1B14133  10.528  11.698  16.885 -0.1941  0.0825  0.3732
 1178POPC   C2B14134  10.552  11.329  17.206  0.3491  0.1436  0.1284
 1178POPC   C3B14135  10.363  11.107  17.566  0.0882  0.1333 -0.4788
 1178POPC   C4B14136  10.413  10.699  17.773  0.1047  0.0860  0.0177
 1179POPC   NC314137   3.872   5.537  14.277 -0.0492  0.1698  0.3564
 1179POPC   PO414138   3.905   5.704  14.598  0.2042  0.1689  0.1566
 1179POPC   GL114139   4.049   6.031  14.603  0.0546 -0.2626 -0.0272
 1179POPC   GL214140   4.102   6.274  14.774 -0.0198  0.0050 -0.1309
 1179POPC   C1A14141   4.430   5.984  14.926  0.0286 -0.1164  0.1827
 1179POPC   D2A14142   4.647   5.821  15.298  0.0986  0.1445 -0.1097
 1179POPC   C3A14143   5.067   5.726  15.308 -0.4590  0.2457  0.0825
 1179POPC   C4A14144   5.482   5.918  15.469 -0.1438  0.1690  0.0809
 1179POPC   C1B14145   4.331   6.440  15.166  0.3712 -0.2838  0.0255
 1179POPC   C2B14146   4.607   6.774  15.428 -0.0591 -0.3807 -0.0425
 1179POPC   C3B14147   5.011   6.868  15.541 -0.1155 -0.3278  0.2391
 1179POPC   C4B14148   5.270   6.882  15.975 -0.0555 -0.0779 -0.1953
 1180POPC   NC314149  13.015  10.201  16.214  0.3173 -0.1083 -0.0937
 1180POPC   PO414150  13.034  10.002  15.893 -0.0438  0.2156  0.0033
 1180POPC   GL114151  13.057   9.767  16.098  0.0068 -0.1958 -0.4230
 1180POPC   GL214152  12.730   9.706  16.120 -0.0765  0.0186 -0.1411
 1180POPC   C1A14153  12.969   9.574  16.507 -0.1125  0.0760  0.2941
 1180POPC   D2A14154  13.078   9.363  16.900  0.0069 -0.3856  0.3614
 1180POPC   C3A14155  13.299   9.240  17.244 -0.0291 -0.2218  0.2014
 1180POPC   C4A14156  13.105   9.012  17.601  0.0414  0.1490 -0.0492
 1180POPC   C1B14157  12.502   9.406  16.423  0.2377  0.2097  0.0542
 1180POPC   C2B14158  12.354   9.304  16.860 -0.1368 -0.1088 -0.0786
 1180POPC   C3B14159  12.214   9.162  17.322 -0.0522  0.1055  0.0715
 1180POPC   C4B14160  12.055   9.173  17.741 -0.1301  0.0023  0.0974
 1181POPC   NC314161   7.002  13.734  16.039  0.0222 -0.4127  0.0417
 1181POPC   PO414162   7.049  13.570  16.369  0.1919 -0.0909  0.2563
 1181POPC   GL114163   7.262  13.767  16.723 -0.0762  0.0027  0.1112
 1181POPC   GL214164   7.528  13.949  16.735  0.0276  0.0316  0.3051
 1181POPC   C1A14165   7.532  13.620  17.110 -0.0666 -0.0194 -0.1483
 1181POPC   D2A14166   7.771  13.608  17.518  0.1890  0.1571  0.0391
 1181POPC   C3A14167   7.888  13.257  17.826  0.2493 -0.4463  0.3800
 1181POPC   C4A14168   7.953  12.980  18.204 -0.2220  0.2024 -0.0340
 1181POPC   C1B14169   7.708  14.047  17.144  0.0742  0.1328  0.0364
 1181POPC   C2B14170   7.676  14.113  17.582  0.0921  0.3840 -0.0330
 1181POPC   C3B14171   7.681  14.297  18.017 -0.1768 -0.2404  0.0762
 1181POPC   C4B14172   7.363  14.369  18.365  0.1158 -0.2624 -0.1239
 1182POPC   NC314173   0.355   8.219  16.037  0.2212 -0.0297 -0.1766
 1182POPC   PO414174   0.323   7.890  15.827  0.3226 -0.0708 -0.1956
 1182POPC   GL114175   0.240   7.806  16.208  0.2399 -0.1010  0.0366
 1182POPC   GL214176  -0.080   7.691  16.241 -0.0232 -0.0361  0.0831
 1182POPC   C1A14177   0.433   7.862  16.602 -0.0160  0.2291 -0.0236
 1182POPC   D2A14178   0.408   7.893  17.084  0.1283  0.0147  0.1888
 1182POPC   C3A14179   0.672   8.041  17.437  0.0250  0.5361  0.2888
 1182POPC   C4A14180   0.790   8.415  17.690  0.0633  0.0599 -0.0320
 1182POPC   C1B14181  -0.275   7.321  16.439  0.3085  0.1768 -0.2567
 1182POPC   C2B14182  -0.279   6.966  16.768  0.1607  0.0084  0.0264
 1182POPC   C3B14183  -0.538   6.613  17.027 -0.1926 -0.4270  0.2570
 1182POPC   C4B14184  -0.506   6.381  17.428 -0.1041 -0.1191 -0.2808
 1183POPC   NC314185  15.631   1.430  15.652 -0.1477 -0.2698 -0.1666
 1183POPC   PO414186  15.901   1.212  15.865  0.3119  0.0738 -0.0483
 1183POPC   GL114187  15.722   1.234  16.225 -0.2627  0.0387  0.1916
 1183POPC   GL214188  15.478   1.292  16.202  0.1747 -0.0544  0.2700
 1183POPC   C1A14189  15.882   1.063  16.679  0.0454  0.1806  0.0397
 1183POPC   D2A14190  15.565   0.979  17.010 -0.0216 -0.0259 -0.0524
 1183POPC   C3A14191  15.437   1.036  17.421 -0.2267  0.3140  0.2285
 1183POPC   C4A14192  15.230   0.877  17.755 -0.1427  0.0197 -0.2965
 1183POPC   C1B14193  15.493   1.354  16.653 -0.0177  0.0960  0.0589
 1183POPC   C2B14194  15.317   1.582  17.011 -0.0670  0.1173 -0.0869
 1183POPC   C3B14195  15.143   1.692  17.372  0.0619 -0.2141  0.3631
 1183POPC   C4B14196  15.333   1.695  17.817  0.1086 -0.0596 -0.0194
 1184POPC   NC314197  15.730  12.341  16.442  0.0497  0.0368  0.3266
 1184POPC   PO414198  15.490  12.151  16.683 -0.0039  0.6385  0.2748
 1184POPC   GL114199  15.602  12.108  17.034 -0.0895 -0.3391  0.2928
 1184POPC   GL214200  15.588  12.331  17.228  0.1390 -0.0408  0.0765
 1184POPC   C1A14201  15.826  11.917  17.374  0.3202 -0.2618 -0.1197
 1184POPC   D2A14202  15.902  11.897  17.810 -0.0369  0.1644  0.1577
 1184POPC   C3A14203  16.132  12.124  18.161  0.1761 -0.0995 -0.0009
 1184POPC   C4A14204  16.539  12.070  18.317  0.1369  0.1195  0.1078
 1184POPC   C1B14205  15.515  12.162  17.667  0.1176 -0.0094  0.1741
 1184POPC   C2B14206  15.588  12.053  18.099 -0.0322  0.1900  0.3009
 1184POPC   C3B14207  15.788  12.030  18.510 -0.2303 -0.3325  0.0101
 1184POPC   C4B14208  15.775  11.783  18.950 -0.2030  0.1170 -0.1016
 1185POPC   NC314209  11.645  10.051  12.279  0.2875  0.0008 -0.1230
 1185POPC   PO414210  11.727   9.922  12.629 -0.5477  0.0375  0.0110
 1185POPC   GL114211  11.700   9.522  12.616  0.1325 -0.2198 -0.1533
 1185POPC   GL214212  11.383   9.545  12.445  0.0686  0.0098 -0.1443
 1185POPC   C1A14213  11.436   9.178  12.805  0.2195  0.1605 -0.1716
 1185POPC   D2A14214  11.215   8.769  12.957  0.2950 -0.1292 -0.0012
 1185POPC   C3A14215  10.771   8.894  12.878  0.0667  0.3970 -0.3562
 1185POPC   C4A14216  10.398   9.088  13.099 -0.1642  0.0022 -0.2568
 1185POPC   C1B14217  11.479   9.154  12.301  0.1056 -0.2629  0.0013
 1185POPC   C2B14218  11.423   8.715  12.039  0.0481 -0.1964  0.3204
 1185POPC   C3B14219  11.190   8.334  11.983  0.0961 -0.1326  0.3554
 1185POPC   C4B14220  10.833   8.123  12.105 -0.2640  0.0194  0.3361
 1186POPC   NC314221   9.936  11.677   9.984 -0.1557  0.0151  0.3888
 1186POPC   PO414222   9.887  11.339  10.195  0.0424 -0.2341 -0.0199
 1186POPC   GL114223   9.570  11.272  10.028 -0.0807 -0.0563 -0.0184
 1186POPC   GL214224   9.577  11.408   9.772 -0.2854  0.0690 -0.3673
 1186POPC   C1A14225   9.405  10.838   9.974 -0.0577  0.1084  0.1067
 1186POPC   D2A14226   9.231  10.459   9.747 -0.1319 -0.0003 -0.0027
 1186POPC   C3A14227   9.242  10.431   9.245 -0.3762 -0.3872 -0.0795
 1186POPC   C4A14228   9.005  10.633   8.892  0.2527  0.0521  0.2660
 1186POPC   C1B14229   9.642  10.982   9.604  0.1131  0.1478  0.1712
 1186POPC   C2B14230   9.791  10.684   9.347  0.2935 -0.1629 -0.0350
 1186POPC   C3B14231   9.933  10.526   8.919 -0.0681  0.2095  0.3306
 1186POPC   C4B14232  10.330  10.479   8.700 -0.0262  0.0829  0.1707
 1187POPC   NC314233   0.953   1.496  15.732  0.0127  0.0393 -0.1023
 1187POPC   PO414234   0.712   1.348  16.028 -0.1757 -0.1256 -0.0092
 1187POPC   GL114235   0.691   1.417  16.449  0.0906  0.0537  0.2346
 1187POPC   GL214236   0.645   1.694  16.611 -0.0286 -0.0533  0.2940
 1187POPC   C1A14237   0.862   1.382  16.888  0.2001 -0.1387  0.0791
 1187POPC   D2A14238   0.789   1.165  17.335  0.1685  0.0918 -0.2049
 1187POPC   C3A14239   0.627   1.385  17.647  0.2516  0.2137 -0.1550
 1187POPC   C4A14240   0.860   1.707  17.913 -0.1105  0.1491 -0.2170
 1187POPC   C1B14241   0.602   1.867  17.014  0.1929  0.1564 -0.2322
 1187POPC   C2B14242   0.566   1.844  17.481 -0.0834  0.1900  0.0503
 1187POPC   C3B14243   0.344   1.751  17.861  0.0126 -0.1781 -0.0924
 1187POPC   C4B14244   0.160   1.851  18.279  0.1092  0.0772 -0.1393
 1188POPC   NC314245  10.753   0.501  14.220  0.2041 -0.0676  0.0343
 1188POPC   PO414246  10.965   0.410  14.528  0.2231 -0.1445  0.0172
 1188POPC   GL114247  11.145   0.606  14.830  0.2515 -0.0692  0.1640
 1188POPC   GL214248  10.896   0.719  14.947  0.0430 -0.2421  0.1598
 1188POPC   C1A14249  11.439   0.763  15.139  0.2563  0.2938 -0.0105
 1188POPC   D2A14250  11.526   1.060  15.504 -0.1712 -0.0381  0.0146
 1188POPC   C3A14251  11.253   1.435  15.635 -0.3622 -0.1369 -0.3705
 1188POPC   C4A14252  11.430   1.926  15.721 -0.1841  0.1285 -0.0349
 1188POPC   C1B14253  10.993   0.742  15.378  0.0788 -0.3054 -0.1037
 1188POPC   C2B14254  10.932   1.087  15.735  0.0919  0.0825  0.0167
 1188POPC   C3B14255  10.568   1.393  15.851  0.0992  0.1140  0.0224
 1188POPC   C4B14256  10.338   1.771  16.031 -0.1888 -0.0170 -0.0229
 1189POPC   NC314257  15.583  12.663  16.833  0.1566  0.0799  0.1436
 1189POPC   PO414258  15.889  12.917  16.710  0.2494  0.3504 -0.1187
 1189POPC   GL114259  15.984  12.827  17.069  0.1033 -0.2805 -0.3475
 1189POPC   GL214260  16.038  13.132  17.174 -0.0330 -0.0693 -0.0902
 1189POPC   C1A14261  15.949  12.845  17.557  0.3146  0.2330  0.3597
 1189POPC   D2A14262  15.534  12.768  17.779 -0.0969 -0.1033  0.2868
 1189POPC   C3A14263  15.383  12.514  18.140  0.0450 -0.0502  0.1064
 1189POPC   C4A14264  14.975  12.600  18.401 -0.1079 -0.1700 -0.0735
 1189POPC   C1B14265  16.215  13.355  17.587  0.0466  0.0645  0.2354
 1189POPC   C2B14266  16.488  13.445  18.009  0.3086 -0.2371 -0.0375
 1189POPC   C3B14267  16.885  13.496  18.259  0.1544  0.0294 -0.0604
 1189POPC   C4B14268  17.293  13.691  18.204  0.1544 -0.1005 -0.0767
 1190POPC   NC314269  13.138   8.260  14.456  0.1885  0.2053  0.0441
 1190POPC   PO414270  13.251   7.942  14.227 -0.1315  0.4325  0.2886
 1190POPC   GL114271  12.887   7.678  14.410 -0.0131 -0.0260 -0.0826
 1190POPC   GL214272  12.966   7.528  14.670 -0.2902  0.1526  0.1670
 1190POPC   C1A14273  12.521   7.385  14.207 -0.0271  0.1810  0.4845
 1190POPC   D2A14274  12.025   7.294  14.226 -0.0135  0.3043 -0.2775
 1190POPC   C3A14275  11.848   7.001  14.500 -0.0972 -0.4882  0.0058
 1190POPC   C4A14276  11.894   6.631  14.726  0.0062  0.3006  0.1006
 1190POPC   C1B14277  12.753   7.493  15.040 -0.0986  0.1588 -0.0397
 1190POPC   C2B14278  12.360   7.557  15.216  0.1448  0.0880 -0.0474
 1190POPC   C3B14279  12.067   7.914  15.303 -0.0449 -0.0794 -0.0734
 1190POPC   C4B14280  11.852   8.252  15.102 -0.0847  0.1564  0.3281
 1191POPC   NC314281  14.058   7.671  15.584 -0.0119 -0.0552  0.1653
 1191POPC   PO414282  13.769   7.881  15.454 -0.3198  0.0993 -0.1005
 1191POPC   GL114283  13.729   7.811  15.900  0.2200  0.0926 -0.0857
 1191POPC   GL214284  13.899   7.765  16.106 -0.0622  0.1559 -0.1877
 1191POPC   C1A14285  13.430   7.968  16.226 -0.2762 -0.0743  0.1177
 1191POPC   D2A14286  13.109   7.942  16.555  0.0479  0.0619  0.1365
 1191POPC   C3A14287  13.271   7.654  16.908 -0.1158  0.2158  0.3275
 1191POPC   C4A14288  13.352   7.290  16.889 -0.0029 -0.3254 -0.0354
 1191POPC   C1B14289  14.000   7.929  16.503  0.1675 -0.1740 -0.0005
 1191POPC   C2B14290  13.896   7.783  16.957 -0.1143 -0.0285 -0.1241
 1191POPC   C3B14291  13.674   7.515  17.232  0.0451 -0.0803 -0.0986
 1191POPC   C4B14292  13.295   7.296  17.394  0.0983 -0.2019 -0.0509
 1192POPC   NC314293  15.427   9.019  15.831  0.1034  0.2940 -0.1411
 1192POPC   PO414294  15.222   9.315  16.005 -0.0892 -0.0610 -0.0894
 1192POPC   GL114295  15.192   9.224  16.473  0.4122  0.1068 -0.1329
 1192POPC   GL214296  15.152   9.000  16.528  0.2304  0.2770  0.1016
 1192POPC   C1A14297  14.919   9.290  16.836  0.2238  0.3482 -0.1539
 1192POPC   D2A14298  14.578   9.475  17.082  0.0926 -0.1645 -0.0741
 1192POPC   C3A14299  14.551   9.517  17.559  0.0873  0.0691 -0.1930
 1192POPC   C4A14300  14.591   9.566  18.038 -0.1061  0.0174  0.0972
 1192POPC   C1B14301  15.167   8.863  16.974 -0.0292  0.0039  0.2700
 1192POPC   C2B14302  15.314   8.844  17.354 -0.3317 -0.1522  0.2650
 1192POPC   C3B14303  15.407   8.774  17.813 -0.1680 -0.4189  0.1336
 1192POPC   C4B14304  15.844   8.891  18.071  0.1065 -0.1184  0.3843
 1193POPC   NC314305  11.787  13.796  16.154  0.0401 -0.2071  0.1628
 1193POPC   PO414306  11.886  13.598  16.464  0.2829  0.1093 -0.0933
 1193POPC   GL114307  11.713  13.590  16.819 -0.3728 -0.0152  0.0418
 1193POPC   GL214308  11.524  13.761  16.798  0.1605  0.3295  0.0697
 1193POPC   C1A14309  11.644  13.692  17.282  0.2169 -0.2085 -0.2975
 1193POPC   D2A14310  11.662  13.770  17.787  0.2422  0.0627  0.0551
 1193POPC   C3A14311  12.080  13.752  18.075 -0.1895  0.1485 -0.1236
 1193POPC   C4A14312  12.243  13.707  18.482  0.1164 -0.2675  0.0789
 1193POPC   C1B14313  11.193  13.832  17.082  0.2404 -0.0866 -0.0845
 1193POPC   C2B14314  11.242  13.800  17.557  0.2557  0.1271  0.3266
 1193POPC   C3B14315  11.308  14.081  17.879  0.0248 -0.2513  0.0245
 1193POPC   C4B14316  11.397  14.147  18.307  0.0553  0.1501 -0.1132
 1194POPC   NC314317  13.073   0.737  14.750  0.2469  0.0098  0.4401
 1194POPC   PO414318  12.981   1.117  14.760  0.0924 -0.1448 -0.1918
 1194POPC   GL114319  12.786   1.431  14.747 -0.1921 -0.1384  0.0727
 1194POPC   GL214320  12.881   1.519  14.426  0.0738  0.0602  0.0646
 1194POPC   C1A14321  12.573   1.834  14.773  0.1738 -0.0590  0.4147
 1194POPC   D2A14322  12.458   2.316  14.834  0.1775  0.3162 -0.1876
 1194POPC   C3A14323  12.164   2.632  14.711  0.2048 -0.1975  0.3092
 1194POPC   C4A14324  11.888   2.971  14.851  0.0446 -0.0235  0.1585
 1194POPC   C1B14325  12.467   1.745  14.269 -0.2329  0.0293 -0.1692
 1194POPC   C2B14326  12.229   2.074  14.459 -0.0567 -0.1689  0.0526
 1194POPC   C3B14327  11.823   2.190  14.557  0.2412 -0.0127 -0.0638
 1194POPC   C4B14328  11.534   1.953  14.803  0.1147 -0.0596 -0.1659
 1195POPC   NC314329   8.627  14.410  15.988 -0.3958 -0.1291 -0.1281
 1195POPC   PO414330   8.623  14.834  15.964  0.0384 -0.0437  0.0272
 1195POPC   GL114331   8.888  15.069  16.290 -0.1445  0.0094  0.0583
 1195POPC   GL214332   8.762  15.237  16.495 -0.1260 -0.2454  0.2055
 1195POPC   C1A14333   9.027  15.509  16.164  0.1637 -0.1150 -0.1167
 1195POPC   D2A14334   9.241  15.905  16.149  0.0781  0.2020  0.0629
 1195POPC   C3A14335   9.335  16.155  16.534  0.0660 -0.2817 -0.3137
 1195POPC   C4A14336   9.400  16.079  16.949  0.0360  0.3189  0.0262
 1195POPC   C1B14337   8.852  15.345  16.937  0.0263  0.1390 -0.0960
 1195POPC   C2B14338   8.888  15.532  17.409  0.1055  0.1102 -0.0543
 1195POPC   C3B14339   9.030  15.715  17.833 -0.0974  0.0119 -0.1148
 1195POPC   C4B14340   9.006  15.827  18.248  0.0394 -0.0405 -0.2265
 1196POPC   NC314341  15.062  11.941  16.461  0.3319  0.1355  0.0688
 1196POPC   PO414342  14.845  12.236  16.507  0.1496 -0.0738 -0.0227
 1196POPC   GL114343  14.742  12.235  16.866 -0.3338 -0.0771 -0.1600
 1196POPC   GL214344  14.541  12.402  16.945 -0.5830  0.1011 -0.2982
 1196POPC   C1A14345  14.958  12.002  17.255  0.0180 -0.0358 -0.3100
 1196POPC   D2A14346  14.889  11.754  17.630 -0.1329  0.0938 -0.0794
 1196POPC   C3A14347  14.623  11.367  17.637 -0.2312 -0.0611 -0.0077
 1196POPC   C4A14348  14.372  11.132  17.927  0.0844  0.2392 -0.1169
 1196POPC   C1B14349  14.685  12.358  17.378 -0.0091  0.0098 -0.2142
 1196POPC   C2B14350  14.643  12.624  17.768 -0.2847 -0.0298 -0.2504
 1196POPC   C3B14351  14.369  12.536  18.138  0.3078  0.0947  0.0040
 1196POPC   C4B14352  14.244  12.515  18.590 -0.0074 -0.4342 -0.1346
 1197POPC   NC314353   4.162   3.676  14.449  0.0928  0.2562 -0.2573
 1197POPC   PO414354   4.087   4.050  14.384  0.1018  0.3449 -0.1841
 1197POPC   GL114355   4.475   3.925  14.611 -0.0122 -0.2182  0.2409
 1197POPC   GL214356   4.509   4.256  14.809  0.2760 -0.2199  0.1949
 1197POPC   C1A14357   4.813   3.905  14.921 -0.1594  0.1350 -0.2464
 1197POPC   D2A14358   4.989   3.569  15.214 -0.1449  0.0223  0.0247
 1197POPC   C3A14359   5.203   3.906  15.403 -0.1057 -0.0416 -0.0872
 1197POPC   C4A14360   5.475   4.108  15.689 -0.0340  0.1061  0.1273
 1197POPC   C1B14361   4.853   4.385  15.117 -0.1065 -0.1942 -0.0977
 1197POPC   C2B14362   5.087   4.545  15.456  0.0269  0.1714  0.1325
 1197POPC   C3B14363   5.361   4.568  15.834 -0.0060  0.1681 -0.1161
 1197POPC   C4B14364   5.723   4.447  16.071 -0.1269  0.1120 -0.1410
 1198POPC   NC314365  11.570  31.946  15.358 -0.2798  0.0451 -0.2353
 1198POPC   PO414366  11.200  32.058  15.227 -0.2233  0.1637 -0.2168
 1198POPC   GL114367  11.167  32.066  15.669 -0.0752  0.1243  0.0781
 1198POPC   GL214368  11.474  32.121  15.820  0.1807  0.3201 -0.0985
 1198POPC   C1A14369  11.025  32.423  15.892  0.0655 -0.0682  0.2105
 1198POPC   D2A14370  10.695  32.696  16.120  0.1213 -0.2830 -0.1297
 1198POPC   C3A14371  10.623  32.840  16.565 -0.0901  0.2500  0.2396
 1198POPC   C4A14372  10.481  32.957  17.001  0.0050  0.3786  0.1968
 1198POPC   C1B14373  11.608  31.971  16.208 -0.0419 -0.1504 -0.2628
 1198POPC   C2B14374  11.428  31.912  16.648  0.1083 -0.0558 -0.1620
 1198POPC   C3B14375  11.401  32.135  17.070  0.4235 -0.1044 -0.3604
 1198POPC   C4B14376  11.484  32.346  17.452  0.1732  0.2977  0.2936
 1199POPC   NC314377  13.930   1.227  14.890  0.0720 -0.0683  0.1193
 1199POPC   PO414378  13.874   1.624  14.906  0.3473  0.4413  0.2230
 1199POPC   GL114379  13.659   1.638  15.206  0.0051 -0.2683  0.0891
 1199POPC   GL214380  13.821   1.493  15.393 -0.3027 -0.3684  0.2060
 1199POPC   C1A14381  13.582   1.916  15.608  0.2054  0.2111 -0.2333
 1199POPC   D2A14382  13.304   2.143  15.930  0.2393 -0.2506 -0.1402
 1199POPC   C3A14383  12.867   2.009  16.089 -0.1184  0.1015 -0.0698
 1199POPC   C4A14384  12.521   1.812  15.940  0.0893  0.0309 -0.1089
 1199POPC   C1B14385  13.573   1.442  15.777  0.0809 -0.0482 -0.3963
 1199POPC   C2B14386  13.432   1.642  16.178  0.2523 -0.2060  0.3508
 1199POPC   C3B14387  13.229   1.947  16.443 -0.0193 -0.1585  0.1649
 1199POPC   C4B14388  13.231   2.375  16.371  0.2539  0.2443  0.0749
 1200POPC   NC314389  14.529   7.264  12.343  0.0308 -0.2732  0.0570
 1200POPC   PO414390  14.177   7.158  12.083 -0.1245  0.1861 -0.3716
 1200POPC   GL114391  13.914   7.364  11.779  0.1140  0.0596  0.0728
 1200POPC   GL214392  13.749   7.112  11.821 -0.1016  0.1792  0.0496
 1200POPC   C1A14393  13.726   7.461  11.339  0.1159  0.1276  0.1271
 1200POPC   D2A14394  13.773   7.129  11.020 -0.2765  0.1891 -0.1044
 1200POPC   C3A14395  13.613   7.071  10.593 -0.1595  0.0467  0.1923
 1200POPC   C4A14396  13.242   6.787  10.483 -0.3919 -0.1386 -0.0090
 1200POPC   C1B14397  13.472   7.033  11.471 -0.0157 -0.2542 -0.0125
 1200POPC   C2B14398  13.310   6.878  11.042  0.1574  0.1007 -0.1662
 1200POPC   C3B14399  12.920   6.967  10.863 -0.2734 -0.0983 -0.1769
 1200POPC   C4B14400  12.780   7.090  10.453 -0.0652  0.2177  0.2864
 1201POPC   NC314401   7.044  12.110   9.720  0.0214 -0.2517 -0.2475
 1201POPC   PO414402   6.927  11.901  10.076  0.0305 -0.1122  0.2199
 1201POPC   GL114403   6.968  11.652   9.783 -0.3570  0.1970 -0.0350
 1201POPC   GL214404   7.059  11.347   9.823 -0.2228 -0.1383 -0.0124
 1201POPC   C1A14405   7.125  11.721   9.345  0.2813 -0.0211 -0.1828
 1201POPC   D2A14406   7.304  11.936   8.992  0.0184  0.0418  0.0457
 1201POPC   C3A14407   7.442  11.893   8.533 -0.0717  0.0392 -0.0024
 1201POPC   C4A14408   7.550  11.768   8.099  0.3261 -0.1394 -0.1872
 1201POPC   C1B14409   7.180  11.193   9.416 -0.2611  0.0929  0.0243
 1201POPC   C2B14410   7.568  10.962   9.221  0.1147 -0.0939  0.0112
 1201POPC   C3B14411   7.947  10.915   8.921  0.0024  0.1335  0.0118
 1201POPC   C4B14412   8.277  10.861   8.606  0.1104  0.1087 -0.1330
 1202POPC   NC314413  14.756   7.420  15.967  0.1507 -0.2772 -0.1999
 1202POPC   PO414414  14.495   7.698  16.042  0.1211 -0.0063  0.1602
 1202POPC   GL114415  14.631   7.590  16.418 -0.1228  0.5424 -0.3187
 1202POPC   GL214416  14.522   7.818  16.571 -0.1165 -0.2444 -0.0095
 1202POPC   C1A14417  14.616   7.231  16.729 -0.1006 -0.2066  0.2737
 1202POPC   D2A14418  14.592   6.942  17.176  0.1158 -0.1437  0.0413
 1202POPC   C3A14419  14.149   6.854  17.332  0.1054 -0.2674  0.1737
 1202POPC   C4A14420  14.105   6.791  17.789  0.1099 -0.1187  0.0260
 1202POPC   C1B14421  14.368   7.606  16.936 -0.2904  0.2447  0.1173
 1202POPC   C2B14422  14.207   7.383  17.325  0.3264 -0.0108 -0.1529
 1202POPC   C3B14423  13.797   7.144  17.501 -0.0405  0.0450 -0.4271
 1202POPC   C4B14424  13.661   6.691  17.557  0.0279  0.0924 -0.2341
 1203POPC   NC314425   4.520   8.255   9.938  0.1203 -0.2350 -0.0677
 1203POPC   PO414426   4.735   8.210  10.247 -0.2263  0.3906 -0.0226
 1203POPC   GL114427   5.026   8.120   9.963 -0.0483  0.1253 -0.2057
 1203POPC   GL214428   4.952   7.857   9.756  0.1838  0.0384 -0.1698
 1203POPC   C1A14429   5.405   7.811   9.940 -0.1792 -0.2323  0.3776
 1203POPC   D2A14430   5.552   7.384   9.750  0.2220  0.1366 -0.0719
 1203POPC   C3A14431   5.836   7.333   9.404 -0.0761 -0.1790 -0.0790
 1203POPC   C4A14432   6.311   7.223   9.472 -0.0579 -0.1910 -0.0501
 1203POPC   C1B14433   5.045   7.389   9.856 -0.1159 -0.2224 -0.0089
 1203POPC   C2B14434   5.179   6.965   9.824  0.4379 -0.1706  0.0384
 1203POPC   C3B14435   5.274   6.658   9.484  0.0603  0.0829  0.1858
 1203POPC   C4B14436   5.173   6.472   9.048  0.0232 -0.0042 -0.1227
 1204POPC   NC314437   2.604   6.806  15.913  0.1855 -0.0404  0.1209
 1204POPC   PO414438   2.614   6.467  15.666 -0.0638 -0.1346 -0.0870
 1204POPC   GL114439   2.764   6.210  16.004 -0.2537  0.1578  0.1181
 1204POPC   GL214440   2.677   6.401  16.169  0.1477  0.0977 -0.2095
 1204POPC   C1A14441   2.606   5.900  16.353 -0.2000 -0.0043 -0.2693
 1204POPC   D2A14442   2.493   5.801  16.782 -0.2474 -0.0412  0.0743
 1204POPC   C3A14443   2.744   6.076  17.097  0.0264 -0.3398 -0.0392
 1204POPC   C4A14444   3.094   6.232  17.415  0.0487  0.1230 -0.0770
 1204POPC   C1B14445   2.863   6.265  16.591 -0.1758  0.0527 -0.1354
 1204POPC   C2B14446   3.177   6.267  16.915  0.1087 -0.0468 -0.2338
 1204POPC   C3B14447   3.333   5.867  17.133 -0.1810  0.4587  0.1864
 1204POPC   C4B14448   3.123   5.682  17.527  0.1673  0.0665 -0.0304
 1205POPC   NC314449   5.254   5.420  10.935  0.1075 -0.2875 -0.1300
 1205POPC   PO414450   5.419   5.787  10.891 -0.0028  0.2537 -0.1429
 1205POPC   GL114451   5.775   5.727  10.666 -0.1333 -0.2002  0.0942
 1205POPC   GL214452   5.939   5.722  10.898 -0.1566 -0.1017  0.1346
 1205POPC   C1A14453   6.141   5.940  10.447  0.1520  0.0542 -0.0651
 1205POPC   D2A14454   6.576   5.964  10.494  0.2273  0.0946 -0.0910
 1205POPC   C3A14455   6.951   5.697  10.214  0.4333  0.3945 -0.3153
 1205POPC   C4A14456   7.349   5.475  10.186  0.0202 -0.1346 -0.3000
 1205POPC   C1B14457   6.338   5.917  10.930  0.0343  0.0288 -0.1118
 1205POPC   C2B14458   6.716   5.760  10.911  0.1132  0.2229  0.1616
 1205POPC   C3B14459   7.133   5.714  11.160  0.0120 -0.1653 -0.1594
 1205POPC   C4B14460   7.520   5.430  11.122 -0.0429 -0.1746  0.0003
 1206POPC   NC314461   4.476  13.994  16.127  0.0739 -0.1653 -0.0158
 1206POPC   PO414462   4.807  13.953  16.340  0.0245  0.2115  0.1442
 1206POPC   GL114463   4.782  14.033  16.680  0.4281  0.0100  0.0136
 1206POPC   GL214464   4.626  13.822  16.828 -0.1137 -0.1285 -0.0450
 1206POPC   C1A14465   4.969  14.176  17.055 -0.0825 -0.2248  0.4017
 1206POPC   D2A14466   5.179  14.127  17.488 -0.1218  0.1445  0.5664
 1206POPC   C3A14467   4.838  14.341  17.649  0.4262  0.1850 -0.0816
 1206POPC   C4A14468   4.719  14.514  18.040  0.0609 -0.0690 -0.6096
 1206POPC   C1B14469   4.778  13.791  17.263 -0.2578  0.3259  0.1364
 1206POPC   C2B14470   4.734  13.840  17.690  0.0875 -0.1975  0.0479
 1206POPC   C3B14471   4.949  14.077  18.049  0.0645 -0.5222 -0.1386
 1206POPC   C4B14472   5.278  14.018  18.316  0.0032 -0.1072 -0.2167
 1207POPC   NC314473   2.446  14.313  16.883  0.2064  0.2026  0.1251
 1207POPC   PO414474   2.560  14.665  16.691 -0.0785  0.1273 -0.2779
 1207POPC   GL114475   2.288  14.986  16.979 -0.0947 -0.2777 -0.0996
 1207POPC   GL214476   2.510  15.021  17.185 -0.0554 -0.4196 -0.0859
 1207POPC   C1A14477   2.005  14.845  17.366  0.1532  0.0245  0.1002
 1207POPC   D2A14478   1.817  14.965  17.767 -0.0185 -0.0800  0.2652
 1207POPC   C3A14479   2.015  15.161  18.114 -0.1124 -0.1042  0.2558
 1207POPC   C4A14480   2.345  15.266  18.340 -0.0392 -0.0275  0.0933
 1207POPC   C1B14481   2.412  14.872  17.674 -0.0836  0.1764  0.1715
 1207POPC   C2B14482   2.494  14.876  18.100 -0.0003 -0.1598  0.1727
 1207POPC   C3B14483   2.823  14.960  18.458 -0.2987  0.1513 -0.3077
 1207POPC   C4B14484   3.091  15.045  18.786  0.0257  0.0713  0.0232
 1208POPC   NC314485   2.364   5.309   9.181  0.0685 -0.1452  0.1099
 1208POPC   PO414486   2.691   5.481   9.043  0.2063 -0.1181  0.3699
 1208POPC   GL114487   2.826   5.527   8.633 -0.0651  0.0405 -0.0616
 1208POPC   GL214488   2.929   5.185   8.608  0.1223  0.1852  0.1229
 1208POPC   C1A14489   2.971   5.575   8.214  0.0101  0.2080  0.1550
 1208POPC   D2A14490   3.046   5.889   7.899 -0.2208  0.0102 -0.0396
 1208POPC   C3A14491   2.921   5.755   7.488  0.0862  0.2036 -0.0701
 1208POPC   C4A14492   2.845   5.965   7.040  0.1069  0.3281  0.0862
 1208POPC   C1B14493   2.883   5.021   8.187  0.1720  0.2474 -0.0843
 1208POPC   C2B14494   2.597   4.767   7.927 -0.3309 -0.0940  0.0856
 1208POPC   C3B14495   2.469   4.663   7.534 -0.2386 -0.0022 -0.0610
 1208POPC   C4B14496   2.232   4.654   7.142 -0.3182  0.1119  0.2049
 1209POPC   NC314497  10.542  12.138  16.155 -0.2316 -0.3012  0.2136
 1209POPC   PO414498  10.930  12.183  16.062 -0.0060  0.0859  0.1686
 1209POPC   GL114499  10.919  11.960  16.364  0.1881 -0.2296 -0.0446
 1209POPC   GL214500  10.848  12.038  16.594  0.4530 -0.0188  0.0655
 1209POPC   C1A14501  10.821  11.472  16.426  0.3180  0.0006  0.1127
 1209POPC   D2A14502  10.865  11.128  16.741 -0.1012 -0.0760  0.4202
 1209POPC   C3A14503  10.798  10.758  16.970 -0.0892 -0.0064 -0.1451
 1209POPC   C4A14504  10.742  10.341  17.027  0.1662 -0.0381  0.1564
 1209POPC   C1B14505  10.891  12.475  16.791  0.0189  0.3047  0.0124
 1209POPC   C2B14506  10.947  12.476  17.260 -0.0026 -0.2414 -0.1128
 1209POPC   C3B14507  11.153  12.447  17.648 -0.2043  0.3892 -0.0432
 1209POPC   C4B14508  11.193  12.415  18.121 -0.0059 -0.2139  0.5446
 1210POPC   NC314509  13.714   7.697  13.708 -0.1918 -0.0708  0.1707
 1210POPC   PO414510  13.648   7.527  13.369 -0.0161 -0.2363 -0.0350
 1210POPC   GL114511  13.205   7.595  13.378 -0.0694 -0.2515 -0.0970
 1210POPC   GL214512  13.218   7.604  13.152 -0.0714 -0.0656 -0.0824
 1210POPC   C1A14513  12.841   7.344  13.366  0.1299  0.2256  0.3857
 1210POPC   D2A14514  12.819   7.038  13.684  0.1371  0.0524  0.0405
 1210POPC   C3A14515  12.467   6.971  13.944 -0.0754  0.0504 -0.0615
 1210POPC   C4A14516  12.025   6.982  13.807 -0.1398  0.0654  0.1496
 1210POPC   C1B14517  12.922   7.438  12.862 -0.2957  0.1598 -0.1855
 1210POPC   C2B14518  12.775   7.145  12.512  0.0357  0.2110 -0.1523
 1210POPC   C3B14519  12.513   7.078  12.123  0.1529 -0.0198 -0.3952
 1210POPC   C4B14520  12.445   6.724  11.831 -0.0716  0.0586  0.2848
 1211POPC   NC314521  13.692  11.707   9.322  0.1115 -0.0981  0.1485
 1211POPC   PO414522  13.316  11.740   9.378 -0.1030  0.2345  0.2112
 1211POPC   GL114523  13.157  11.543   9.069 -0.2938  0.0141  0.0116
 1211POPC   GL214524  12.866  11.601   9.119  0.2393  0.1838 -0.2280
 1211POPC   C1A14525  13.369  11.452   8.644 -0.0759  0.1111 -0.2089
 1211POPC   D2A14526  13.471  11.193   8.311 -0.1063 -0.1159 -0.3033
 1211POPC   C3A14527  13.506  11.220   7.835  0.0376  0.2061  0.0062
 1211POPC   C4A14528  13.523  11.447   7.447 -0.0190 -0.1901  0.3489
 1211POPC   C1B14529  12.946  11.669   8.649 -0.1797  0.0572 -0.3334
 1211POPC   C2B14530  13.084  11.531   8.230 -0.1375 -0.2285 -0.1489
 1211POPC   C3B14531  13.118  11.534   7.752  0.2279 -0.3182  0.1836
 1211POPC   C4B14532  13.054  11.198   7.417 -0.2090 -0.2322 -0.4029
 1212POPC   NC314533   6.743  14.376  15.944  0.0253  0.1393  0.2291
 1212POPC   PO414534   7.137  14.253  15.979  0.0464  0.1653 -0.0044
 1212POPC   GL114535   7.036  14.338  16.349  0.3010 -0.0061 -0.2048
 1212POPC   GL214536   7.082  14.158  16.525  0.1796 -0.0667 -0.1037
 1212POPC   C1A14537   7.293  14.702  16.565 -0.0482 -0.0552 -0.2135
 1212POPC   D2A14538   7.203  15.025  16.866 -0.1228 -0.2338  0.2590
 1212POPC   C3A14539   7.354  14.967  17.300 -0.1679  0.0281  0.0157
 1212POPC   C4A14540   7.466  15.098  17.770 -0.0560 -0.1223 -0.1069
 1212POPC   C1B14541   7.217  14.379  16.959  0.1413 -0.1829  0.0964
 1212POPC   C2B14542   7.243  14.318  17.447 -0.4119  0.1380 -0.2271
 1212POPC   C3B14543   7.184  14.231  17.890  0.0306 -0.1104  0.1110
 1212POPC   C4B14544   7.111  13.928  18.257 -0.2694 -0.0979 -0.0569
 1213POPC   NC314545  12.623  32.685  14.629 -0.0202  0.2106 -0.0774
 1213POPC   PO414546  12.271  32.922  14.655  0.0576 -0.0771 -0.0692
 1213POPC   GL114547  12.431  32.990  15.033  0.0667 -0.1399  0.2408
 1213POPC   GL214548  12.475  33.299  15.065  0.1680 -0.0562 -0.1717
 1213POPC   C1A14549  12.087  33.108  15.357  0.1565  0.0898 -0.0590
 1213POPC   D2A14550  12.175  33.241  15.834  0.2017  0.1905  0.2666
 1213POPC   C3A14551  12.528  33.090  16.110  0.5167 -0.0759  0.1138
 1213POPC   C4A14552  12.906  32.787  16.080 -0.2511 -0.0162 -0.0025
 1213POPC   C1B14553  12.314  33.573  15.437 -0.2286 -0.3051 -0.1935
 1213POPC   C2B14554  12.064  33.910  15.699 -0.1132  0.1720  0.3343
 1213POPC   C3B14555  11.828  34.248  15.845  0.2464 -0.3254 -0.4744
 1213POPC   C4B14556  11.766  34.576  16.198  0.0720 -0.1380  0.0030
 1214POPC   NC314557   3.667  32.780  15.929 -0.2661  0.1556 -0.0576
 1214POPC   PO414558   3.730  32.402  15.866 -0.1334 -0.0724 -0.0642
 1214POPC   GL114559   3.952  32.494  16.184 -0.1479  0.6905 -0.4881
 1214POPC   GL214560   3.703  32.434  16.374  0.0100  0.0703 -0.0744
 1214POPC   C1A14561   4.143  32.731  16.516 -0.1129 -0.1427  0.0377
 1214POPC   D2A14562   4.232  33.063  16.823 -0.2285 -0.2474 -0.0363
 1214POPC   C3A14563   4.272  33.119  17.285 -0.5316  0.0685  0.2023
 1214POPC   C4A14564   4.402  32.884  17.704  0.1389 -0.0415 -0.2067
 1214POPC   C1B14565   3.705  32.266  16.807  0.1145  0.1082 -0.0329
 1214POPC   C2B14566   3.855  32.279  17.292 -0.1530  0.2410  0.2640
 1214POPC   C3B14567   4.353  32.367  17.432  0.2281 -0.1262 -0.1353
 1214POPC   C4B14568   4.631  32.428  17.793 -0.2845 -0.1466 -0.2634
 1215POPC   NC314569  13.278   7.403  14.318  0.0115 -0.0739 -0.3860
 1215POPC   PO414570  13.490   7.338  14.672 -0.0115 -0.2680 -0.2933
 1215POPC   GL114571  13.227   7.149  14.851  0.0345 -0.2495  0.3937
 1215POPC   GL214572  13.230   7.290  15.131  0.1465 -0.1498  0.1253
 1215POPC   C1A14573  12.800   6.929  14.814 -0.0166  0.2485 -0.1075
 1215POPC   D2A14574  12.445   6.981  14.510 -0.0874  0.0185  0.0301
 1215POPC   C3A14575  12.206   6.719  14.240  0.2812  0.1690  0.0613
 1215POPC   C4A14576  12.078   6.319  14.001  0.1470 -0.1188  0.1393
 1215POPC   C1B14577  13.199   6.940  15.447 -0.2695 -0.0097 -0.1938
 1215POPC   C2B14578  13.066   7.002  15.929 -0.0343  0.2743 -0.0943
 1215POPC   C3B14579  12.692   7.129  16.191 -0.2150 -0.0574  0.2574
 1215POPC   C4B14580  12.619   7.175  16.664  0.0075  0.2103 -0.0006
 1216POPC   NC314581  15.976  11.945   8.829 -0.0019  0.0455 -0.2600
 1216POPC   PO414582  15.947  11.616   8.996  0.1649 -0.2565  0.0047
 1216POPC   GL114583  15.866  11.427   8.671 -0.4446 -0.3223 -0.3130
 1216POPC   GL214584  15.772  11.663   8.510 -0.1826 -0.1314 -0.1697
 1216POPC   C1A14585  15.891  11.189   8.297  0.1013  0.5201  0.2688
 1216POPC   D2A14586  15.904  11.058   7.798  0.0540  0.3452 -0.0299
 1216POPC   C3A14587  15.875  10.907   7.371 -0.1064 -0.0563 -0.0326
 1216POPC   C4A14588  15.846  10.621   7.034 -0.2457 -0.1277 -0.1618
 1216POPC   C1B14589  15.705  11.609   8.043  0.3058 -0.0510 -0.1861
 1216POPC   C2B14590  15.383  11.765   7.779 -0.2939  0.1742  0.4022
 1216POPC   C3B14591  15.228  11.705   7.361 -0.3496  0.1812  0.0580
 1216POPC   C4B14592  15.130  11.488   6.981 -0.2863  0.2565 -0.1402
 1217POPC   NC314593   1.411  14.296  16.834 -0.1546 -0.1804 -0.2332
 1217POPC   PO414594   1.052  14.210  16.917 -0.2068  0.1057  0.0344
 1217POPC   GL114595   1.208  14.313  17.291 -0.5039 -0.1930  0.4242
 1217POPC   GL214596   0.935  14.424  17.380 -0.0228 -0.1244 -0.3183
 1217POPC   C1A14597   1.210  14.341  17.771 -0.3603 -0.0009  0.0651
 1217POPC   D2A14598   1.190  14.412  18.237 -0.7398  0.1350  0.0204
 1217POPC   C3A14599   1.257  14.784  18.498  0.1210  0.0380 -0.0177
 1217POPC   C4A14600   1.269  15.220  18.695  0.1521 -0.2341  0.0053
 1217POPC   C1B14601   1.150  14.829  17.492  0.2516  0.0806 -0.0357
 1217POPC   C2B14602   1.323  14.963  17.870  0.5237 -0.5934  0.3221
 1217POPC   C3B14603   1.467  15.209  18.215 -0.1994 -0.1449  0.1088
 1217POPC   C4B14604   1.700  15.634  18.249  0.0198  0.3569 -0.0370
 1218POPC   NC314605  12.898   8.679  12.245  0.1827 -0.3278  0.1412
 1218POPC   PO414606  13.168   8.566  12.001  0.0880  0.0385 -0.3197
 1218POPC   GL114607  12.804   8.320  11.912 -0.1463  0.1348  0.2269
 1218POPC   GL214608  12.776   8.333  11.630 -0.2949  0.0020  0.2938
 1218POPC   C1A14609  12.320   8.294  11.964  0.2501  0.2197  0.2524
 1218POPC   D2A14610  12.098   7.914  11.929 -0.1843 -0.0165 -0.2590
 1218POPC   C3A14611  11.789   7.626  11.942 -0.0370  0.2699 -0.2106
 1218POPC   C4A14612  11.352   7.434  11.903 -0.1274  0.1388  0.1466
 1218POPC   C1B14613  12.939   8.352  11.184  0.3928  0.0657 -0.0105
 1218POPC   C2B14614  12.719   8.089  10.873 -0.0373 -0.1990 -0.2007
 1218POPC   C3B14615  12.447   7.863  10.649  0.1303 -0.1015  0.1008
 1218POPC   C4B14616  12.402   7.472  10.638 -0.1011  0.0266 -0.1000
 1219POPC   NC314617   2.429   1.644  15.860 -0.3579  0.1938  0.2022
 1219POPC   PO414618   2.517   1.287  15.852 -0.0352 -0.0890 -0.0526
 1219POPC   GL114619   2.578   1.202  16.219 -0.1373  0.2083  0.0494
 1219POPC   GL214620   2.631   0.905  16.348 -0.1873  0.2975 -0.2174
 1219POPC   C1A14621   2.810   1.425  16.518  0.0151 -0.1006  0.3244
 1219POPC   D2A14622   3.049   1.677  16.855 -0.0359 -0.1710  0.0859
 1219POPC   C3A14623   2.935   1.775  17.240  0.0827 -0.0144 -0.2889
 1219POPC   C4A14624   2.823   1.704  17.699  0.4395  0.1742  0.2381
 1219POPC   C1B14625   2.558   0.966  16.837  0.0347 -0.1924 -0.1993
 1219POPC   C2B14626   2.440   0.863  17.220  0.1698 -0.1075  0.0597
 1219POPC   C3B14627   2.552   0.567  17.544 -0.0925  0.1496 -0.1748
 1219POPC   C4B14628   2.914   0.364  17.735  0.1019 -0.2406 -0.0491
 1220POPC   NC314629   3.739  10.933  16.291 -0.0174  0.0581  0.2115
 1220POPC   PO414630   3.567  10.578  16.342  0.1186  0.1609  0.3361
 1220POPC   GL114631   3.346  10.497  16.677 -0.1755  0.2322  0.2738
 1220POPC   GL214632   3.157  10.348  16.547 -0.0927 -0.1353 -0.1008
 1220POPC   C1A14633   3.439  10.272  17.095 -0.1534 -0.1754  0.2896
 1220POPC   D2A14634   3.345   9.983  17.418  0.3333  0.1447  0.3691
 1220POPC   C3A14635   3.537   9.917  17.804 -0.3747  0.0635  0.2488
 1220POPC   C4A14636   3.432  10.116  18.172 -0.0845 -0.1365  0.0985
 1220POPC   C1B14637   3.211   9.981  16.771 -0.0133  0.0973 -0.1709
 1220POPC   C2B14638   3.153   9.631  17.096 -0.1543 -0.3006  0.2135
 1220POPC   C3B14639   3.469   9.430  17.393  0.2180  0.0702 -0.2064
 1220POPC   C4B14640   3.542   9.315  17.855  0.1005  0.0897 -0.0861
 1221POPC   NC314641  13.953   0.476  15.712  0.0866  0.1664  0.1861
 1221POPC   PO414642  13.671   0.524  15.474 -0.2548 -0.2151  0.1426
 1221POPC   GL114643  13.554   0.496  15.936 -0.1076  0.0588  0.1842
 1221POPC   GL214644  13.566   0.764  15.972 -0.1826 -0.0308 -0.3177
 1221POPC   C1A14645  13.118   0.427  16.052  0.3948  0.1067 -0.3761
 1221POPC   D2A14646  12.753   0.689  16.171  0.2351 -0.1095 -0.2711
 1221POPC   C3A14647  12.651   1.098  16.340 -0.1503  0.1530  0.3340
 1221POPC   C4A14648  12.516   1.373  16.729 -0.0545  0.0644  0.0081
 1221POPC   C1B14649  13.635   1.113  16.227  0.0994  0.0926  0.0521
 1221POPC   C2B14650  13.591   1.438  16.592  0.0545 -0.1670  0.0692
 1221POPC   C3B14651  13.401   1.749  16.905  0.1482 -0.4132  0.0630
 1221POPC   C4B14652  13.167   1.903  17.270 -0.1508  0.1070  0.1369
 1222POPC   NC314653   6.690   1.675  13.246  0.3176 -0.0157  0.3145
 1222POPC   PO414654   6.619   1.395  13.534  0.2198  0.0090  0.0104
 1222POPC   GL114655   6.574   1.773  13.758 -0.3186 -0.1163 -0.0104
 1222POPC   GL214656   6.478   2.041  13.623  0.2126 -0.0127 -0.0670
 1222POPC   C1A14657   6.629   2.083  14.103 -0.1156 -0.0877  0.0363
 1222POPC   D2A14658   6.645   2.564  14.258 -0.2558 -0.0381 -0.1695
 1222POPC   C3A14659   6.926   2.927  14.443 -0.3185 -0.0222 -0.0523
 1222POPC   C4A14660   7.156   3.297  14.281 -0.0471 -0.0023  0.0107
 1222POPC   C1B14661   6.751   2.432  13.790 -0.2310 -0.1495 -0.3437
 1222POPC   C2B14662   7.052   2.748  13.942 -0.0577 -0.0100 -0.2135
 1222POPC   C3B14663   7.464   2.896  13.898  0.0778 -0.1548  0.1175
 1222POPC   C4B14664   7.861   3.171  13.985 -0.0965 -0.1679 -0.0797
 1223POPC   NC314665   9.860  11.103  11.694 -0.0044  0.2041  0.2121
 1223POPC   PO414666   9.836  11.015  12.063  0.2054 -0.4762  0.0289
 1223POPC   GL114667   9.803  10.651  12.063 -0.0464  0.2343 -0.2073
 1223POPC   GL214668   9.823  10.555  12.373  0.1032  0.1704 -0.2511
 1223POPC   C1A14669   9.749  10.276  11.784 -0.0118 -0.1712 -0.4007
 1223POPC   D2A14670   9.647   9.838  11.669  0.0079  0.0557 -0.1303
 1223POPC   C3A14671   9.811   9.454  11.894  0.0107  0.2270  0.0299
 1223POPC   C4A14672   9.613   9.061  12.020  0.0554  0.1587 -0.2409
 1223POPC   C1B14673   9.928  10.111  12.266  0.0864 -0.0561  0.0978
 1223POPC   C2B14674  10.177   9.735  12.199  0.1402  0.0764 -0.0633
 1223POPC   C3B14675  10.231   9.217  12.182 -0.1537 -0.0448  0.1354
 1223POPC   C4B14676   9.966   8.776  12.236 -0.1600  0.3102 -0.0729
 1224POPC   NC314677   5.998  10.447  10.199  0.2057  0.1449  0.2719
 1224POPC   PO414678   6.170  10.584   9.905 -0.1401  0.0919  0.0740
 1224POPC   GL114679   6.186  10.396   9.542  0.4232 -0.1640 -0.2634
 1224POPC   GL214680   6.400  10.261   9.578 -0.4124 -0.3894  0.1463
 1224POPC   C1A14681   6.086  10.058   9.228  0.1864  0.1000 -0.0128
 1224POPC   D2A14682   6.368   9.673   9.247  0.0195 -0.1003  0.3676
 1224POPC   C3A14683   6.696   9.604   8.976  0.1454 -0.3430 -0.0923
 1224POPC   C4A14684   6.957   9.880   8.750 -0.0816  0.4227 -0.2521
 1224POPC   C1B14685   6.585  10.544   9.204  0.1781  0.1316  0.0125
 1224POPC   C2B14686   6.717  10.358   8.784  0.1370  0.0408 -0.1768
 1224POPC   C3B14687   6.771  10.191   8.366 -0.0828 -0.1270 -0.2458
 1224POPC   C4B14688   6.984  10.093   7.949 -0.0223 -0.2475  0.2285
 1225POPC   NC314689  13.798  10.961   9.760  0.4650 -0.0928 -0.1995
 1225POPC   PO414690  13.424  10.889   9.715  0.0822  0.0614 -0.0446
 1225POPC   GL114691  13.322  10.560   9.544 -0.1384 -0.1598 -0.2353
 1225POPC   GL214692  13.571  10.542   9.417 -0.0317 -0.1570 -0.1833
 1225POPC   C1A14693  13.263  10.090   9.512  0.0148 -0.0459  0.1714
 1225POPC   D2A14694  13.250   9.649   9.293 -0.0476  0.0326  0.3228
 1225POPC   C3A14695  12.829   9.472   9.095  0.2114  0.0113 -0.1572
 1225POPC   C4A14696  12.623   9.315   8.730 -0.1795  0.1894 -0.0242
 1225POPC   C1B14697  13.372  10.636   9.027  0.0801  0.0202  0.1902
 1225POPC   C2B14698  13.240  10.607   8.551  0.0881 -0.3148 -0.0658
 1225POPC   C3B14699  13.233  10.543   8.115 -0.2802 -0.0866 -0.1988
 1225POPC   C4B14700  13.334  10.747   7.714  0.0228 -0.2812 -0.0338
 1226POPC   NC314701  11.516  10.302  11.430  0.1490 -0.0496 -0.2492
 1226POPC   PO414702  11.571  10.072  11.765  0.4329 -0.0277 -0.2134
 1226POPC   GL114703  11.314   9.846  11.573  0.4232  0.0516  0.1112
 1226POPC   GL214704  11.015   9.715  11.600 -0.0357  0.0200  0.0131
 1226POPC   C1A14705  11.403   9.399  11.400 -0.2166 -0.2357  0.1841
 1226POPC   D2A14706  11.272   8.986  11.257  0.2319  0.2755 -0.0257
 1226POPC   C3A14707  11.117   8.604  11.067  0.3197 -0.0223 -0.1895
 1226POPC   C4A14708  10.945   8.664  10.680 -0.1152 -0.1588  0.0309
 1226POPC   C1B14709  10.854   9.321  11.510  0.0195  0.3168  0.2877
 1226POPC   C2B14710  10.625   8.891  11.514  0.0383 -0.0585 -0.0577
 1226POPC   C3B14711  10.290   8.568  11.493  0.1422 -0.0697 -0.3778
 1226POPC   C4B14712  10.030   8.141  11.418  0.0640  0.0245  0.0012
 1227POPC   NC314713   1.009   0.760  15.948  0.1981 -0.0683  0.0672
 1227POPC   PO414714   1.229   1.074  15.902  0.0817 -0.1536 -0.1701
 1227POPC   GL114715   1.169   1.260  16.264  0.0678  0.0177 -0.1122
 1227POPC   GL214716   1.101   1.557  16.237  0.3474 -0.1397  0.1406
 1227POPC   C1A14717   1.357   1.354  16.638  0.2564 -0.0978  0.5028
 1227POPC   D2A14718   1.722   1.114  16.788 -0.3759 -0.2684 -0.3872
 1227POPC   C3A14719   1.744   1.033  17.239  0.6195  0.0444  0.4177
 1227POPC   C4A14720   1.724   0.949  17.668 -0.1801 -0.1192  0.2291
 1227POPC   C1B14721   1.126   1.772  16.660  0.0374  0.0955 -0.2165
 1227POPC   C2B14722   1.061   1.833  17.111 -0.1050  0.3070 -0.0615
 1227POPC   C3B14723   1.040   1.592  17.484  0.0209 -0.1790 -0.1260
 1227POPC   C4B14724   1.049   1.205  17.782 -0.0976  0.0522 -0.1970
 1228POPC   NC314725   7.033   0.366  14.762 -0.2386  0.1368  0.0670
 1228POPC   PO414726   7.262   0.663  14.625  0.0479  0.1753 -0.1696
 1228POPC   GL114727   7.382   0.907  14.853 -0.4140 -0.0812 -0.1339
 1228POPC   GL214728   7.355   1.145  14.706  0.0797 -0.1264 -0.0107
 1228POPC   C1A14729   7.300   1.160  15.244  0.0690  0.3186 -0.0767
 1228POPC   D2A14730   7.140   1.291  15.732 -0.2861  0.1548 -0.1281
 1228POPC   C3A14731   7.376   1.645  15.928  0.0092 -0.1059 -0.2322
 1228POPC   C4A14732   7.503   1.889  16.288  0.1849 -0.0324  0.2388
 1228POPC   C1B14733   7.640   1.539  14.785 -0.0415 -0.1612  0.3296
 1228POPC   C2B14734   7.824   1.970  14.835 -0.0654 -0.0585 -0.0518
 1228POPC   C3B14735   8.053   2.291  15.032  0.0129 -0.2586 -0.2540
 1228POPC   C4B14736   8.178   2.742  15.302  0.0381  0.2385  0.0303
 1229POPC   NC314737  13.746   7.025  14.992 -0.0432 -0.1297  0.2196
 1229POPC   PO414738  14.048   7.187  15.244  0.1431  0.1499 -0.2924
 1229POPC   GL114739  14.057   7.149  15.631  0.3403  0.0559 -0.1337
 1229POPC   GL214740  13.815   6.918  15.669 -0.2934  0.2532  0.0430
 1229POPC   C1A14741  14.012   7.220  16.074 -0.0626 -0.0503 -0.3192
 1229POPC   D2A14742  14.149   7.464  16.440  0.2162 -0.1109 -0.0718
 1229POPC   C3A14743  14.015   7.227  16.839 -0.0105  0.0547  0.0925
 1229POPC   C4A14744  13.699   6.950  17.070 -0.4163 -0.1338 -0.0424
 1229POPC   C1B14745  13.466   6.726  15.794  0.2297 -0.0472 -0.1839
 1229POPC   C2B14746  13.420   6.719  16.254  0.1623 -0.0071  0.0223
 1229POPC   C3B14747  13.367   6.754  16.754 -0.2663 -0.0247 -0.0173
 1229POPC   C4B14748  13.276   6.831  17.232  0.0545  0.2996  0.3439
 1230POPC   NC314749   1.330   8.114  16.009 -0.1580  0.3345  0.1616
 1230POPC   PO414750   1.683   8.296  16.040 -0.3557 -0.0258 -0.0339
 1230POPC   GL114751   1.896   8.258  16.324 -0.0570 -0.0198  0.0587
 1230POPC   GL214752   2.063   7.990  16.399 -0.1742  0.0563 -0.1940
 1230POPC   C1A14753   2.086   8.319  16.732  0.2178 -0.0291 -0.2136
 1230POPC   D2A14754   2.397   8.378  17.068 -0.1036  0.2206 -0.1072
 1230POPC   C3A14755   2.224   8.155  17.424  0.0324  0.0310 -0.1683
 1230POPC   C4A14756   2.137   7.871  17.819  0.1914 -0.1990  0.2598
 1230POPC   C1B14757   2.495   8.041  16.692 -0.0212 -0.0069  0.0283
 1230POPC   C2B14758   2.797   8.052  17.095  0.0168  0.0506 -0.0842
 1230POPC   C3B14759   2.775   8.350  17.397 -0.0717 -0.2087 -0.2665
 1230POPC   C4B14760   2.811   8.660  17.768 -0.1433  0.1903 -0.0634
 1231POPC   NC314761   0.800   2.241  16.003 -0.4293  0.1413  0.0715
 1231POPC   PO414762   0.768   1.868  16.009  0.1234  0.1240  0.0248
 1231POPC   GL114763   0.452   1.927  16.179  0.1713 -0.0769 -0.1018
 1231POPC   GL214764   0.349   1.618  16.267 -0.0167 -0.2171  0.0050
 1231POPC   C1A14765   0.200   2.070  16.601 -0.3888  0.0200 -0.2364
 1231POPC   D2A14766   0.280   2.325  16.975 -0.2308  0.0269 -0.3511
 1231POPC   C3A14767   0.192   2.376  17.395  0.4850 -0.0942 -0.1337
 1231POPC   C4A14768  -0.181   2.506  17.705 -0.0447 -0.3208  0.3232
 1231POPC   C1B14769   0.088   1.572  16.688  0.2851  0.1448 -0.2904
 1231POPC   C2B14770   0.077   1.748  17.131 -0.0461  0.1895 -0.2842
 1231POPC   C3B14771  -0.090   1.901  17.568 -0.3863  0.2831 -0.1406
 1231POPC   C4B14772   0.099   2.199  17.913  0.2022  0.1299 -0.3392
 1232POPC   NC314773  14.875  11.155  16.185  0.1160  0.1160  0.4614
 1232POPC   PO414774  14.996  11.370  16.526  0.0427 -0.2742  0.1469
 1232POPC   GL114775  14.876  11.569  16.816 -0.0954 -0.3532 -0.1413
 1232POPC   GL214776  15.211  11.669  16.903  0.0178 -0.1332  0.1629
 1232POPC   C1A14777  14.672  11.495  17.199  0.0024 -0.0154 -0.1190
 1232POPC   D2A14778  14.436  11.836  17.436  0.0252 -0.3094 -0.0732
 1232POPC   C3A14779  14.238  11.668  17.770 -0.0254  0.1964 -0.1582
 1232POPC   C4A14780  14.095  11.514  18.149 -0.0478  0.4595 -0.0735
 1232POPC   C1B14781  15.445  11.614  17.305  0.0010  0.1544  0.0069
 1232POPC   C2B14782  15.475  11.628  17.773 -0.3494  0.2161 -0.1018
 1232POPC   C3B14783  15.135  11.730  18.017 -0.0281  0.1862 -0.1579
 1232POPC   C4B14784  14.971  11.811  18.437  0.0070 -0.1501  0.0143
 1233POPC   NC314785   6.446  10.649  14.041  0.3351  0.1167 -0.2006
 1233POPC   PO414786   6.588  10.256  14.040  0.2675 -0.0188  0.1742
 1233POPC   GL114787   6.620   9.917  14.049 -0.2337 -0.0520  0.0718
 1233POPC   GL214788   6.863   9.745  14.107 -0.1575 -0.1553 -0.2343
 1233POPC   C1A14789   6.421   9.496  14.015 -0.0394 -0.1430  0.0966
 1233POPC   D2A14790   6.386   9.038  14.067 -0.1015 -0.1921  0.0877
 1233POPC   C3A14791   6.727   8.824  14.311  0.2476  0.0163  0.1377
 1233POPC   C4A14792   6.947   8.588  14.526 -0.2712 -0.0021  0.3812
 1233POPC   C1B14793   6.736   9.351  14.400  0.3456 -0.1298 -0.1856
 1233POPC   C2B14794   6.924   9.243  14.790  0.1092  0.0092 -0.0985
 1233POPC   C3B14795   7.180   8.893  15.029  0.2718 -0.1748  0.0568
 1233POPC   C4B14796   7.164   8.702  15.432  0.3508 -0.2626  0.1992
 1234POPC   NC314797   5.864  11.636   9.442 -0.0703  0.0912  0.1763
 1234POPC   PO414798   6.172  11.457   9.582  0.2086  0.3835 -0.0510
 1234POPC   GL114799   6.111  11.491   9.089  0.0419  0.0352  0.0465
 1234POPC   GL214800   6.076  11.739   8.957  0.3180  0.0510 -0.0683
 1234POPC   C1A14801   6.136  11.205   8.702 -0.1464  0.1498 -0.1318
 1234POPC   D2A14802   6.065  11.044   8.307  0.2491 -0.3229  0.1532
 1234POPC   C3A14803   6.375  11.059   7.946 -0.2015  0.3055  0.0904
 1234POPC   C4A14804   6.606  10.875   7.601  0.3842 -0.2674  0.3660
 1234POPC   C1B14805   6.385  11.664   8.510 -0.2119 -0.1147 -0.2262
 1234POPC   C2B14806   6.565  11.528   8.086 -0.1719  0.0416  0.4291
 1234POPC   C3B14807   6.628  11.454   7.616 -0.2502  0.1380 -0.1471
 1234POPC   C4B14808   6.981  11.332   7.314 -0.2462  0.0366 -0.1350
 1235POPC   NC314809   2.351  16.519  16.219  0.1024  0.4350  0.0542
 1235POPC   PO414810   2.130  16.224  16.022 -0.0860  0.0722 -0.2793
 1235POPC   GL114811   2.035  16.291  16.460  0.0952 -0.2022  0.2234
 1235POPC   GL214812   2.079  16.027  16.586  0.2641 -0.3523  0.1215
 1235POPC   C1A14813   2.089  16.716  16.653  0.3418  0.2303 -0.0218
 1235POPC   D2A14814   1.813  17.028  16.763 -0.0438 -0.2693 -0.0861
 1235POPC   C3A14815   1.789  17.334  17.118 -0.1412 -0.4140 -0.0444
 1235POPC   C4A14816   1.894  17.438  17.526  0.0166  0.0595 -0.2620
 1235POPC   C1B14817   2.126  15.840  17.013  0.0463 -0.2315  0.2843
 1235POPC   C2B14818   2.338  15.879  17.466 -0.0846  0.0249  0.1860
 1235POPC   C3B14819   2.479  16.071  17.847  0.3051  0.0005  0.1094
 1235POPC   C4B14820   2.471  16.224  18.228  0.0979  0.4640 -0.4153
 1236POPC   NC314821   5.161   8.163  14.128 -0.1762  0.4080 -0.0494
 1236POPC   PO414822   4.952   7.895  13.968  0.2966 -0.0171  0.0105
 1236POPC   GL114823   5.206   7.671  14.037  0.3265  0.0436 -0.1087
 1236POPC   GL214824   5.156   7.566  14.290 -0.2392 -0.0371  0.2440
 1236POPC   C1A14825   5.607   7.543  13.920  0.1464  0.0786 -0.0939
 1236POPC   D2A14826   6.053   7.711  13.901  0.0229 -0.2337  0.0074
 1236POPC   C3A14827   6.460   7.568  13.886  0.4693  0.0280  0.1521
 1236POPC   C4A14828   6.803   7.465  14.198  0.2430  0.3473 -0.1578
 1236POPC   C1B14829   5.539   7.329  14.391 -0.0747 -0.0847 -0.1759
 1236POPC   C2B14830   5.916   7.090  14.513 -0.2017 -0.1048 -0.1123
 1236POPC   C3B14831   6.156   6.968  14.870  0.1682  0.2112  0.0089
 1236POPC   C4B14832   6.463   6.863  15.192  0.0343 -0.1026 -0.1126
 1237POPC   NC314833  13.732  13.246  16.744 -0.3398 -0.2922  0.0479
 1237POPC   PO414834  13.920  12.929  16.572  0.1628 -0.1124  0.0095
 1237POPC   GL114835  13.818  12.875  17.004  0.0780 -0.2270 -0.1368
 1237POPC   GL214836  13.713  13.059  17.232 -0.4024 -0.2418 -0.0412
 1237POPC   C1A14837  13.791  12.563  17.345 -0.2401  0.2772 -0.0084
 1237POPC   D2A14838  13.867  12.450  17.807 -0.1091  0.0956 -0.0721
 1237POPC   C3A14839  13.787  12.194  18.124  0.2745  0.0111 -0.0801
 1237POPC   C4A14840  14.036  11.970  18.478  0.0144 -0.0768  0.0985
 1237POPC   C1B14841  13.622  12.897  17.688 -0.1252  0.1588 -0.0763
 1237POPC   C2B14842  13.450  12.652  18.020 -0.1430  0.0240 -0.1881
 1237POPC   C3B14843  13.329  12.374  18.342  0.1273  0.0651  0.2913
 1237POPC   C4B14844  13.249  12.060  18.648  0.0872 -0.3121  0.4346
 1238POPC   NC314845   4.612   6.144  13.973  0.1874 -0.1029 -0.0876
 1238POPC   PO414846   4.181   6.248  14.035  0.0577 -0.0498  0.0914
 1238POPC   GL114847   4.396   6.330  14.378 -0.2461  0.2579 -0.0033
 1238POPC   GL214848   4.519   6.130  14.485  0.0212  0.4124  0.3610
 1238POPC   C1A14849   4.807   6.575  14.351  0.0474 -0.3327 -0.0941
 1238POPC   D2A14850   5.141   6.649  14.648  0.0361 -0.1779  0.0221
 1238POPC   C3A14851   5.239   6.709  15.128 -0.0776 -0.1790 -0.0058
 1238POPC   C4A14852   5.476   6.611  15.507 -0.0083  0.3708 -0.2416
 1238POPC   C1B14853   5.024   6.130  14.508  0.1565  0.3471  0.0565
 1238POPC   C2B14854   5.417   6.192  14.548 -0.0065  0.2271 -0.2027
 1238POPC   C3B14855   5.836   6.083  14.764  0.0983  0.1488 -0.0841
 1238POPC   C4B14856   6.202   5.944  15.024 -0.0848 -0.0713  0.0689
 1239POPC   NC314857  14.659   1.338  15.125  0.2937 -0.0091  0.1983
 1239POPC   PO414858  14.400   1.493  14.885 -0.2440 -0.1046 -0.2643
 1239POPC   GL114859  14.256   1.690  15.257  0.2490  0.0933  0.1757
 1239POPC   GL214860  14.300   1.527  15.430 -0.2697 -0.1562  0.1472
 1239POPC   C1A14861  14.074   1.863  15.673  0.2135 -0.2297 -0.0518
 1239POPC   D2A14862  13.872   2.163  15.951  0.1847 -0.1539 -0.2458
 1239POPC   C3A14863  13.747   2.290  16.392  0.0309 -0.0805  0.0411
 1239POPC   C4A14864  13.876   2.554  16.736  0.0583  0.3053  0.0783
 1239POPC   C1B14865  14.099   1.430  15.854  0.0179  0.0529 -0.1134
 1239POPC   C2B14866  13.883   1.684  16.205  0.1053 -0.1544 -0.2735
 1239POPC   C3B14867  13.821   1.909  16.604  0.0627  0.2423 -0.2101
 1239POPC   C4B14868  13.837   2.048  17.052 -0.0551  0.0692  0.2783
 1240POPC   NC314869  12.336  31.995  15.170  0.1793  0.0336  0.2398
 1240POPC   PO414870  12.048  32.197  15.343 -0.0942 -0.1260  0.0868
 1240POPC   GL114871  11.815  32.394  15.667  0.1295 -0.0685  0.2823
 1240POPC   GL214872  11.814  32.652  15.506 -0.0466  0.0943  0.3338
 1240POPC   C1A14873  11.924  32.318  16.130  0.0835 -0.0137 -0.2537
 1240POPC   D2A14874  11.976  32.501  16.525 -0.2953  0.2282 -0.1166
 1240POPC   C3A14875  12.249  32.763  16.821  0.0899 -0.0414 -0.1257
 1240POPC   C4A14876  12.451  33.152  16.928  0.1776  0.3084 -0.2377
 1240POPC   C1B14877  11.584  32.685  15.970 -0.2151  0.1402  0.2206
 1240POPC   C2B14878  11.620  32.845  16.361  0.0498 -0.2570 -0.2705
 1240POPC   C3B14879  11.637  33.140  16.721  0.0030 -0.1612  0.2128
 1240POPC   C4B14880  11.865  33.412  17.028 -0.1363  0.1913 -0.1412
 1241POPC   NC314881  13.369   2.303  12.996 -0.2617  0.1403  0.3219
 1241POPC   PO414882  13.491   2.275  12.632  0.1678 -0.1854 -0.0534
 1241POPC   GL114883  13.067   2.294  12.622 -0.1720  0.0470 -0.2010
 1241POPC   GL214884  12.914   2.480  12.496 -0.0255 -0.2151 -0.0579
 1241POPC   C1A14885  12.896   2.530  12.982 -0.1920 -0.1742  0.1687
 1241POPC   D2A14886  12.643   2.695  13.276 -0.0883 -0.0932 -0.1964
 1241POPC   C3A14887  12.309   2.546  13.532 -0.0881 -0.1228  0.2316
 1241POPC   C4A14888  11.850   2.558  13.724 -0.0853 -0.2187  0.1257
 1241POPC   C1B14889  12.649   2.725  12.250  0.0512  0.2664  0.0288
 1241POPC   C2B14890  12.271   2.955  12.171  0.0065  0.0877 -0.0362
 1241POPC   C3B14891  12.239   3.396  12.255 -0.1971 -0.1085  0.3398
 1241POPC   C4B14892  11.870   3.580  12.477 -0.0885 -0.0288  0.1102
 1242POPC   NC314893  15.869  14.271  16.667 -0.0431  0.0567  0.2457
 1242POPC   PO414894  15.577  14.207  16.408 -0.0529  0.1968  0.0521
 1242POPC   GL114895  15.480  14.447  16.756  0.0965  0.1681 -0.4354
 1242POPC   GL214896  15.359  14.224  16.915 -0.3768 -0.1369 -0.0878
 1242POPC   C1A14897  15.635  14.677  17.121 -0.0131 -0.0452  0.1713
 1242POPC   D2A14898  15.412  15.080  17.112  0.3841  0.1553 -0.6783
 1242POPC   C3A14899  15.164  15.199  17.474  0.0300 -0.1544  0.1882
 1242POPC   C4A14900  14.987  15.159  17.921  0.2827  0.0376  0.1926
 1242POPC   C1B14901  15.390  14.275  17.391 -0.0970 -0.2322  0.1746
 1242POPC   C2B14902  15.306  14.351  17.857  0.1063  0.2791 -0.1332
 1242POPC   C3B14903  15.352  14.329  18.320 -0.0955  0.1631  0.2919
 1242POPC   C4B14904  15.025  14.312  18.635 -0.0392 -0.3804  0.0821
 1243POPC   NC314905   9.264  11.423  11.470  0.2023  0.0833 -0.1211
 1243POPC   PO414906   9.421  11.274  11.795 -0.3185 -0.1741 -0.2322
 1243POPC   GL114907   9.385  10.967  11.519 -0.1296  0.0043 -0.1540
 1243POPC   GL214908   9.406  10.732  11.760 -0.3769 -0.2304 -0.0188
 1243POPC   C1A14909   9.641  10.613  11.313 -0.6031 -0.0821 -0.1085
 1243POPC   D2A14910   9.789  10.183  11.228 -0.1775 -0.0465  0.1748
 1243POPC   C3A14911  10.201  10.196  11.318  0.2350  0.1080  0.0517
 1243POPC   C4A14912  10.572  10.399  11.443 -0.0296 -0.0561 -0.0600
 1243POPC   C1B14913   9.295  10.315  11.528 -0.1517 -0.1367  0.3273
 1243POPC   C2B14914   9.273   9.922  11.307 -0.1092  0.1683 -0.1969
 1243POPC   C3B14915   9.373   9.482  11.100  0.2859 -0.1893 -0.0331
 1243POPC   C4B14916   9.729   9.232  10.946 -0.1258 -0.1820 -0.2721
 1244POPC   NC314917   9.118   0.998  12.453  0.1319  0.0379  0.0536
 1244POPC   PO414918   8.764   0.913  12.588 -0.1255  0.0890  0.0423
 1244POPC   GL114919   8.905   1.332  12.741 -0.1638  0.0358  0.1049
 1244POPC   GL214920   8.643   1.408  12.480 -0.1824  0.1827 -0.1060
 1244POPC   C1A14921   8.722   1.759  12.924 -0.1177 -0.0362  0.0116
 1244POPC   D2A14922   8.420   2.086  13.126  0.0094 -0.1644 -0.2325
 1244POPC   C3A14923   8.267   2.041  13.561 -0.4166 -0.1367  0.2964
 1244POPC   C4A14924   8.174   2.210  13.991 -0.3646 -0.1622 -0.0629
 1244POPC   C1B14925   8.645   1.873  12.453 -0.0813  0.0165 -0.1761
 1244POPC   C2B14926   8.542   2.283  12.297  0.1972  0.1549  0.0469
 1244POPC   C3B14927   8.380   2.542  11.899  0.3308 -0.1404  0.2717
 1244POPC   C4B14928   8.510   2.648  11.547  0.2441  0.2200 -0.0864
 1245POPC   NC314929  14.750   0.488  15.726 -0.2763  0.3038 -0.3265
 1245POPC   PO414930  14.424   0.619  15.600 -0.1392 -0.2837  0.2570
 1245POPC   GL114931  14.389   0.671  15.959 -0.1057  0.2612  0.2331
 1245POPC   GL214932  14.486   0.518  16.147  0.0969  0.3054  0.0503
 1245POPC   C1A14933  14.076   0.858  16.257 -0.2218 -0.1043  0.1381
 1245POPC   D2A14934  13.913   0.955  16.642  0.1156 -0.0328 -0.0246
 1245POPC   C3A14935  13.563   0.855  16.902  0.0462 -0.3341  0.0369
 1245POPC   C4A14936  13.117   0.834  17.135  0.3094  0.0508 -0.3815
 1245POPC   C1B14937  14.452   0.549  16.649  0.0540 -0.1131  0.0605
 1245POPC   C2B14938  14.345   0.790  17.012 -0.5713 -0.1728 -0.0757
 1245POPC   C3B14939  14.050   0.899  17.352  0.2246  0.1635  0.1334
 1245POPC   C4B14940  13.610   1.092  17.405 -0.2612  0.4158  0.1608
 1246POPC   NC314941   0.446  11.552  16.569 -0.2217  0.0079  0.2803
 1246POPC   PO414942   0.332  11.298  16.363 -0.2529  0.3252 -0.3755
 1246POPC   GL114943   0.209  11.113  16.668  0.1623 -0.3200 -0.1357
 1246POPC   GL214944   0.470  11.041  16.766 -0.2523 -0.1696 -0.2990
 1246POPC   C1A14945  -0.011  11.275  17.028 -0.2430 -0.0834  0.1556
 1246POPC   D2A14946  -0.404  11.487  17.166 -0.1114  0.0627  0.3685
 1246POPC   C3A14947  -0.485  11.471  17.614  0.2891 -0.3035 -0.1991
 1246POPC   C4A14948  -0.411  11.475  18.069  0.4061  0.1578 -0.1887
 1246POPC   C1B14949   0.639  10.989  17.218  0.1244 -0.0295  0.4957
 1246POPC   C2B14950   0.740  10.732  17.616 -0.1687  0.2218  0.1503
 1246POPC   C3B14951   0.708  10.832  18.089 -0.2737  0.2243 -0.2928
 1246POPC   C4B14952   0.687  11.165  18.446  0.1474  0.1630  0.0319
 1247POPC   NC314953   5.723  15.255  15.612 -0.1020  0.3155 -0.2667
 1247POPC   PO414954   5.545  15.558  15.492 -0.1887 -0.3706 -0.1355
 1247POPC   GL114955   5.632  15.747  15.812  0.2231 -0.0223 -0.4540
 1247POPC   GL214956   5.896  15.911  15.894  0.0090  0.1970 -0.0799
 1247POPC   C1A14957   5.501  15.987  16.132  0.1329 -0.0453  0.1103
 1247POPC   D2A14958   5.732  16.336  16.406  0.1379 -0.1772 -0.1393
 1247POPC   C3A14959   5.611  16.720  16.651 -0.0088 -0.0344 -0.2005
 1247POPC   C4A14960   5.554  17.157  16.879 -0.3167  0.0962  0.0189
 1247POPC   C1B14961   5.879  15.791  16.378 -0.0063 -0.1404  0.0350
 1247POPC   C2B14962   5.913  15.837  16.834  0.1497 -0.1968 -0.0435
 1247POPC   C3B14963   6.056  16.132  17.216 -0.0333  0.4513 -0.2228
 1247POPC   C4B14964   6.461  16.202  17.395 -0.0743 -0.3288  0.1899
 1248POPC   NC314965  14.806  12.716  16.618  0.0222  0.1894 -0.0321
 1248POPC   PO414966  15.116  12.879  16.684 -0.0496 -0.2387 -0.1978
 1248POPC   GL114967  15.214  13.230  16.892 -0.3792  0.0408  0.1836
 1248POPC   GL214968  15.574  13.269  16.980 -0.0679 -0.0238 -0.0359
 1248POPC   C1A14969  15.115  13.392  17.307  0.1756 -0.0748 -0.1746
 1248POPC   D2A14970  15.027  13.508  17.719 -0.0964 -0.0683 -0.1331
 1248POPC   C3A14971  15.378  13.430  17.983 -0.1791 -0.0641 -0.1269
 1248POPC   C4A14972  15.365  13.401  18.431  0.2027 -0.2459  0.0195
 1248POPC   C1B14973  15.435  12.911  17.280 -0.2998 -0.0182  0.1336
 1248POPC   C2B14974  15.223  12.552  17.446 -0.0942  0.1315  0.1917
 1248POPC   C3B14975  14.993  12.279  17.750  0.0672  0.1977 -0.0554
 1248POPC   C4B14976  14.858  12.200  18.184 -0.0601  0.0501 -0.1428
 1249POPC   NC314977   4.918  12.609  16.068 -0.1805  0.0671  0.1977
 1249POPC   PO414978   5.012  12.262  16.248  0.1517  0.0899  0.1355
 1249POPC   GL114979   4.993  12.177  16.652 -0.0756 -0.1751  0.0608
 1249POPC   GL214980   4.813  12.298  16.857  0.2616 -0.0655  0.2869
 1249POPC   C1A14981   5.306  12.127  16.988  0.0062  0.3634 -0.2390
 1249POPC   D2A14982   5.718  12.094  17.259 -0.3885 -0.1055  0.1775
 1249POPC   C3A14983   5.544  11.857  17.673  0.1419 -0.0057  0.1370
 1249POPC   C4A14984   5.441  11.852  18.151  0.1720  0.0487  0.0274
 1249POPC   C1B14985   4.904  12.543  17.264  0.1724  0.0541 -0.1557
 1249POPC   C2B14986   4.843  12.625  17.732  0.0137 -0.1045 -0.3126
 1249POPC   C3B14987   4.901  12.913  18.133 -0.1027  0.2356  0.0037
 1249POPC   C4B14988   4.960  13.180  18.503  0.1576 -0.0495  0.0988
 1250POPC   NC314989  14.051   6.795  12.393  0.3215  0.1325  0.0029
 1250POPC   PO414990  13.896   6.828  12.727 -0.0193  0.0221 -0.1452
 1250POPC   GL114991  13.494   6.874  12.506  0.2726 -0.1997  0.1293
 1250POPC   GL214992  13.535   6.715  12.286  0.0517 -0.3622 -0.2029
 1250POPC   C1A14993  13.077   6.848  12.733 -0.0501 -0.2358 -0.0351
 1250POPC   D2A14994  12.734   6.962  13.023 -0.2088  0.1077 -0.0936
 1250POPC   C3A14995  12.358   6.694  13.053  0.5896  0.0881 -0.1216
 1250POPC   C4A14996  11.907   6.686  13.255  0.1505  0.2661 -0.2112
 1250POPC   C1B14997  13.331   6.743  11.839  0.2648  0.1295  0.1009
 1250POPC   C2B14998  12.974   6.673  11.605  0.0753 -0.0199  0.0932
 1250POPC   C3B14999  12.694   6.692  11.215  0.1008 -0.0653  0.0078
 1250POPC   C4B15000  12.278   6.448  11.377  0.0223 -0.0293 -0.1871
 1251POPC   NC315001  11.932  11.284  15.487 -0.1686  0.1704  0.1108
 1251POPC   PO415002  11.615  11.055  15.416  0.0611 -0.2697 -0.5002
 1251POPC   GL115003  11.605  10.635  15.662 -0.2524  0.1182  0.1080
 1251POPC   GL215004  11.294  10.700  15.737 -0.0933  0.2851  0.1062
 1251POPC   C1A15005  11.816  10.290  15.925  0.1379 -0.0866 -0.0202
 1251POPC   D2A15006  11.906  10.088  16.331  0.0079 -0.1525  0.0780
 1251POPC   C3A15007  11.568   9.839  16.593 -0.1297 -0.0068  0.2032
 1251POPC   C4A15008  11.564   9.529  16.986 -0.1030 -0.0467  0.1003
 1251POPC   C1B15009  11.287  10.651  16.153  0.2085  0.1104  0.1798
 1251POPC   C2B15010  11.361  10.854  16.554 -0.0078  0.1020 -0.1434
 1251POPC   C3B15011  11.327  11.209  16.920 -0.3498  0.0729 -0.0475
 1251POPC   C4B15012  11.142  10.982  17.265  0.0207 -0.0098  0.3670
 1252POPC   NC315013   5.229  12.657  16.737  0.0428 -0.1056  0.0404
 1252POPC   PO415014   5.288  12.752  16.397  0.0720 -0.0901 -0.0313
 1252POPC   GL115015   5.642  12.581  16.673 -0.1806 -0.0913  0.5510
 1252POPC   GL215016   5.698  12.835  16.840  0.2541 -0.1665  0.1430
 1252POPC   C1A15017   5.954  12.301  16.895  0.0493 -0.2708 -0.0061
 1252POPC   D2A15018   6.239  11.987  16.712  0.1475 -0.0162 -0.0279
 1252POPC   C3A15019   6.397  11.604  16.960 -0.0201  0.2053  0.0741
 1252POPC   C4A15020   6.497  11.310  17.289  0.0564  0.0606 -0.1940
 1252POPC   C1B15021   5.507  12.638  17.234  0.1248  0.1703 -0.2659
 1252POPC   C2B15022   5.367  12.409  17.575  0.2137  0.1151 -0.2356
 1252POPC   C3B15023   5.295  12.433  18.032 -0.0679 -0.0557  0.0532
 1252POPC   C4B15024   5.277  12.286  18.455  0.3947  0.2059 -0.2194
 1253POPC   NC315025   7.541  12.006  16.239  0.1202 -0.2245 -0.2290
 1253POPC   PO415026   7.360  11.838  15.931  0.2809  0.0322  0.0558
 1253POPC   GL115027   7.406  11.605  16.309  0.2601 -0.1215  0.1760
 1253POPC   GL215028   7.212  11.698  16.501 -0.2138  0.1381 -0.0382
 1253POPC   C1A15029   7.571  11.180  16.379  0.0326  0.1744 -0.4527
 1253POPC   D2A15030   7.597  10.940  16.820  0.2924 -0.0231 -0.0246
 1253POPC   C3A15031   7.705  10.917  17.274  0.1551 -0.0112 -0.1530
 1253POPC   C4A15032   7.782  10.794  17.699  0.1260  0.1501 -0.0929
 1253POPC   C1B15033   7.226  11.304  16.759  0.2498  0.1291  0.2154
 1253POPC   C2B15034   7.386  11.248  17.167 -0.1263  0.3536  0.0104
 1253POPC   C3B15035   7.492  11.462  17.591 -0.1812 -0.0017  0.6059
 1253POPC   C4B15036   7.663  11.470  18.015  0.0530  0.1710  0.1230
 1254POPC   NC315037  13.015  16.015   8.701  0.0826  0.3618  0.0087
 1254POPC   PO415038  12.839  15.622   8.680  0.1198  0.3886 -0.2352
 1254POPC   GL115039  12.687  15.614   8.399  0.0125 -0.2527  0.1856
 1254POPC   GL215040  12.880  15.410   8.243  0.0717  0.0383  0.1401
 1254POPC   C1A15041  12.433  15.995   8.250 -0.0624  0.0166 -0.1337
 1254POPC   D2A15042  12.069  16.243   8.202 -0.0384 -0.1630 -0.2035
 1254POPC   C3A15043  11.774  16.296   7.819 -0.1063 -0.0101 -0.0233
 1254POPC   C4A15044  11.660  16.520   7.450  0.1967  0.1903  0.1734
 1254POPC   C1B15045  12.961  15.417   7.782 -0.0118 -0.1386  0.1284
 1254POPC   C2B15046  13.029  15.702   7.439  0.2203 -0.1585  0.0528
 1254POPC   C3B15047  12.767  15.786   7.050 -0.3291 -0.1098 -0.0024
 1254POPC   C4B15048  12.749  15.478   6.686  0.1857  0.1498 -0.0328
 1255POPC   NC315049  15.927   7.707  15.768  0.0241  0.1450  0.2040
 1255POPC   PO415050  15.599   7.903  15.746 -0.1861  0.0495  0.2624
 1255POPC   GL115051  15.573   7.737  16.082  0.3315 -0.2221  0.3317
 1255POPC   GL215052  15.377   7.544  16.046  0.0012 -0.0447 -0.2701
 1255POPC   C1A15053  15.485   7.855  16.494 -0.0458  0.0122 -0.4494
 1255POPC   D2A15054  15.622   7.657  16.879  0.1781 -0.1337  0.1028
 1255POPC   C3A15055  15.333   7.666  17.180 -0.1635  0.6387  0.0176
 1255POPC   C4A15056  15.166   7.973  17.468 -0.1137 -0.2366  0.2932
 1255POPC   C1B15057  15.208   7.449  16.498  0.0264  0.0808  0.1050
 1255POPC   C2B15058  15.175   7.253  16.843  0.0044  0.0217 -0.0587
 1255POPC   C3B15059  15.174   7.192  17.296  0.2648  0.1145 -0.0258
 1255POPC   C4B15060  15.122   7.442  17.642 -0.0962 -0.0535 -0.2058
 1256POPC   NC315061  14.188   3.670  13.048  0.0229  0.0321 -0.0374
 1256POPC   PO415062  14.074   3.399  12.843 -0.2498 -0.1703 -0.0592
 1256POPC   GL115063  13.791   3.629  12.728  0.1514 -0.3728 -0.1580
 1256POPC   GL215064  13.684   3.757  13.001 -0.1567  0.1980 -0.1665
 1256POPC   C1A15065  13.373   3.542  12.528  0.0353  0.1377 -0.0980
 1256POPC   D2A15066  13.095   3.768  12.303 -0.1116  0.2755 -0.1571
 1256POPC   C3A15067  12.711   4.015  12.360 -0.2469  0.0457 -0.0753
 1256POPC   C4A15068  12.527   4.345  12.575  0.0582 -0.2707 -0.2255
 1256POPC   C1B15069  13.224   3.819  12.963 -0.0998 -0.0902  0.0045
 1256POPC   C2B15070  12.801   3.717  12.738  0.1969 -0.3391 -0.0079
 1256POPC   C3B15071  12.402   3.901  12.801  0.0005  0.0181 -0.0282
 1256POPC   C4B15072  12.240   4.221  13.051 -0.3042 -0.1214  0.1430
 1257POPC   NC315073   7.305  15.818  15.676  0.0862  0.2620  0.1095
 1257POPC   PO415074   7.090  15.527  15.825  0.2723  0.1165 -0.1487
 1257POPC   GL115075   6.873  15.609  16.161 -0.3703 -0.0382  0.0173
 1257POPC   GL215076   7.158  15.726  16.283 -0.2078 -0.1399 -0.0872
 1257POPC   C1A15077   6.742  15.999  16.391  0.0359  0.0926 -0.1382
 1257POPC   D2A15078   6.822  16.416  16.663 -0.0300 -0.0150 -0.0993
 1257POPC   C3A15079   7.027  16.399  17.137 -0.2763 -0.0473  0.0151
 1257POPC   C4A15080   7.204  16.113  17.463  0.2923 -0.1654  0.1862
 1257POPC   C1B15081   7.238  15.936  16.723  0.1570  0.3350 -0.0209
 1257POPC   C2B15082   7.494  15.890  17.151  0.0447 -0.1413 -0.0322
 1257POPC   C3B15083   7.788  16.112  17.445  0.3434  0.0805 -0.1051
 1257POPC   C4B15084   8.139  16.096  17.815 -0.1970 -0.1183 -0.0844
 1258POPC   NC315085  13.046  11.001  16.100 -0.0198 -0.0734 -0.1763
 1258POPC   PO415086  13.202  10.690  16.293  0.1176  0.0509 -0.0277
 1258POPC   GL115087  13.058  10.523  16.613 -0.0596  0.2285 -0.1646
 1258POPC   GL215088  12.780  10.665  16.697 -0.3439 -0.0378  0.0533
 1258POPC   C1A15089  13.119  10.085  16.751  0.1139 -0.0465  0.0230
 1258POPC   D2A15090  13.208   9.799  17.155  0.2467 -0.2145  0.0491
 1258POPC   C3A15091  13.469   9.773  17.549 -0.1823  0.0082 -0.2512
 1258POPC   C4A15092  13.722   9.643  17.874 -0.0059  0.0942 -0.0581
 1258POPC   C1B15093  12.508  10.419  16.968 -0.1690 -0.0989 -0.1788
 1258POPC   C2B15094  12.638  10.120  17.328  0.0365 -0.0606 -0.2972
 1258POPC   C3B15095  12.687   9.885  17.738 -0.1578 -0.0302 -0.0210
 1258POPC   C4B15096  12.731   9.669  18.101  0.1895 -0.0942 -0.0682
 1259POPC   NC315097  11.955   9.817  13.246  0.0469  0.0407 -0.5224
 1259POPC   PO415098  12.150   9.435  13.215  0.1644 -0.2760 -0.1127
 1259POPC   GL115099  12.056   9.010  13.110 -0.4672  0.2932 -0.0431
 1259POPC   GL215100  11.743   9.006  13.244  0.1219 -0.2846 -0.3457
 1259POPC   C1A15101  11.811   8.754  12.840 -0.1345 -0.2065  0.0456
 1259POPC   D2A15102  11.720   8.316  12.803 -0.0022 -0.1054 -0.1420
 1259POPC   C3A15103  11.493   8.089  12.444 -0.1879 -0.0818 -0.0968
 1259POPC   C4A15104  11.214   7.806  12.199  0.0662 -0.1390  0.3192
 1259POPC   C1B15105  11.393   8.755  13.431 -0.0443 -0.0714 -0.0436
 1259POPC   C2B15106  11.191   8.460  13.717 -0.1216 -0.0560 -0.0776
 1259POPC   C3B15107  11.125   8.492  14.154  0.0465  0.1152 -0.0686
 1259POPC   C4B15108  11.242   8.472  14.593 -0.3307  0.0275  0.1939
 1260POPC   NC315109  15.806   1.561  15.109  0.0575  0.1653  0.1646
 1260POPC   PO415110  15.450   1.671  15.187 -0.0178 -0.0032  0.2477
 1260POPC   GL115111  15.263   1.931  15.513  0.4337  0.1349  0.0143
 1260POPC   GL215112  15.534   2.068  15.541 -0.1649 -0.2156  0.1705
 1260POPC   C1A15113  14.950   2.007  15.860 -0.1092  0.0404  0.0868
 1260POPC   D2A15114  14.982   1.873  16.254 -0.1414 -0.0145  0.2677
 1260POPC   C3A15115  14.800   1.978  16.645  0.0888  0.0886 -0.3224
 1260POPC   C4A15116  14.862   2.087  17.107  0.3973  0.1958 -0.1824
 1260POPC   C1B15117  15.490   1.821  15.934 -0.0783  0.2638  0.0541
 1260POPC   C2B15118  15.406   1.825  16.427 -0.1577  0.1333  0.0796
 1260POPC   C3B15119  15.368   2.057  16.854  0.0093 -0.2117  0.3566
 1260POPC   C4B15120  15.522   1.985  17.227 -0.3853 -0.1961 -0.1642
 1261POPC   NC315121  14.479   7.013  15.291  0.1515 -0.3382  0.2387
 1261POPC   PO415122  14.504   7.297  15.554 -0.0627 -0.1625  0.1814
 1261POPC   GL115123  14.514   7.051  15.800  0.1416  0.0205 -0.2677
 1261POPC   GL215124  14.487   6.728  15.691  0.0260  0.0805 -0.2658
 1261POPC   C1A15125  14.473   7.105  16.252  0.0543 -0.1322 -0.1054
 1261POPC   D2A15126  14.411   6.819  16.638  0.0459 -0.0071  0.0670
 1261POPC   C3A15127  14.109   6.669  16.873  0.0612  0.0306 -0.2368
 1261POPC   C4A15128  13.799   6.469  17.101  0.0156  0.1552 -0.3937
 1261POPC   C1B15129  14.170   6.706  16.029  0.2214  0.0560 -0.2493
 1261POPC   C2B15130  13.898   6.771  16.408 -0.1651  0.0734 -0.1503
 1261POPC   C3B15131  13.696   7.164  16.491 -0.2918 -0.0339  0.0170
 1261POPC   C4B15132  13.629   7.591  16.498  0.2565 -0.2776  0.2438
 1262POPC   NC315133   9.228  11.563  14.988 -0.0025  0.1412 -0.0046
 1262POPC   PO415134   9.257  11.460  15.371  0.2033  0.2067 -0.0533
 1262POPC   GL115135   9.258  11.475  15.807  0.2745 -0.0427 -0.0872
 1262POPC   GL215136   9.007  11.301  15.901  0.0418 -0.0735  0.0509
 1262POPC   C1A15137   9.445  11.136  16.101 -0.1762 -0.1076  0.3562
 1262POPC   D2A15138   9.380  10.828  16.457 -0.1008  0.1350 -0.0545
 1262POPC   C3A15139   9.307  10.391  16.283 -0.0863 -0.1546  0.2068
 1262POPC   C4A15140   9.059  10.009  16.253  0.2132  0.5016  0.4393
 1262POPC   C1B15141   8.947  11.063  16.320 -0.1258 -0.1960  0.2238
 1262POPC   C2B15142   8.889  10.694  16.535  0.0447 -0.1382  0.3672
 1262POPC   C3B15143   8.839  10.544  16.948 -0.1965  0.0528  0.3381
 1262POPC   C4B15144   9.078  10.526  17.326 -0.2565  0.2655 -0.1371
 1263POPC   NC315145   6.288  14.013  16.385  0.0105  0.0245 -0.0362
 1263POPC   PO415146   6.648  13.994  16.306 -0.0439  0.1020  0.0103
 1263POPC   GL115147   6.572  14.161  16.714  0.1889 -0.0677 -0.1810
 1263POPC   GL215148   6.759  14.006  16.849 -0.0935 -0.1128  0.0985
 1263POPC   C1A15149   6.560  14.346  17.194 -0.0161  0.2462  0.2440
 1263POPC   D2A15150   6.776  14.161  17.585 -0.0753 -0.1469  0.1422
 1263POPC   C3A15151   6.626  14.031  17.975  0.4178  0.2326  0.1152
 1263POPC   C4A15152   6.267  14.102  18.285  0.1275 -0.1372  0.0301
 1263POPC   C1B15153   7.035  13.861  17.192  0.0152  0.1530 -0.0336
 1263POPC   C2B15154   7.219  13.709  17.626 -0.2137 -0.3096 -0.3581
 1263POPC   C3B15155   7.527  13.827  17.969  0.1565  0.5349  0.1994
 1263POPC   C4B15156   7.653  13.946  18.375 -0.0776 -0.0556  0.1635
 1264POPC   NC315157  13.664   6.010  12.842  0.0472  0.0445 -0.1544
 1264POPC   PO415158  13.877   6.297  13.049  0.1451  0.0767 -0.0072
 1264POPC   GL115159  13.547   6.416  13.225  0.1291 -0.2642  0.4801
 1264POPC   GL215160  13.376   6.162  13.344 -0.1458 -0.0266  0.0767
 1264POPC   C1A15161  13.183   6.718  13.207  0.0065 -0.0346 -0.0922
 1264POPC   D2A15162  12.828   6.451  13.351  0.1389  0.0209  0.0676
 1264POPC   C3A15163  12.935   6.137  13.614 -0.2790 -0.1135 -0.1843
 1264POPC   C4A15164  12.933   5.961  14.095  0.0622 -0.1300  0.0343
 1264POPC   C1B15165  13.105   6.275  12.990  0.0369 -0.0585  0.1539
 1264POPC   C2B15166  12.770   6.446  12.804  0.0617 -0.1693 -0.1088
 1264POPC   C3B15167  12.447   6.674  12.567 -0.3051  0.0486 -0.2040
 1264POPC   C4B15168  12.139   6.758  12.194 -0.0398 -0.2156 -0.0299
 1265POPC   NC315169  14.097   5.524  10.615  0.2146  0.0435  0.0383
 1265POPC   PO415170  14.476   5.498  10.413  0.0656  0.0932 -0.1085
 1265POPC   GL115171  14.237   5.526  10.069 -0.2823  0.0119  0.0713
 1265POPC   GL215172  14.502   5.646   9.905 -0.3649 -0.0173  0.2634
 1265POPC   C1A15173  14.058   5.847   9.876 -0.1720 -0.3928  0.1376
 1265POPC   D2A15174  13.876   6.130   9.616  0.1418  0.0900 -0.0489
 1265POPC   C3A15175  13.426   6.072   9.395 -0.3984  0.3539 -0.0514
 1265POPC   C4A15176  13.124   6.202   9.054  0.0018  0.0861 -0.1625
 1265POPC   C1B15177  14.228   5.523   9.559  0.4601  0.2750 -0.1348
 1265POPC   C2B15178  14.016   5.210   9.351  0.1176 -0.3900  0.0234
 1265POPC   C3B15179  13.564   5.066   9.357  0.4539  0.0249  0.2491
 1265POPC   C4B15180  13.233   4.756   9.520  0.1037 -0.0053 -0.1203
 1266POPC   NC315181   3.414   9.048  16.264 -0.2309 -0.2621 -0.1508
 1266POPC   PO415182   3.545   9.100  15.903 -0.1354  0.0277  0.0039
 1266POPC   GL115183   3.775   9.228  16.036 -0.1389  0.0194  0.0104
 1266POPC   GL215184   3.970   8.938  16.115 -0.1242 -0.3269  0.0646
 1266POPC   C1A15185   3.908   9.291  16.484 -0.0806 -0.0429  0.1257
 1266POPC   D2A15186   4.013   9.006  16.823  0.2202  0.1396 -0.2474
 1266POPC   C3A15187   4.145   8.729  17.240 -0.2005 -0.0653 -0.3324
 1266POPC   C4A15188   4.463   8.493  17.505 -0.0871 -0.3564  0.0233
 1266POPC   C1B15189   3.948   8.672  16.484  0.1461 -0.2948  0.1396
 1266POPC   C2B15190   4.251   8.560  16.719 -0.1683  0.1060 -0.2425
 1266POPC   C3B15191   4.632   8.469  16.923 -0.0550  0.4730  0.0754
 1266POPC   C4B15192   5.066   8.410  17.056 -0.1631  0.2609 -0.3304
 1267POPC   NC315193   6.604   9.867  13.521 -0.0290 -0.1092  0.0934
 1267POPC   PO415194   6.930  10.044  13.677  0.0877 -0.0905 -0.3900
 1267POPC   GL115195   6.991   9.681  13.708 -0.2476 -0.4280 -0.2588
 1267POPC   GL215196   7.288   9.642  13.544  0.0763 -0.1630  0.1888
 1267POPC   C1A15197   7.280   9.502  14.031  0.0033  0.3242 -0.0171
 1267POPC   D2A15198   7.684   9.273  14.168  0.0228  0.1888  0.2124
 1267POPC   C3A15199   8.053   9.047  13.960  0.0266  0.0802 -0.0870
 1267POPC   C4A15200   8.108   8.670  13.744 -0.2409 -0.1430 -0.0291
 1267POPC   C1B15201   7.299   9.165  13.642 -0.1636 -0.2519 -0.0987
 1267POPC   C2B15202   7.522   8.771  13.785 -0.0335  0.0858 -0.1779
 1267POPC   C3B15203   7.729   8.385  13.883 -0.1371 -0.1069 -0.1244
 1267POPC   C4B15204   8.055   8.102  13.997 -0.1878 -0.0869  0.1627
 1268POPC   NC315205   6.778  11.363  15.736 -0.1975  0.0219 -0.0326
 1268POPC   PO415206   6.775  10.971  15.842  0.3643 -0.0210  0.3247
 1268POPC   GL115207   6.859  10.566  15.908 -0.0898  0.1409 -0.2911
 1268POPC   GL215208   7.100  10.501  15.975  0.0697  0.2475  0.0026
 1268POPC   C1A15209   6.562  10.205  16.128 -0.0261 -0.0193  0.1805
 1268POPC   D2A15210   6.652   9.890  16.398 -0.0376 -0.1589 -0.0915
 1268POPC   C3A15211   6.593   9.916  16.841 -0.0787 -0.3375  0.2014
 1268POPC   C4A15212   6.476   9.925  17.243 -0.0839 -0.1897 -0.0059
 1268POPC   C1B15213   6.991  10.300  16.385  0.0022  0.3713 -0.0745
 1268POPC   C2B15214   7.165   9.970  16.742  0.0645 -0.1557 -0.2106
 1268POPC   C3B15215   7.270   9.808  17.124 -0.0961  0.2373 -0.1253
 1268POPC   C4B15216   6.960   9.667  17.426 -0.2487 -0.0182  0.0160
 1269POPC   NC315217   8.002  16.553  14.872 -0.1990  0.0873  0.0547
 1269POPC   PO415218   7.872  16.212  15.085 -0.1888 -0.0358  0.1377
 1269POPC   GL115219   8.052  16.503  15.312 -0.3985 -0.0908 -0.1538
 1269POPC   GL215220   7.857  16.592  15.465  0.2745  0.0831 -0.1375
 1269POPC   C1A15221   8.167  16.480  15.788  0.0790 -0.0610  0.1925
 1269POPC   D2A15222   8.276  16.727  16.168  0.1784 -0.4559 -0.3113
 1269POPC   C3A15223   8.293  17.024  16.566  0.1484 -0.0708 -0.0672
 1269POPC   C4A15224   8.337  17.385  16.823 -0.0147 -0.0012 -0.2488
 1269POPC   C1B15225   7.780  16.803  15.832  0.1864 -0.2165  0.0579
 1269POPC   C2B15226   7.955  17.184  16.040  0.0548  0.0507  0.1803
 1269POPC   C3B15227   7.795  17.472  16.324 -0.0082 -0.1952 -0.3847
 1269POPC   C4B15228   7.873  17.799  16.645  0.1589  0.0777 -0.1902
 1270POPC   NC315229  32.656  11.296  16.088 -0.3766 -0.1021  0.1275
 1270POPC   PO415230  32.640  11.074  16.382  0.0229 -0.1111  0.1081
 1270POPC   GL115231  32.638  10.583  16.561  0.2407  0.0283  0.0167
 1270POPC   GL215232  32.982  10.646  16.502  0.0009  0.0571 -0.1596
 1270POPC   C1A15233  32.226  10.495  16.785 -0.0366 -0.0547 -0.1934
 1270POPC   D2A15234  31.995  10.404  17.135 -0.0760 -0.2249 -0.2453
 1270POPC   C3A15235  31.553  10.230  17.051 -0.0165 -0.1030  0.1756
 1270POPC   C4A15236  31.351   9.877  16.998 -0.0876 -0.1069  0.1659
 1270POPC   C1B15237  32.948  10.744  16.986  0.1195  0.0389 -0.6505
 1270POPC   C2B15238  33.009  10.682  17.425  0.1603  0.2617 -0.0677
 1270POPC   C3B15239  33.108  10.937  17.813  0.2120 -0.3446  0.0656
 1270POPC   C4B15240  33.499  11.257  17.889 -0.0179 -0.1514  0.0226
 1271POPC   NC315241   3.148  10.962  16.442  0.0432  0.1224 -0.2747
 1271POPC   PO415242   2.899  11.279  16.432 -0.3101  0.3276 -0.4733
 1271POPC   GL115243   2.799  11.198  16.813 -0.1238 -0.0654 -0.0836
 1271POPC   GL215244   2.503  11.109  16.895 -0.1063  0.3143  0.0472
 1271POPC   C1A15245   2.866  10.932  17.206 -0.1807 -0.0356 -0.3271
 1271POPC   D2A15246   2.893  10.791  17.664  0.0158 -0.0333 -0.1836
 1271POPC   C3A15247   2.833  11.145  17.975 -0.1054 -0.2682  0.1917
 1271POPC   C4A15248   2.909  11.377  18.354 -0.1424 -0.0045  0.3539
 1271POPC   C1B15249   2.456  11.354  17.270 -0.2523  0.1494 -0.0629
 1271POPC   C2B15250   2.431  11.421  17.712  0.2108  0.2040 -0.2729
 1271POPC   C3B15251   2.312  11.431  18.171  0.2238  0.1891 -0.1437
 1271POPC   C4B15252   2.517  11.389  18.593  0.0808  0.3928  0.1569
 1272POPC   NC315253   2.763   0.002  15.953  0.1146 -0.0138 -0.3486
 1272POPC   PO415254   3.072   0.156  15.874 -0.0699  0.1021  0.2359
 1272POPC   GL115255   3.319   0.007  16.202 -0.0446 -0.3218 -0.0144
 1272POPC   GL215256   3.134   0.044  16.392  0.0372  0.0702 -0.3698
 1272POPC   C1A15257   3.672   0.151  16.471  0.1709 -0.0529 -0.0495
 1272POPC   D2A15258   3.626   0.098  16.928  0.0143  0.0723 -0.0518
 1272POPC   C3A15259   3.792   0.340  17.243  0.0117 -0.1171  0.1076
 1272POPC   C4A15260   3.962   0.301  17.685 -0.0148 -0.1194  0.4038
 1272POPC   C1B15261   3.100   0.062  16.872  0.1703  0.1956 -0.2080
 1272POPC   C2B15262   3.158   0.170  17.323 -0.1380  0.2393  0.0242
 1272POPC   C3B15263   3.397   0.122  17.726 -0.2774  0.2103 -0.1492
 1272POPC   C4B15264   3.726   0.155  18.104 -0.1806 -0.0190 -0.2415
 1273POPC   NC315265   1.738  11.243  16.569 -0.0265  0.1832  0.2953
 1273POPC   PO415266   2.091  11.232  16.532 -0.2317  0.1141 -0.2942
 1273POPC   GL115267   1.905  11.176  16.965  0.1310  0.0521  0.1229
 1273POPC   GL215268   2.030  11.459  17.035 -0.0922 -0.1170  0.1888
 1273POPC   C1A15269   2.041  11.130  17.415 -0.0048  0.0984 -0.1025
 1273POPC   D2A15270   2.050  11.045  17.883  0.0413  0.0223 -0.2368
 1273POPC   C3A15271   1.625  11.082  18.073  0.3410 -0.0685  0.0308
 1273POPC   C4A15272   1.160  11.047  18.223  0.2123  0.1918 -0.2153
 1273POPC   C1B15273   1.919  11.641  17.426  0.1975 -0.2716 -0.1707
 1273POPC   C2B15274   1.949  11.595  17.881 -0.0544 -0.1279 -0.0581
 1273POPC   C3B15275   1.899  11.503  18.329  0.0822  0.2225 -0.0137
 1273POPC   C4B15276   1.884  11.179  18.637 -0.2551 -0.1150 -0.1098
 1274POPC   NC315277   2.940  15.826  16.383  0.1408  0.0109  0.1326
 1274POPC   PO415278   2.983  16.132  16.198 -0.2635  0.0260  0.1482
 1274POPC   GL115279   3.076  16.469  16.393 -0.2248 -0.2105  0.0678
 1274POPC   GL215280   3.161  16.701  16.192 -0.0048 -0.1414  0.0276
 1274POPC   C1A15281   3.419  16.608  16.651 -0.0441  0.0966 -0.0014
 1274POPC   D2A15282   3.674  16.663  17.016 -0.0904 -0.2856 -0.1155
 1274POPC   C3A15283   3.546  16.775  17.385  0.2067  0.0096  0.0504
 1274POPC   C4A15284   3.125  16.844  17.453  0.3514  0.0099 -0.1778
 1274POPC   C1B15285   3.006  16.977  16.551 -0.1178  0.0272  0.4530
 1274POPC   C2B15286   2.814  17.203  16.928 -0.0538 -0.2340 -0.0166
 1274POPC   C3B15287   2.468  17.418  17.186  0.4595  0.3571  0.0341
 1274POPC   C4B15288   2.371  17.479  17.664  0.0005 -0.0647  0.0997
 1275POPC   NC315289  11.421   1.067  13.470 -0.0020  0.0778  0.0685
 1275POPC   PO415290  11.622   0.797  13.673  0.2910  0.3227  0.0560
 1275POPC   GL115291  11.635   1.027  13.925  0.3209 -0.3369 -0.2290
 1275POPC   GL215292  11.806   1.280  13.919 -0.0112  0.1645  0.0027
 1275POPC   C1A15293  11.506   1.152  14.380  0.0860  0.1027 -0.3014
 1275POPC   D2A15294  11.461   1.513  14.653 -0.2267  0.0382 -0.2168
 1275POPC   C3A15295  10.990   1.533  14.811  0.1178  0.3573  0.0832
 1275POPC   C4A15296  10.670   1.746  14.974 -0.0481  0.2223 -0.3404
 1275POPC   C1B15297  11.685   1.693  14.184  0.0987 -0.0250 -0.0104
 1275POPC   C2B15298  11.378   2.028  14.339 -0.0460  0.1616  0.1777
 1275POPC   C3B15299  11.348   2.496  14.436 -0.0465 -0.2070 -0.1770
 1275POPC   C4B15300  11.079   2.767  14.724 -0.0413 -0.1798  0.0923
 1276POPC   NC315301   6.907  10.138  15.133 -0.0601 -0.1195 -0.0489
 1276POPC   PO415302   7.197  10.412  15.036 -0.0776 -0.1815 -0.1883
 1276POPC   GL115303   7.430  10.034  15.073  0.2310 -0.1445 -0.0638
 1276POPC   GL215304   7.702  10.054  15.117  0.2354  0.2446  0.2096
 1276POPC   C1A15305   7.300   9.819  15.512 -0.1386 -0.0627 -0.1170
 1276POPC   D2A15306   7.270   9.473  15.812  0.0794  0.2794  0.2676
 1276POPC   C3A15307   7.560   9.199  15.607  0.0374 -0.2539  0.0250
 1276POPC   C4A15308   7.862   9.061  15.247  0.1357  0.1378 -0.0101
 1276POPC   C1B15309   7.806   9.954  15.544  0.3463  0.0680  0.1921
 1276POPC   C2B15310   7.772   9.680  15.948  0.1234  0.2722 -0.1010
 1276POPC   C3B15311   7.842   9.569  16.374  0.3301 -0.2136  0.0434
 1276POPC   C4B15312   7.653   9.872  16.704  0.4092 -0.0770 -0.4810
 1277POPC   NC315313   5.904  14.149  15.958  0.0709 -0.2668 -0.1429
 1277POPC   PO415314   6.246  14.320  16.041 -0.0128 -0.2551  0.1302
 1277POPC   GL115315   6.498  14.457  16.335 -0.1932 -0.1123 -0.1016
 1277POPC   GL215316   6.368  14.698  16.431 -0.0904  0.3728  0.0015
 1277POPC   C1A15317   6.792  14.589  16.688 -0.1384 -0.0216  0.0127
 1277POPC   D2A15318   6.848  14.756  17.077 -0.0650 -0.1224 -0.0994
 1277POPC   C3A15319   6.624  14.755  17.503  0.1242  0.1019 -0.4153
 1277POPC   C4A15320   6.409  14.477  17.828  0.2103 -0.1571  0.1752
 1277POPC   C1B15321   6.528  15.066  16.633 -0.0238  0.0867  0.0590
 1277POPC   C2B15322   6.688  15.329  17.037  0.1488 -0.0325 -0.0340
 1277POPC   C3B15323   6.882  15.181  17.425 -0.2325 -0.0512  0.1748
 1277POPC   C4B15324   6.962  15.221  17.834 -0.3387 -0.1381 -0.1041
 1278POPC   NC315325   8.633  11.977  16.208  0.0118 -0.1731 -0.0802
 1278POPC   PO415326   8.949  11.817  16.033  0.0334  0.2844 -0.0408
 1278POPC   GL115327   9.090  11.738  16.356 -0.1290 -0.0353  0.0786
 1278POPC   GL215328   8.930  11.636  16.478  0.2148  0.0005  0.0239
 1278POPC   C1A15329   9.425  11.887  16.601 -0.1249  0.1162 -0.4079
 1278POPC   D2A15330   9.716  12.039  16.848 -0.2845  0.1113  0.3590
 1278POPC   C3A15331  10.101  11.914  17.154 -0.0494  0.1253 -0.0070
 1278POPC   C4A15332  10.329  11.793  17.545 -0.4002  0.2425  0.0435
 1278POPC   C1B15333   9.066  11.330  16.803  0.2329  0.0092  0.1794
 1278POPC   C2B15334   9.217  10.896  16.930 -0.1880 -0.3362  0.2145
 1278POPC   C3B15335   9.296  10.450  16.819 -0.1965  0.0733 -0.0025
 1278POPC   C4B15336   9.356  10.004  16.638  0.0477  0.2148 -0.2438
 1279POPC   NC315337  14.605   3.180  13.786 -0.0598 -0.0796 -0.1840
 1279POPC   PO415338  14.219   3.281  13.716  0.1548  0.0863 -0.0138
 1279POPC   GL115339  13.887   3.400  13.768 -0.1000  0.2879  0.1785
 1279POPC   GL215340  13.825   3.232  13.986 -0.2594 -0.2210 -0.0185
 1279POPC   C1A15341  13.436   3.323  13.603 -0.3533  0.0002 -0.0787
 1279POPC   D2A15342  12.954   3.179  13.631 -0.3650 -0.0891 -0.1134
 1279POPC   C3A15343  12.580   3.346  13.567 -0.0213 -0.1900 -0.2335
 1279POPC   C4A15344  12.173   3.226  13.426  0.0709  0.0975 -0.1068
 1279POPC   C1B15345  13.536   3.596  14.001 -0.0948  0.1895 -0.3726
 1279POPC   C2B15346  13.091   3.615  13.910 -0.1063 -0.1920 -0.1452
 1279POPC   C3B15347  12.754   3.817  13.696 -0.0202 -0.1969  0.1357
 1279POPC   C4B15348  12.251   3.692  13.613 -0.0371  0.2645  0.0147
 1280POPC   NC315349  14.604  13.306  16.254  0.2680 -0.3381  0.0775
 1280POPC   PO415350  14.752  13.187  16.608 -0.0868  0.0584  0.0955
 1280POPC   GL115351  14.783  13.206  16.955  0.1054 -0.0980 -0.1067
 1280POPC   GL215352  14.614  13.355  17.129  0.1840 -0.0757  0.0757
 1280POPC   C1A15353  14.882  12.894  17.320  0.0489 -0.2009  0.1052
 1280POPC   D2A15354  15.062  13.006  17.686  0.1171  0.0397 -0.3484
 1280POPC   C3A15355  15.205  12.993  18.101 -0.1518 -0.0210 -0.0862
 1280POPC   C4A15356  15.563  12.956  18.356  0.2485  0.0369  0.2809
 1280POPC   C1B15357  14.575  13.226  17.604  0.2342  0.0527 -0.0745
 1280POPC   C2B15358  14.580  13.067  18.046 -0.2335 -0.1127  0.0999
 1280POPC   C3B15359  14.261  12.981  18.418 -0.0179 -0.5829  0.4143
 1280POPC   C4B15360  14.017  12.897  18.785  0.0471 -0.0945 -0.0299
 1281POPC   NC315361   7.387  13.002  16.182  0.3578 -0.4336 -0.5715
 1281POPC   PO415362   7.345  12.625  16.256 -0.0958 -0.1314 -0.1846
 1281POPC   GL115363   7.404  12.411  16.548  0.0426  0.6033 -0.0653
 1281POPC   GL215364   7.621  12.465  16.719 -0.0417 -0.2140 -0.1715
 1281POPC   C1A15365   7.457  12.011  16.804 -0.1660  0.2789  0.1203
 1281POPC   D2A15366   7.379  11.750  17.162 -0.1865 -0.1371 -0.1285
 1281POPC   C3A15367   7.347  11.928  17.600 -0.1791 -0.2761 -0.2032
 1281POPC   C4A15368   7.354  11.842  18.093 -0.1233  0.3404 -0.1969
 1281POPC   C1B15369   7.560  12.644  17.173  0.1533  0.1523 -0.0418
 1281POPC   C2B15370   7.277  12.700  17.516  0.2527 -0.0800 -0.0437
 1281POPC   C3B15371   7.054  12.393  17.781 -0.1008 -0.0618 -0.2098
 1281POPC   C4B15372   6.855  12.018  17.932 -0.4816  0.1663  0.0213
 1282POPC   NC315373   6.083  14.654  15.772 -0.1174  0.3050 -0.1337
 1282POPC   PO415374   5.858  14.918  15.938  0.0343  0.0836 -0.4238
 1282POPC   GL115375   6.050  14.988  16.322  0.0072  0.0717 -0.0699
 1282POPC   GL215376   5.915  15.221  16.389  0.0444 -0.3161 -0.1579
 1282POPC   C1A15377   5.916  14.808  16.705 -0.3330  0.0166 -0.0424
 1282POPC   D2A15378   5.778  14.559  17.058 -0.1778 -0.2255 -0.1001
 1282POPC   C3A15379   5.961  14.630  17.458  0.3483 -0.2472 -0.4628
 1282POPC   C4A15380   6.183  14.930  17.705  0.3194  0.2437 -0.0823
 1282POPC   C1B15381   6.100  15.343  16.819 -0.0303 -0.0797  0.3453
 1282POPC   C2B15382   6.290  15.581  17.160  0.0110 -0.1207 -0.0842
 1282POPC   C3B15383   6.183  15.755  17.605 -0.2371  0.0332  0.0067
 1282POPC   C4B15384   6.437  15.618  17.962 -0.0673  0.1303 -0.2421
 1283POPC   NC315385  12.927   8.930  15.059 -0.0921 -0.1303 -0.1543
 1283POPC   PO415386  12.582   9.134  15.006 -0.1119 -0.0405 -0.0368
 1283POPC   GL115387  12.244   9.301  15.201 -0.0654 -0.1785 -0.3722
 1283POPC   GL215388  12.394   9.531  15.298 -0.0628  0.1138  0.0003
 1283POPC   C1A15389  11.778   9.206  15.114 -0.0389 -0.1790  0.0072
 1283POPC   D2A15390  11.281   9.219  15.238  0.1661  0.0379  0.3474
 1283POPC   C3A15391  11.116   8.956  15.581  0.0543  0.0860 -0.1515
 1283POPC   C4A15392  11.075   8.571  15.911 -0.1022 -0.0527  0.1351
 1283POPC   C1B15393  12.234   9.577  15.753 -0.3465 -0.0850  0.0393
 1283POPC   C2B15394  11.964   9.408  16.090 -0.0779 -0.0727  0.2153
 1283POPC   C3B15395  11.659   9.116  16.159  0.0125  0.2135 -0.0743
 1283POPC   C4B15396  11.504   8.690  16.198 -0.2356  0.4528 -0.0630
 1284POPC   NC315397  10.237  10.860  12.360 -0.2757  0.1656  0.0002
 1284POPC   PO415398  10.196  10.978  12.766  0.1898 -0.1518  0.1018
 1284POPC   GL115399  10.164  10.670  12.926  0.4995  0.3289 -0.0251
 1284POPC   GL215400  10.349  10.549  13.081  0.2349 -0.2189  0.0852
 1284POPC   C1A15401   9.834  10.329  12.800  0.2154  0.1819  0.0217
 1284POPC   D2A15402   9.437  10.089  12.923 -0.2896 -0.0576  0.3747
 1284POPC   C3A15403   9.453   9.629  13.046 -0.2663 -0.2783  0.1153
 1284POPC   C4A15404   9.416   9.283  13.357 -0.3217  0.1669  0.1424
 1284POPC   C1B15405  10.263  10.105  13.248  0.2316 -0.2526  0.3216
 1284POPC   C2B15406  10.340   9.626  13.185 -0.0684  0.0202 -0.1653
 1284POPC   C3B15407  10.718   9.435  13.404  0.0079  0.0658 -0.1009
 1284POPC   C4B15408  11.071   9.605  13.604  0.2366 -0.1521 -0.2105
 1285POPC   NC315409   1.599  10.343  15.931 -0.1976 -0.0120  0.1012
 1285POPC   PO415410   1.446  10.369  16.300  0.1113 -0.1408  0.1913
 1285POPC   GL115411   1.711  10.112  16.559  0.1460  0.1758 -0.0299
 1285POPC   GL215412   1.626   9.796  16.632  0.0004 -0.2900 -0.1178
 1285POPC   C1A15413   1.934  10.220  16.976  0.1018 -0.2185  0.0560
 1285POPC   D2A15414   1.841  10.456  17.329 -0.0778 -0.2158 -0.3830
 1285POPC   C3A15415   1.517  10.396  17.655 -0.1464 -0.1253  0.0558
 1285POPC   C4A15416   1.561  10.157  18.033  0.2748 -0.0108 -0.1385
 1285POPC   C1B15417   1.851   9.688  17.017  0.0205  0.0322 -0.0889
 1285POPC   C2B15418   1.924   9.572  17.419 -0.1721 -0.0706 -0.3410
 1285POPC   C3B15419   2.008   9.469  17.824 -0.0127  0.0769  0.0050
 1285POPC   C4B15420   2.205   9.394  18.224  0.2529 -0.0697 -0.0357
 1286POPC   NC315421  13.604   8.531  12.698  0.1544 -0.3340  0.0629
 1286POPC   PO415422  13.241   8.711  12.627  0.0878 -0.0500 -0.0175
 1286POPC   GL115423  13.015   8.437  12.621 -0.0408  0.0344 -0.1073
 1286POPC   GL215424  13.091   8.196  12.477 -0.1972  0.0698  0.3367
 1286POPC   C1A15425  12.585   8.226  12.557  0.0969  0.1559 -0.0744
 1286POPC   D2A15426  12.384   7.811  12.577 -0.2181 -0.0554  0.2408
 1286POPC   C3A15427  12.393   7.544  12.228  0.1093  0.1052 -0.0487
 1286POPC   C4A15428  12.281   7.334  11.766  0.0864  0.1168  0.2279
 1286POPC   C1B15429  12.902   7.822  12.458  0.0147  0.3432 -0.1544
 1286POPC   C2B15430  12.879   7.463  12.182  0.0715  0.1934  0.1046
 1286POPC   C3B15431  12.866   7.182  11.788 -0.1171  0.2210 -0.0750
 1286POPC   C4B15432  12.982   7.128  11.323  0.0084 -0.0593 -0.1608
 1287POPC   NC315433   4.455  15.080  16.526 -0.0817 -0.1722 -0.2911
 1287POPC   PO415434   4.725  14.849  16.409 -0.1448  0.1333 -0.4291
 1287POPC   GL115435   5.031  14.907  16.603 -0.2556 -0.0710  0.0232
 1287POPC   GL215436   5.078  15.188  16.757 -0.3646  0.0141 -0.3246
 1287POPC   C1A15437   5.255  14.729  16.976  0.0221 -0.0853 -0.0357
 1287POPC   D2A15438   5.168  14.659  17.407  0.0843 -0.1485 -0.0902
 1287POPC   C3A15439   5.172  14.909  17.784 -0.0192  0.0422  0.2474
 1287POPC   C4A15440   4.903  14.988  18.110  0.1396 -0.0598 -0.1527
 1287POPC   C1B15441   5.221  15.453  17.080  0.0409 -0.1561  0.0437
 1287POPC   C2B15442   5.344  15.427  17.504 -0.0959 -0.0631  0.0141
 1287POPC   C3B15443   5.334  15.327  17.968 -0.0309  0.0182  0.1435
 1287POPC   C4B15444   5.352  15.063  18.316  0.1735  0.1844  0.1569
 1288POPC   NC315445   1.587  11.297  16.080 -0.1352  0.1951 -0.0009
 1288POPC   PO415446   1.316  11.079  16.318  0.2102  0.0636 -0.2686
 1288POPC   GL115447   1.268  11.241  16.703 -0.1486 -0.0117 -0.3833
 1288POPC   GL215448   1.381  10.945  16.837 -0.0704  0.0519 -0.0284
 1288POPC   C1A15449   0.921  11.327  17.016  0.3239 -0.0911  0.2271
 1288POPC   D2A15450   0.580  11.643  17.091  0.0812 -0.1472  0.1399
 1288POPC   C3A15451   0.525  11.626  17.558 -0.0675 -0.1559  0.0089
 1288POPC   C4A15452   0.621  11.721  18.060 -0.2153  0.0414 -0.0021
 1288POPC   C1B15453   1.636  10.935  17.164  0.2601  0.0236  0.1239
 1288POPC   C2B15454   1.645  10.857  17.621 -0.1283  0.4015 -0.0220
 1288POPC   C3B15455   1.821  10.606  18.000  0.3071 -0.1149 -0.2246
 1288POPC   C4B15456   1.741  10.687  18.466 -0.2175  0.2217  0.1692
 1289POPC   NC315457   9.150   0.127  14.561  0.3266  0.1081 -0.3256
 1289POPC   PO415458   9.132  -0.166  14.823  0.2566  0.0284  0.1711
 1289POPC   GL115459   9.009   0.084  15.116  0.1925 -0.4632  0.0335
 1289POPC   GL215460   8.800  -0.000  15.213  0.0340  0.2236  0.0156
 1289POPC   C1A15461   9.243   0.263  15.467 -0.1649 -0.0953 -0.0938
 1289POPC   D2A15462   9.145   0.619  15.724  0.3275  0.1562 -0.0042
 1289POPC   C3A15463   9.529   0.757  15.966 -0.2545 -0.1154 -0.1194
 1289POPC   C4A15464   9.577   1.237  15.951  0.1365  0.1197 -0.3295
 1289POPC   C1B15465   8.661   0.247  15.504 -0.0730 -0.2908 -0.1465
 1289POPC   C2B15466   8.593   0.596  15.832 -0.1094 -0.1490 -0.1159
 1289POPC   C3B15467   8.398   0.845  16.128 -0.0171 -0.1557  0.2307
 1289POPC   C4B15468   8.136   1.181  16.343  0.2968  0.0727 -0.0464
 1290POPC   NC315469   2.071  10.496  15.822 -0.3778  0.1913 -0.2622
 1290POPC   PO415470   2.319  10.607  16.097  0.2805 -0.0706 -0.2685
 1290POPC   GL115471   2.176  10.733  16.471 -0.0756 -0.3675 -0.1089
 1290POPC   GL215472   2.304  10.702  16.715  0.1160  0.0578  0.0718
 1290POPC   C1A15473   1.825  10.697  16.711 -0.1158 -0.1042 -0.0013
 1290POPC   D2A15474   1.460  10.418  16.877  0.1436 -0.0370  0.1995
 1290POPC   C3A15475   1.533  10.045  17.230 -0.5724  0.0523  0.1430
 1290POPC   C4A15476   1.809   9.988  17.635 -0.0126  0.1795  0.2302
 1290POPC   C1B15477   2.200  10.776  17.182  0.1880 -0.1426 -0.1658
 1290POPC   C2B15478   2.248  10.639  17.637  0.0821 -0.1872 -0.1426
 1290POPC   C3B15479   2.475  10.853  17.997 -0.3537  0.1525 -0.3112
 1290POPC   C4B15480   2.689  10.856  18.437  0.3696 -0.1365 -0.0258
 1291POPC   NC315481   1.084  15.263  16.933  0.0386 -0.0953 -0.0079
 1291POPC   PO415482   0.740  15.323  16.717  0.0454 -0.0745 -0.0069
 1291POPC   GL115483   0.731  15.609  16.985 -0.2445  0.0218  0.0005
 1291POPC   GL215484   0.564  15.839  16.969  0.1957 -0.0434  0.1944
 1291POPC   C1A15485   0.816  15.858  17.412 -0.0923 -0.3711  0.1003
 1291POPC   D2A15486   0.581  16.225  17.602 -0.1067  0.0341  0.1972
 1291POPC   C3A15487   0.394  16.278  18.023 -0.3891  0.0490  0.1300
 1291POPC   C4A15488   0.354  15.952  18.346  0.2105  0.0254  0.0955
 1291POPC   C1B15489   0.782  16.259  17.097 -0.0181  0.1524 -0.0495
 1291POPC   C2B15490   1.091  16.541  17.267 -0.0201  0.3587  0.0970
 1291POPC   C3B15491   1.080  16.835  17.643  0.1454 -0.0389 -0.2238
 1291POPC   C4B15492   1.135  17.221  17.834  0.1967 -0.1403 -0.0116
 1292POPC   NC315493  13.130  13.049  16.344 -0.0409  0.2014  0.1624
 1292POPC   PO415494  13.277  13.361  16.578 -0.0724  0.1991  0.0703
 1292POPC   GL115495  13.443  13.421  17.038  0.4077  0.2701  0.3055
 1292POPC   GL215496  13.211  13.569  17.068 -0.5671  0.0973 -0.1078
 1292POPC   C1A15497  13.595  13.555  17.448 -0.1058  0.2887 -0.2088
 1292POPC   D2A15498  13.447  13.666  17.877 -0.1713 -0.1454 -0.3908
 1292POPC   C3A15499  13.283  13.451  18.226  0.1838  0.3417  0.1391
 1292POPC   C4A15500  12.848  13.532  18.424 -0.2967  0.2700 -0.1414
 1292POPC   C1B15501  13.023  13.739  17.454 -0.0485 -0.0353  0.0432
 1292POPC   C2B15502  12.971  14.116  17.712 -0.1308 -0.0770  0.4445
 1292POPC   C3B15503  12.852  14.349  18.070  0.1015  0.0506  0.0349
 1292POPC   C4B15504  12.603  14.519  18.468  0.1593 -0.2735  0.1306
 1293POPC   NC315505  11.093  10.456  13.634 -0.1163 -0.0636  0.0172
 1293POPC   PO415506  11.280  10.475  14.030 -0.1071  0.1378  0.3144
 1293POPC   GL115507  11.105  10.091  14.179 -0.0501  0.0049  0.0707
 1293POPC   GL215508  11.137   9.876  14.015 -0.2040 -0.3599 -0.0143
 1293POPC   C1A15509  10.866   9.763  14.455  0.4013  0.1229  0.1722
 1293POPC   D2A15510  10.650   9.407  14.625 -0.0949 -0.1412  0.2870
 1293POPC   C3A15511  10.860   9.099  14.915 -0.1148  0.0333  0.0847
 1293POPC   C4A15512  11.120   8.731  14.979  0.2242 -0.2922  0.0532
 1293POPC   C1B15513  10.744   9.627  13.978  0.0504  0.2385  0.1616
 1293POPC   C2B15514  10.661   9.182  14.134 -0.1811  0.1624  0.0196
 1293POPC   C3B15515  10.337   8.858  14.096  0.0130 -0.0003  0.1568
 1293POPC   C4B15516   9.905   8.669  14.007 -0.0246  0.1694  0.0402
 1294POPC   NC315517   9.344  12.154  16.122  0.2109 -0.1406 -0.2539
 1294POPC   PO415518   9.030  12.333  16.074 -0.1402 -0.0204  0.2540
 1294POPC   GL115519   8.991  12.235  16.424  0.0229 -0.1223 -0.1985
 1294POPC   GL215520   9.102  12.471  16.566  0.1343 -0.3385  0.1897
 1294POPC   C1A15521   9.017  12.044  16.844  0.0115  0.1219  0.1844
 1294POPC   D2A15522   8.986  12.166  17.285 -0.2211 -0.1322  0.0377
 1294POPC   C3A15523   8.700  11.859  17.450 -0.1790 -0.2302 -0.2609
 1294POPC   C4A15524   8.285  11.712  17.658 -0.3483  0.0559  0.0144
 1294POPC   C1B15525   8.933  12.568  16.995  0.1645  0.0492 -0.1100
 1294POPC   C2B15526   9.112  12.608  17.402  0.0793 -0.2442  0.0116
 1294POPC   C3B15527   9.173  12.860  17.774 -0.1084  0.0560  0.2601
 1294POPC   C4B15528   9.380  12.912  18.234  0.0437  0.0256 -0.2568
 1295POPC   NC315529   2.888   8.209  15.523  0.2533  0.0372 -0.0471
 1295POPC   PO415530   3.207   8.395  15.629  0.1359  0.1407  0.2039
 1295POPC   GL115531   3.358   8.138  16.004 -0.0979 -0.1651 -0.0311
 1295POPC   GL215532   3.129   7.978  15.916  0.1940 -0.1854 -0.4197
 1295POPC   C1A15533   3.248   7.774  16.323 -0.3109  0.0964  0.0006
 1295POPC   D2A15534   3.182   7.546  16.773  0.1255 -0.2113  0.2858
 1295POPC   C3A15535   3.383   7.565  17.154 -0.2887 -0.1250  0.1153
 1295POPC   C4A15536   3.830   7.674  17.181  0.1152 -0.3305 -0.0640
 1295POPC   C1B15537   3.586   7.791  15.897 -0.1704  0.0745 -0.0835
 1295POPC   C2B15538   4.029   7.774  16.023  0.1050  0.3951 -0.0220
 1295POPC   C3B15539   4.337   7.837  16.293  0.0200  0.1152  0.1777
 1295POPC   C4B15540   4.520   7.563  16.686 -0.2527  0.3182 -0.0209
 1296POPC   NC315541  32.098   3.396  15.364  0.0830 -0.1450  0.1191
 1296POPC   PO415542  32.021   3.726  15.506 -0.2352 -0.1534  0.1778
 1296POPC   GL115543  31.973   4.050  15.769  0.0027  0.0529  0.1925
 1296POPC   GL215544  31.771   4.247  15.647  0.0755 -0.2044  0.0619
 1296POPC   C1A15545  32.098   4.247  16.153 -0.2572 -0.3255  0.2245
 1296POPC   D2A15546  31.852   4.369  16.470 -0.1140  0.0573 -0.1132
 1296POPC   C3A15547  31.651   4.820  16.535  0.1047 -0.0228  0.3017
 1296POPC   C4A15548  31.453   5.113  16.868  0.1630  0.1744 -0.0260
 1296POPC   C1B15549  31.576   4.050  16.018 -0.1203  0.1895 -0.0222
 1296POPC   C2B15550  31.499   3.939  16.483  0.4569 -0.3109 -0.2295
 1296POPC   C3B15551  31.684   4.113  16.876 -0.2292  0.0326  0.0681
 1296POPC   C4B15552  31.582   4.595  16.990 -0.1052  0.1620 -0.2259
 1297POPC   NC315553   3.596   8.681  15.075  0.2867 -0.0402 -0.0797
 1297POPC   PO415554   3.923   8.483  15.059 -0.2768 -0.0553 -0.2202
 1297POPC   GL115555   4.032   8.366  15.423 -0.1118 -0.0438 -0.1100
 1297POPC   GL215556   4.206   8.162  15.352  0.0594 -0.1285 -0.0404
 1297POPC   C1A15557   3.859   8.248  15.877 -0.2539 -0.1009 -0.3079
 1297POPC   D2A15558   3.981   8.117  16.329  0.2400  0.1652 -0.2009
 1297POPC   C3A15559   4.138   7.892  16.771  0.2822 -0.0788 -0.2161
 1297POPC   C4A15560   4.156   8.075  17.261 -0.2013  0.1528  0.2096
 1297POPC   C1B15561   4.378   8.028  15.781  0.0432 -0.2326  0.0009
 1297POPC   C2B15562   4.649   8.225  16.097  0.3604  0.0422  0.0526
 1297POPC   C3B15563   4.711   8.067  16.497  0.0996 -0.0730 -0.1907
 1297POPC   C4B15564   4.628   7.971  16.935 -0.1424  0.0036 -0.2738
 1298POPC   NC315565   4.825  10.469  15.546 -0.0158  0.2236  0.0236
 1298POPC   PO415566   4.508  10.429  15.776  0.0872 -0.1641  0.0699
 1298POPC   GL115567   4.829  10.367  16.019 -0.2450  0.1603  0.2074
 1298POPC   GL215568   5.151  10.450  15.903 -0.2151  0.1950 -0.0727
 1298POPC   C1A15569   4.991   9.891  16.091 -0.0143 -0.0786  0.2386
 1298POPC   D2A15570   4.790   9.481  15.952 -0.6579 -0.2057 -0.0238
 1298POPC   C3A15571   4.898   9.093  16.140  0.0304 -0.0907 -0.0642
 1298POPC   C4A15572   5.244   8.898  16.264 -0.2978  0.0239  0.3925
 1298POPC   C1B15573   5.326  10.205  16.254 -0.2391 -0.2463 -0.0650
 1298POPC   C2B15574   5.606   9.783  16.365  0.1854  0.2146 -0.1045
 1298POPC   C3B15575   5.561   9.563  16.715  0.2897  0.0300  0.1696
 1298POPC   C4B15576   5.632   9.250  17.076  0.5179 -0.0464  0.1830
 1299POPC   NC315577   8.636  11.258  10.741 -0.1433  0.0657 -0.2642
 1299POPC   PO415578   8.845  11.536  10.651  0.2417 -0.0743 -0.0040
 1299POPC   GL115579   9.081  11.242  10.480 -0.0262  0.4422  0.0208
 1299POPC   GL215580   9.368  11.275  10.429 -0.0604 -0.1650  0.0831
 1299POPC   C1A15581   8.985  10.841  10.311 -0.1239  0.1671  0.0856
 1299POPC   D2A15582   8.868  10.776   9.890  0.1699  0.1154 -0.2206
 1299POPC   C3A15583   8.733  10.359   9.728 -0.0413  0.2628 -0.0068
 1299POPC   C4A15584   8.722   9.953   9.563 -0.3088 -0.0483  0.2040
 1299POPC   C1B15585   9.452  10.857  10.463 -0.3026  0.1506 -0.1056
 1299POPC   C2B15586   9.384  10.411  10.414  0.0818  0.0891  0.2934
 1299POPC   C3B15587   9.431  10.071  10.170 -0.1702 -0.2460  0.0410
 1299POPC   C4B15588   9.437   9.593  10.025  0.1015  0.0707 -0.0928
 1300POPC   NC315589  13.582  16.947   8.704  0.1583 -0.4178  0.0156
 1300POPC   PO415590  13.329  16.668   8.812  0.3161 -0.0359  0.0991
 1300POPC   GL115591  13.157  16.810   8.560 -0.0591  0.0968  0.1705
 1300POPC   GL215592  13.031  17.086   8.643  0.0088  0.3226  0.1407
 1300POPC   C1A15593  12.815  16.995   8.253 -0.2238 -0.1615  0.3343
 1300POPC   D2A15594  12.700  17.336   8.038  0.1273 -0.1724 -0.1591
 1300POPC   C3A15595  12.542  17.582   7.772  0.0602 -0.2067 -0.2519
 1300POPC   C4A15596  12.161  17.810   7.887 -0.1429  0.0929  0.0410
 1300POPC   C1B15597  13.353  17.155   8.318 -0.2320  0.2522  0.1276
 1300POPC   C2B15598  13.285  17.534   8.082  0.1277 -0.2938  0.3543
 1300POPC   C3B15599  13.494  17.891   7.821  0.0755 -0.1227 -0.0993
 1300POPC   C4B15600  13.606  18.231   7.461 -0.0385 -0.1778  0.1712
 1301POPC   NC315601  13.990  10.177  10.071 -0.1413 -0.0255 -0.2620
 1301POPC   PO415602  13.752  10.480   9.925 -0.1822  0.0916 -0.0956
 1301POPC   GL115603  14.087  10.531   9.535 -0.0643 -0.0478  0.2067
 1301POPC   GL215604  14.103  10.776   9.376  0.2157 -0.0725  0.0282
 1301POPC   C1A15605  14.204  10.205   9.228  0.1110 -0.0231  0.0932
 1301POPC   D2A15606  14.050   9.871   8.970 -0.1146 -0.0064 -0.1398
 1301POPC   C3A15607  13.946   9.812   8.540  0.2677 -0.2345  0.1717
 1301POPC   C4A15608  13.762   9.745   8.074 -0.0496  0.0966  0.0282
 1301POPC   C1B15609  13.868  10.519   9.042 -0.0587  0.0748 -0.2497
 1301POPC   C2B15610  13.931  10.311   8.686  0.2647  0.0889 -0.4455
 1301POPC   C3B15611  13.756  10.249   8.241  0.0442  0.3651 -0.2489
 1301POPC   C4B15612  13.509  10.194   7.872 -0.3173 -0.1873 -0.2789
 1302POPC   NC315613  10.703  11.949   9.651 -0.0932 -0.0964 -0.3606
 1302POPC   PO415614  10.363  11.927   9.824 -0.1544  0.0550  0.0662
 1302POPC   GL115615  10.372  11.565   9.685  0.2154  0.1779 -0.3789
 1302POPC   GL215616  10.102  11.567   9.530  0.0564 -0.0932 -0.5606
 1302POPC   C1A15617  10.642  11.354   9.418  0.1229  0.3371  0.2093
 1302POPC   D2A15618  10.903  11.347   9.031 -0.1950  0.2377 -0.1718
 1302POPC   C3A15619  10.978  11.008   8.679  0.3356 -0.1798  0.0144
 1302POPC   C4A15620  11.157  11.010   8.252 -0.0837  0.0688 -0.3771
 1302POPC   C1B15621   9.992  11.188   9.300 -0.0475 -0.2883  0.2928
 1302POPC   C2B15622   9.745  11.035   8.973  0.0843 -0.1308  0.2460
 1302POPC   C3B15623   9.496  10.672   8.880 -0.0498  0.1609  0.0563
 1302POPC   C4B15624   9.361  10.207   8.825  0.1719 -0.2725  0.0408
 1303POPC   NC315625  11.769  16.434  15.558  0.0166  0.0677 -0.0811
 1303POPC   PO415626  11.609  16.143  15.724  0.2623  0.4281  0.0039
 1303POPC   GL115627  11.378  16.323  16.004 -0.0146 -0.0485  0.3704
 1303POPC   GL215628  11.117  16.181  16.005 -0.1073 -0.4687  0.3881
 1303POPC   C1A15629  11.327  16.815  16.058 -0.1029  0.2260  0.0915
 1303POPC   D2A15630  11.054  17.112  15.779 -0.2685 -0.2034  0.2231
 1303POPC   C3A15631  10.924  17.493  16.029 -0.2075  0.1102 -0.0174
 1303POPC   C4A15632  10.668  17.834  16.175  0.0784 -0.1523 -0.4322
 1303POPC   C1B15633  11.036  16.450  16.351 -0.1001  0.0887  0.3186
 1303POPC   C2B15634  11.064  16.420  16.803 -0.4218  0.2737 -0.2838
 1303POPC   C3B15635  10.866  16.787  17.037  0.0240  0.4399 -0.1174
 1303POPC   C4B15636  10.535  17.149  17.110  0.0561 -0.2091  0.0564
 1304POPC   NC315637   4.705   6.860  10.779  0.1459  0.2597  0.2343
 1304POPC   PO415638   4.607   7.187  10.617 -0.2100 -0.2389  0.1083
 1304POPC   GL115639   4.770   7.158  10.226  0.1250  0.0442  0.0655
 1304POPC   GL215640   4.570   7.167  10.049  0.1728  0.0195  0.0030
 1304POPC   C1A15641   5.185   7.249  10.337  0.0682 -0.1021 -0.0396
 1304POPC   D2A15642   5.635   7.081  10.345 -0.0818 -0.1308  0.2031
 1304POPC   C3A15643   5.822   6.690  10.237 -0.0847  0.1521 -0.0213
 1304POPC   C4A15644   5.838   6.273  10.150  0.2902 -0.0879  0.0214
 1304POPC   C1B15645   4.695   6.902   9.723 -0.1882 -0.0303 -0.1804
 1304POPC   C2B15646   4.688   6.851   9.206 -0.0342 -0.1190  0.1743
 1304POPC   C3B15647   4.886   7.121   8.908  0.1400 -0.3133 -0.1680
 1304POPC   C4B15648   5.239   7.267   8.639  0.2949 -0.0232  0.1216
 1305POPC   NC315649  12.483  10.332  15.418 -0.3866  0.1890  0.1584
 1305POPC   PO415650  12.584   9.968  15.270  0.2979  0.3421  0.1590
 1305POPC   GL115651  12.144   9.976  15.290 -0.1869  0.1571  0.0282
 1305POPC   GL215652  12.118  10.015  15.596  0.1629  0.2371  0.2101
 1305POPC   C1A15653  11.889   9.587  15.426  0.1898 -0.0393  0.0867
 1305POPC   D2A15654  11.621   9.362  15.730 -0.0758  0.2648 -0.0189
 1305POPC   C3A15655  11.577   8.911  15.738  0.0720  0.2443  0.0225
 1305POPC   C4A15656  11.546   8.420  15.748  0.1831  0.0001 -0.4534
 1305POPC   C1B15657  11.809   9.824  15.902  0.0429  0.3310  0.0887
 1305POPC   C2B15658  11.428   9.612  16.103 -0.1119  0.0228  0.0943
 1305POPC   C3B15659  10.913   9.632  16.106 -0.0354  0.2479  0.2324
 1305POPC   C4B15660  10.574   9.531  16.416  0.2382 -0.1011  0.1117
 1306POPC   NC315661   3.947   4.680   9.456  0.2545 -0.0565  0.0300
 1306POPC   PO415662   4.021   4.990   9.688 -0.1223  0.3175 -0.0659
 1306POPC   GL115663   3.954   5.126   9.216  0.1977  0.3562  0.2397
 1306POPC   GL215664   4.009   5.445   9.186  0.1468 -0.0467  0.2892
 1306POPC   C1A15665   3.897   4.941   8.738  0.0995 -0.1660  0.1056
 1306POPC   D2A15666   3.853   5.128   8.288  0.3322 -0.0543  0.3362
 1306POPC   C3A15667   4.176   5.261   7.947 -0.2413 -0.0781  0.0055
 1306POPC   C4A15668   4.586   5.516   7.996  0.0031  0.0730  0.1661
 1306POPC   C1B15669   4.319   5.246   8.893 -0.2857 -0.1363 -0.0191
 1306POPC   C2B15670   4.634   5.397   8.620  0.3273 -0.0063  0.0478
 1306POPC   C3B15671   4.918   5.325   8.239  0.0588  0.0406 -0.0287
 1306POPC   C4B15672   5.338   5.166   8.148  0.0789  0.0080 -0.1400
 1307POPC   NC315673   2.475   5.957  15.661 -0.0326  0.1762  0.4385
 1307POPC   PO415674   2.217   5.679  15.626 -0.1588 -0.0164  0.3694
 1307POPC   GL115675   2.288   5.749  16.019  0.0018 -0.3905 -0.2590
 1307POPC   GL215676   2.040   5.642  16.136 -0.2472 -0.1539 -0.4026
 1307POPC   C1A15677   2.532   5.439  16.338  0.1681  0.0853  0.0245
 1307POPC   D2A15678   2.669   5.279  16.711  0.3819  0.1986  0.0459
 1307POPC   C3A15679   2.543   5.341  17.196 -0.0265 -0.1277 -0.0062
 1307POPC   C4A15680   2.798   5.271  17.609 -0.0601  0.1351 -0.1078
 1307POPC   C1B15681   2.077   5.617  16.594  0.0622 -0.1599 -0.3261
 1307POPC   C2B15682   2.132   5.484  16.989  0.2137 -0.2230  0.0375
 1307POPC   C3B15683   2.135   5.481  17.409 -0.0418 -0.0514  0.1041
 1307POPC   C4B15684   2.033   5.428  17.813  0.3089  0.0881 -0.2437
 1308POPC   NC315685   7.956  12.017  15.256 -0.2611 -0.2898  0.1418
 1308POPC   PO415686   7.919  11.879  15.615 -0.1389  0.0729  0.0585
 1308POPC   GL115687   7.986  11.884  15.985  0.2970 -0.3842  0.0166
 1308POPC   GL215688   8.076  12.087  16.135  0.0713  0.4630  0.0570
 1308POPC   C1A15689   7.854  11.672  16.364 -0.0547 -0.0556  0.3616
 1308POPC   D2A15690   7.685  11.470  16.770 -0.0289  0.2041 -0.3118
 1308POPC   C3A15691   7.891  11.362  17.167  0.0494  0.1206 -0.0758
 1308POPC   C4A15692   7.960  11.273  17.636  0.0540  0.1389  0.1529
 1308POPC   C1B15693   8.034  12.191  16.582 -0.0647 -0.1004  0.1046
 1308POPC   C2B15694   7.902  11.987  16.963  0.3297 -0.1100  0.1151
 1308POPC   C3B15695   7.821  11.802  17.372 -0.1393 -0.2241  0.1041
 1308POPC   C4B15696   7.878  11.919  17.809 -0.1561 -0.1412  0.0220
 1309POPC   NC315697   9.103  13.456  16.580  0.2677 -0.0504 -0.0751
 1309POPC   PO415698   9.347  13.686  16.386  0.0081 -0.1184  0.1340
 1309POPC   GL115699   9.409  13.689  16.791 -0.2382 -0.1315 -0.0468
 1309POPC   GL215700   9.661  13.679  16.846 -0.1456 -0.2409 -0.1318
 1309POPC   C1A15701   9.056  13.523  17.082 -0.5096  0.0819  0.4636
 1309POPC   D2A15702   8.713  13.694  17.339 -0.0783 -0.0358  0.1747
 1309POPC   C3A15703   8.606  13.823  17.771 -0.1297  0.1801 -0.1656
 1309POPC   C4A15704   8.725  14.186  18.079  0.1337  0.1348 -0.1116
 1309POPC   C1B15705   9.825  13.639  17.281 -0.1612 -0.0524 -0.1153
 1309POPC   C2B15706   9.815  13.998  17.635 -0.1268  0.0319  0.1401
 1309POPC   C3B15707   9.884  14.322  17.987  0.2214 -0.0083  0.0200
 1309POPC   C4B15708   9.584  14.487  18.318 -0.1395 -0.0036  0.1801
 1310POPC   NC315709  11.569  10.674  15.174  0.3141 -0.0699  0.1209
 1310POPC   PO415710  11.300  10.597  14.888 -0.1164  0.0134  0.0574
 1310POPC   GL115711  11.093  10.234  15.014  0.2431 -0.1555  0.1157
 1310POPC   GL215712  11.169  10.045  14.793  0.3406 -0.0278  0.1708
 1310POPC   C1A15713  10.921  10.304  15.438  0.1917 -0.1973 -0.3385
 1310POPC   D2A15714  10.863  10.517  15.867  0.0020  0.1959  0.0842
 1310POPC   C3A15715  10.747  10.200  16.213  0.0538 -0.2355 -0.0312
 1310POPC   C4A15716  10.574  10.026  16.608  0.0146  0.1039 -0.4159
 1310POPC   C1B15717  11.109   9.579  14.813  0.2078  0.0787 -0.3492
 1310POPC   C2B15718  11.437   9.187  14.786  0.0351 -0.0728  0.0796
 1310POPC   C3B15719  11.409   8.913  14.385 -0.1969 -0.0464 -0.2271
 1310POPC   C4B15720  11.447   8.815  13.971  0.0901  0.1605  0.2042
 1311POPC   NC315721   1.749   5.718  15.794  0.2954 -0.0031  0.1759
 1311POPC   PO415722   1.890   6.075  15.777  0.3183 -0.2046 -0.1733
 1311POPC   GL115723   1.766   5.998  16.134 -0.3141  0.0224 -0.0868
 1311POPC   GL215724   1.479   6.069  16.083 -0.0296 -0.1663  0.0781
 1311POPC   C1A15725   1.871   6.168  16.562  0.3019  0.3352 -0.0237
 1311POPC   D2A15726   1.934   6.189  16.975  0.0809  0.2818  0.3346
 1311POPC   C3A15727   2.278   5.921  17.205 -0.0123 -0.1551  0.0103
 1311POPC   C4A15728   2.621   5.747  17.498 -0.0131 -0.0106  0.1472
 1311POPC   C1B15729   1.410   6.021  16.522 -0.0168 -0.0097 -0.0488
 1311POPC   C2B15730   1.421   6.065  16.975 -0.2903 -0.1269  0.2582
 1311POPC   C3B15731   1.216   5.938  17.327  0.0593 -0.2088  0.0738
 1311POPC   C4B15732   0.874   5.635  17.577 -0.1335  0.0280 -0.2289
 1312POPC   NC315733  14.548  11.871  16.810  0.2594  0.1079 -0.1012
 1312POPC   PO415734  14.156  11.799  16.660  0.1135  0.0717  0.1002
 1312POPC   GL115735  14.151  12.056  16.986  0.0688 -0.0853 -0.6456
 1312POPC   GL215736  13.851  12.110  17.004  0.1869 -0.1247  0.0324
 1312POPC   C1A15737  14.207  12.291  17.419 -0.2001  0.1486  0.1937
 1312POPC   D2A15738  14.464  12.205  17.816 -0.0043  0.2183  0.0124
 1312POPC   C3A15739  14.504  11.876  18.148  0.1513 -0.4451  0.1413
 1312POPC   C4A15740  14.456  11.785  18.616  0.0873 -0.0180  0.1083
 1312POPC   C1B15741  13.858  12.005  17.452  0.0774  0.2181  0.0140
 1312POPC   C2B15742  13.714  11.699  17.758 -0.2847  0.3027 -0.1528
 1312POPC   C3B15743  13.381  11.475  18.059  0.2021  0.1150 -0.3253
 1312POPC   C4B15744  13.416  11.290  18.552 -0.2637 -0.1175  0.1127
 1313POPC   NC315745   8.859  16.453  15.066  0.0294 -0.3502  0.0747
 1313POPC   PO415746   8.448  16.428  15.061  0.1796 -0.0213  0.1098
 1313POPC   GL115747   8.462  16.798  15.174  0.1536 -0.4047 -0.1406
 1313POPC   GL215748   8.652  16.707  15.440  0.3026  0.3152  0.0238
 1313POPC   C1A15749   8.601  17.200  15.449  0.0170 -0.1267  0.1638
 1313POPC   D2A15750   8.903  17.355  15.791  0.0666  0.1310 -0.1049
 1313POPC   C3A15751   8.999  17.657  16.074  0.0605 -0.0438 -0.0162
 1313POPC   C4A15752   9.038  18.111  16.105  0.1415  0.0287 -0.1724
 1313POPC   C1B15753   9.048  16.916  15.393  0.2662  0.0968  0.1018
 1313POPC   C2B15754   9.335  17.191  15.595  0.2251  0.1553 -0.0004
 1313POPC   C3B15755   9.432  17.436  15.967 -0.0938 -0.0405  0.3413
 1313POPC   C4B15756   9.504  17.801  16.160  0.1494 -0.0585 -0.0851
 1314POPC   NC315757   8.326  11.583  11.633  0.2971  0.1429 -0.1635
 1314POPC   PO415758   8.491  11.222  11.499 -0.0192 -0.4837  0.1475
 1314POPC   GL115759   8.670  10.978  11.113  0.1258  0.0049 -0.0324
 1314POPC   GL215760   9.006  10.825  11.283  0.1529  0.1465  0.2720
 1314POPC   C1A15761   8.621  10.501  11.148 -0.2802 -0.2033 -0.1954
 1314POPC   D2A15762   8.682  10.010  11.131  0.0157  0.3387 -0.1002
 1314POPC   C3A15763   8.929   9.663  10.915 -0.0158  0.1857  0.0596
 1314POPC   C4A15764   9.043   9.212  10.760 -0.1064 -0.1494  0.0109
 1314POPC   C1B15765   9.233  10.456  11.037 -0.2613  0.1303  0.2438
 1314POPC   C2B15766   9.311  10.063  10.795 -0.1991  0.1697 -0.0248
 1314POPC   C3B15767   9.440   9.714  10.527 -0.1266  0.1133 -0.0756
 1314POPC   C4B15768   9.636   9.241  10.459  0.4003 -0.3020 -0.1307
 1315POPC   NC315769  14.403   8.179  16.261 -0.1589 -0.1604 -0.4768
 1315POPC   PO415770  14.385   8.494  16.049 -0.2276  0.4769 -0.1360
 1315POPC   GL115771  14.527   8.652  16.350  0.0237  0.0449 -0.2078
 1315POPC   GL215772  14.357   8.630  16.583 -0.0127 -0.0539 -0.1519
 1315POPC   C1A15773  14.837   8.667  16.680 -0.2863 -0.0041  0.0063
 1315POPC   D2A15774  14.720   8.518  17.056  0.1509  0.1382  0.0405
 1315POPC   C3A15775  14.301   8.523  17.271 -0.1130  0.0820 -0.0831
 1315POPC   C4A15776  14.011   8.663  17.586 -0.1122  0.1764 -0.1131
 1315POPC   C1B15777  14.368   8.213  16.761  0.3612 -0.0909  0.0222
 1315POPC   C2B15778  14.307   8.051  17.183  0.1982 -0.1653 -0.0603
 1315POPC   C3B15779  14.545   7.740  17.454  0.1870  0.1311 -0.2272
 1315POPC   C4B15780  14.669   7.597  17.873  0.2477 -0.0561  0.3425
 1316POPC   NC315781   4.811  10.735   8.550  0.0255  0.1452 -0.3648
 1316POPC   PO415782   4.791  10.534   8.894  0.1464  0.0087  0.1575
 1316POPC   GL115783   4.901  10.287   8.645 -0.0273  0.0621 -0.3770
 1316POPC   GL215784   5.026  10.089   8.815  0.2689  0.2163  0.1563
 1316POPC   C1A15785   4.873  10.225   8.175  0.2906 -0.0770  0.2452
 1316POPC   D2A15786   4.792   9.856   7.905 -0.1347 -0.0869 -0.0393
 1316POPC   C3A15787   5.113   9.791   7.576 -0.0011  0.1218 -0.1041
 1316POPC   C4A15788   5.463   9.906   7.339 -0.0777  0.0295  0.4592
 1316POPC   C1B15789   5.327   9.817   8.650 -0.1411  0.0838 -0.2234
 1316POPC   C2B15790   5.655   9.933   8.374 -0.1747 -0.4187  0.2590
 1316POPC   C3B15791   6.015  10.142   8.071  0.1528  0.2596 -0.1413
 1316POPC   C4B15792   6.396   9.980   7.989  0.0966  0.1235 -0.2252
 1317POPC   NC315793  15.159   4.832  15.470  0.0355 -0.0397  0.1329
 1317POPC   PO415794  15.508   5.007  15.384  0.2471  0.1548  0.2107
 1317POPC   GL115795  15.192   5.276  15.541 -0.2660  0.3206  0.1851
 1317POPC   GL215796  14.909   5.326  15.524  0.0158  0.2645  0.3360
 1317POPC   C1A15797  15.038   5.117  15.964  0.0838 -0.1379 -0.0709
 1317POPC   D2A15798  14.859   4.916  16.317  0.3261  0.0280  0.2131
 1317POPC   C3A15799  14.930   5.073  16.735  0.3559  0.1921 -0.1929
 1317POPC   C4A15800  15.093   4.873  17.110 -0.0649 -0.0215 -0.2859
 1317POPC   C1B15801  14.522   5.150  15.585  0.0779 -0.1957 -0.2033
 1317POPC   C2B15802  14.137   5.012  15.850  0.0358 -0.1716 -0.2039
 1317POPC   C3B15803  13.709   4.824  15.987  0.1767  0.0330 -0.2527
 1317POPC   C4B15804  13.770   4.655  16.427 -0.0317 -0.1194  0.1374
 1318POPC   NC315805  10.523  10.758  14.072 -0.1156  0.0914  0.4279
 1318POPC   PO415806  10.709  10.381  14.032 -0.1903 -0.2351 -0.0756
 1318POPC   GL115807  10.465  10.212  14.187 -0.2642  0.0996 -0.1790
 1318POPC   GL215808  10.210  10.109  14.010  0.1665 -0.1743 -0.0373
 1318POPC   C1A15809  10.360   9.747  14.289  0.1705 -0.0154 -0.1012
 1318POPC   D2A15810  10.242   9.306  14.371  0.2339 -0.3632 -0.1908
 1318POPC   C3A15811  10.410   8.909  14.583  0.0273  0.2207  0.0896
 1318POPC   C4A15812  10.616   8.713  14.808 -0.1920  0.0648  0.2384
 1318POPC   C1B15813   9.930   9.991  14.332  0.2435  0.2172  0.0007
 1318POPC   C2B15814   9.850   9.585  14.471  0.0459  0.0091  0.2251
 1318POPC   C3B15815   9.778   9.130  14.537 -0.1103  0.0189  0.0033
 1318POPC   C4B15816   9.655   8.697  14.467  0.0753 -0.0113 -0.0771
 1319POPC   NC315817  12.283   9.757  11.254 -0.2040 -0.1195  0.1544
 1319POPC   PO415818  12.358  10.084  11.039 -0.0936 -0.0574 -0.2847
 1319POPC   GL115819  12.309   9.796  10.750 -0.1110  0.1466  0.5816
 1319POPC   GL215820  12.539   9.589  10.699 -0.0222  0.0159  0.0208
 1319POPC   C1A15821  12.121   9.470  10.461  0.2009  0.2503  0.2790
 1319POPC   D2A15822  12.018   9.193  10.144 -0.0677  0.0486 -0.0069
 1319POPC   C3A15823  11.599   9.152  10.266 -0.0529 -0.0285  0.0741
 1319POPC   C4A15824  11.227   9.476  10.332  0.1155  0.1651  0.1293
 1319POPC   C1B15825  12.327   9.241  10.836 -0.1424  0.0710 -0.0631
 1319POPC   C2B15826  11.877   9.125  10.711 -0.2540 -0.0131  0.3103
 1319POPC   C3B15827  11.483   8.770  10.679 -0.0819 -0.2270 -0.0995
 1319POPC   C4B15828  11.283   8.324  10.606  0.3820  0.0538 -0.3817
 1320POPC   NC315829   1.315   3.659  15.968  0.2073  0.2340 -0.2163
 1320POPC   PO415830   1.213   4.015  15.718  0.0930 -0.4415  0.1404
 1320POPC   GL115831   1.285   4.118  16.052 -0.3752 -0.2548 -0.0052
 1320POPC   GL215832   1.184   4.363  16.151 -0.1397 -0.0054  0.2344
 1320POPC   C1A15833   1.614   3.925  16.315 -0.1089 -0.1183 -0.1171
 1320POPC   D2A15834   1.910   3.563  16.362 -0.1355 -0.2815 -0.0278
 1320POPC   C3A15835   2.108   3.500  16.778 -0.2839  0.0528 -0.3099
 1320POPC   C4A15836   2.437   3.588  17.124 -0.0701 -0.0460  0.1101
 1320POPC   C1B15837   0.997   4.412  16.554  0.0919  0.0569 -0.0173
 1320POPC   C2B15838   0.900   4.098  16.878 -0.2039 -0.1688  0.0562
 1320POPC   C3B15839   1.043   3.760  16.971 -0.0273  0.0894  0.0980
 1320POPC   C4B15840   1.221   3.309  16.853 -0.4260  0.1407 -0.1757
 1321POPC   NC315841   1.552  15.132  16.582 -0.0814 -0.1775  0.1045
 1321POPC   PO415842   1.486  14.776  16.648 -0.2139  0.2289 -0.1863
 1321POPC   GL115843   1.709  14.972  17.008  0.1641 -0.3600 -0.2294
 1321POPC   GL215844   1.565  14.786  17.200  0.0376  0.0586 -0.1010
 1321POPC   C1A15845   1.548  15.219  17.400  0.0067  0.1764  0.0065
 1321POPC   D2A15846   1.444  15.460  17.768  0.1898  0.1379  0.0233
 1321POPC   C3A15847   1.160  15.757  17.889  0.0677  0.0005 -0.0722
 1321POPC   C4A15848   0.870  16.105  18.117  0.3622  0.2350  0.0721
 1321POPC   C1B15849   1.569  14.586  17.596 -0.2308 -0.0216 -0.0521
 1321POPC   C2B15850   1.688  14.558  18.039 -0.0925 -0.0320  0.0854
 1321POPC   C3B15851   1.796  14.799  18.425 -0.0303  0.0643  0.4821
 1321POPC   C4B15852   1.679  14.809  18.844  0.1399 -0.2683 -0.1465
 1322POPC   NC315853  12.093  11.627  16.354 -0.2358 -0.0800 -0.0259
 1322POPC   PO415854  12.210  12.034  16.419  0.5369  0.1237 -0.0451
 1322POPC   GL115855  12.159  11.748  16.775 -0.1138  0.2461 -0.1515
 1322POPC   GL215856  12.316  11.489  16.793 -0.2594  0.1085 -0.0943
 1322POPC   C1A15857  11.990  11.956  17.149  0.0950  0.0617 -0.0520
 1322POPC   D2A15858  11.773  11.811  17.548 -0.0363  0.1558  0.0024
 1322POPC   C3A15859  11.746  11.317  17.751 -0.3361  0.2783 -0.1704
 1322POPC   C4A15860  11.573  11.085  18.101  0.2098  0.0250  0.5762
 1322POPC   C1B15861  12.353  11.248  17.190  0.4665 -0.1079 -0.1224
 1322POPC   C2B15862  12.143  10.975  17.508 -0.1584 -0.3705 -0.3017
 1322POPC   C3B15863  11.948  10.871  17.901 -0.1590  0.1614  0.0606
 1322POPC   C4B15864  12.166  10.801  18.325 -0.2422  0.0070 -0.0985
 1323POPC   NC315865   3.296  11.453  16.607 -0.1941  0.1795 -0.2133
 1323POPC   PO415866   3.557  11.174  16.676 -0.1761 -0.2422 -0.0549
 1323POPC   GL115867   3.540  11.128  16.965 -0.3594 -0.2137 -0.0719
 1323POPC   GL215868   3.378  10.920  17.064  0.0682  0.2536  0.0934
 1323POPC   C1A15869   3.643  11.299  17.404 -0.0338 -0.1086 -0.0097
 1323POPC   D2A15870   3.841  11.567  17.690  0.0233 -0.0429 -0.3000
 1323POPC   C3A15871   3.614  11.703  18.105  0.1405  0.0491  0.1955
 1323POPC   C4A15872   3.780  11.588  18.463  0.2260  0.0654 -0.0230
 1323POPC   C1B15873   3.604  10.645  17.409  0.0559 -0.0174  0.2054
 1323POPC   C2B15874   3.784  10.214  17.527 -0.2886  0.0185  0.0735
 1323POPC   C3B15875   4.218  10.070  17.613 -0.1918  0.0242 -0.2627
 1323POPC   C4B15876   4.446   9.878  17.927 -0.2409  0.0722  0.0933
 1324POPC   NC315877   7.128  12.748  16.663  0.0197  0.1665  0.3018
 1324POPC   PO415878   6.930  13.079  16.513 -0.4205 -0.3477  0.0278
 1324POPC   GL115879   6.827  13.126  16.897 -0.1088 -0.2368 -0.1533
 1324POPC   GL215880   6.825  13.472  16.886 -0.0808  0.4230  0.0951
 1324POPC   C1A15881   6.950  12.864  17.233 -0.1482 -0.1013 -0.1283
 1324POPC   D2A15882   6.808  12.426  17.337 -0.1642 -0.6955  0.0763
 1324POPC   C3A15883   6.443  12.357  17.649 -0.0600  0.1989 -0.2403
 1324POPC   C4A15884   6.238  12.629  17.960 -0.2288  0.0294 -0.1560
 1324POPC   C1B15885   7.082  13.316  17.294  0.2684 -0.0118 -0.0552
 1324POPC   C2B15886   7.176  13.204  17.788 -0.1157 -0.2029  0.0875
 1324POPC   C3B15887   7.259  12.858  18.064 -0.1707 -0.5152  0.0736
 1324POPC   C4B15888   7.423  12.420  18.084 -0.0219 -0.2317  0.0268
 1325POPC   NC315889  10.085  11.246  11.213  0.2768 -0.0079 -0.0077
 1325POPC   PO415890   9.664  11.276  11.170  0.0424  0.0684 -0.0280
 1325POPC   GL115891   9.511  10.978  10.969  0.6795 -0.1694  0.0725
 1325POPC   GL215892   9.767  10.963  10.819 -0.3428  0.1873 -0.0588
 1325POPC   C1A15893   9.129  10.910  10.782  0.0292 -0.1491  0.0661
 1325POPC   D2A15894   8.714  10.718  10.690 -0.1328  0.1135  0.0048
 1325POPC   C3A15895   8.920  10.269  10.668 -0.4005 -0.0767 -0.0954
 1325POPC   C4A15896   8.999   9.870  10.436 -0.3227 -0.3722  0.2454
 1325POPC   C1B15897   9.694  10.480  10.799  0.2202  0.0901  0.0953
 1325POPC   C2B15898   9.832  10.138  10.649  0.1897  0.0803 -0.4186
 1325POPC   C3B15899   9.949   9.672  10.523  0.6346 -0.0705 -0.1706
 1325POPC   C4B15900  10.160   9.315  10.804  0.0508 -0.2068  0.2426
 1326POPC   NC315901   1.561  17.231  15.802  0.1628 -0.2250 -0.1977
 1326POPC   PO415902   1.887  17.116  16.002  0.1977 -0.1034 -0.3365
 1326POPC   GL115903   2.129  17.033  16.294 -0.3587 -0.2115 -0.2898
 1326POPC   GL215904   2.119  17.339  16.346 -0.3078 -0.5782  0.0472
 1326POPC   C1A15905   2.376  17.091  16.707  0.0441 -0.1731 -0.0082
 1326POPC   D2A15906   2.434  16.851  17.072  0.2117  0.0912  0.2166
 1326POPC   C3A15907   2.578  17.028  17.490 -0.0486 -0.3335 -0.1598
 1326POPC   C4A15908   2.922  17.028  17.882  0.3062 -0.0400  0.2017
 1326POPC   C1B15909   2.163  17.496  16.798  0.1449 -0.2776  0.0969
 1326POPC   C2B15910   2.095  17.792  17.236 -0.0756  0.2219  0.1430
 1326POPC   C3B15911   2.272  17.968  17.660  0.1062 -0.1937  0.2944
 1326POPC   C4B15912   2.020  18.070  17.961 -0.0108 -0.1034  0.0330
 1327POPC   NC315913   3.902   0.134  15.511 -0.0882  0.0860  0.2244
 1327POPC   PO415914   4.148  -0.148  15.691  0.0572 -0.1986  0.0268
 1327POPC   GL115915   4.074   0.153  16.071  0.1425 -0.3360  0.3419
 1327POPC   GL215916   3.986   0.420  15.927 -0.1213  0.1555  0.2307
 1327POPC   C1A15917   4.338   0.377  16.334  0.2380 -0.1275 -0.3592
 1327POPC   D2A15918   4.757   0.463  16.504 -0.2467  0.1327  0.3072
 1327POPC   C3A15919   4.760   0.326  16.983  0.3319 -0.0048  0.1270
 1327POPC   C4A15920   4.703   0.541  17.423 -0.0834 -0.1825  0.0977
 1327POPC   C1B15921   3.913   0.606  16.349  0.0854  0.1748  0.0712
 1327POPC   C2B15922   3.710   0.705  16.750 -0.2531  0.0271 -0.2106
 1327POPC   C3B15923   3.907   0.812  17.092  0.0114  0.0096  0.0617
 1327POPC   C4B15924   4.090   0.760  17.511  0.2524 -0.2399 -0.0266
 1328POPC   NC315925   2.018   4.772  15.945 -0.2067 -0.1937 -0.1260
 1328POPC   PO415926   2.052   5.166  16.020 -0.2251 -0.3535 -0.2328
 1328POPC   GL115927   1.976   4.984  16.357  0.0242 -0.2408  0.0361
 1328POPC   GL215928   2.207   5.101  16.501  0.1338 -0.4066 -0.0668
 1328POPC   C1A15929   1.672   5.114  16.666  0.1225  0.0069 -0.2444
 1328POPC   D2A15930   1.474   4.947  17.055  0.3704 -0.5081  0.2141
 1328POPC   C3A15931   1.469   4.786  17.453  0.1456 -0.0039 -0.1960
 1328POPC   C4A15932   1.549   4.537  17.842 -0.0996 -0.0780  0.2365
 1328POPC   C1B15933   2.235   4.946  16.908  0.0879  0.1804 -0.0528
 1328POPC   C2B15934   1.959   5.014  17.282 -0.3893 -0.2858  0.4685
 1328POPC   C3B15935   1.580   5.281  17.443 -0.0506  0.1068  0.0420
 1328POPC   C4B15936   1.370   5.548  17.672  0.0716 -0.1019 -0.2265
 1329POPC   NC315937  32.644  12.270  16.577  0.0834  0.1268 -0.0778
 1329POPC   PO415938  32.940  11.996  16.512  0.2754  0.0625 -0.2155
 1329POPC   GL115939  33.042  11.983  16.875 -0.3562  0.2754  0.0609
 1329POPC   GL215940  32.801  11.785  17.001  0.0794 -0.2252 -0.1735
 1329POPC   C1A15941  32.833  12.280  17.160  0.1905  0.0784 -0.3914
 1329POPC   D2A15942  32.705  12.425  17.637  0.3252  0.2141 -0.1513
 1329POPC   C3A15943  32.609  12.389  18.107 -0.2350  0.0042 -0.0880
 1329POPC   C4A15944  32.604  12.102  18.517  0.2339  0.0207 -0.2172
 1329POPC   C1B15945  32.883  11.624  17.427 -0.1358  0.1601  0.0219
 1329POPC   C2B15946  32.919  11.418  17.839  0.0542  0.1600  0.2443
 1329POPC   C3B15947  33.056  11.254  18.277 -0.0516 -0.0400 -0.1604
 1329POPC   C4B15948  33.101  10.907  18.518 -0.0660 -0.1339  0.0917
 1330POPC   NC315949   7.342  11.582  10.192 -0.2673  0.1464  0.0334
 1330POPC   PO415950   7.405  11.825   9.873 -0.1261  0.2145 -0.4442
 1330POPC   GL115951   7.498  11.563   9.548  0.1688 -0.2005  0.2582
 1330POPC   GL215952   7.588  11.381   9.677  0.0577 -0.0450  0.1023
 1330POPC   C1A15953   7.511  11.486   9.117  0.2062  0.4307  0.2445
 1330POPC   D2A15954   7.304  11.430   8.714 -0.3747  0.0631 -0.1718
 1330POPC   C3A15955   7.322  10.990   8.638 -0.3232 -0.2347  0.0226
 1330POPC   C4A15956   7.318  10.636   8.922 -0.0061 -0.2677 -0.1733
 1330POPC   C1B15957   7.847  11.054   9.715 -0.2383 -0.2020 -0.0681
 1330POPC   C2B15958   7.996  10.750   9.387 -0.2386  0.2475 -0.1454
 1330POPC   C3B15959   7.919  10.442   9.029  0.0879 -0.1882  0.2592
 1330POPC   C4B15960   7.697  10.560   8.620  0.0659 -0.0618 -0.2971
 1331POPC   NC315961   9.730  10.959  13.808 -0.2306  0.1437 -0.0900
 1331POPC   PO415962   9.414  10.737  13.863 -0.1020 -0.1045 -0.1167
 1331POPC   GL115963   9.648  10.534  14.119  0.0719  0.3110 -0.0447
 1331POPC   GL215964   9.476  10.248  14.052  0.1007  0.0567 -0.5948
 1331POPC   C1A15965   9.557  10.253  14.528  0.2318 -0.3301  0.2310
 1331POPC   D2A15966   9.650   9.929  14.864 -0.0052  0.0144 -0.2744
 1331POPC   C3A15967   9.836   9.466  14.984 -0.2099 -0.1827 -0.2528
 1331POPC   C4A15968   9.704   9.388  15.411 -0.1120  0.0771 -0.1125
 1331POPC   C1B15969   9.462   9.814  14.145 -0.2485 -0.3583  0.0199
 1331POPC   C2B15970   9.331   9.603  14.505  0.1699  0.1884  0.1497
 1331POPC   C3B15971   9.353   9.364  14.938 -0.3323 -0.0886 -0.1263
 1331POPC   C4B15972   9.570   8.989  15.223 -0.1146  0.1648  0.2740
 1332POPC   NC315973  12.535  13.744  15.956 -0.0745 -0.0524  0.0900
 1332POPC   PO415974  12.318  13.956  16.252  0.0653  0.4691 -0.1371
 1332POPC   GL115975  12.171  13.901  16.669  0.1314  0.3114  0.4638
 1332POPC   GL215976  12.327  14.089  16.793  0.1435 -0.0832 -0.0082
 1332POPC   C1A15977  12.125  13.546  17.004  0.0436  0.2451 -0.0513
 1332POPC   D2A15978  12.145  13.557  17.438 -0.1850 -0.0231 -0.0507
 1332POPC   C3A15979  12.545  13.484  17.623  0.1136  0.1490  0.0235
 1332POPC   C4A15980  12.904  13.594  17.917 -0.0641  0.1281 -0.3183
 1332POPC   C1B15981  12.470  14.531  16.918 -0.3301  0.2052  0.3704
 1332POPC   C2B15982  12.204  14.936  16.962 -0.0885 -0.3311  0.2566
 1332POPC   C3B15983  12.289  15.362  17.236  0.2314  0.0538 -0.1703
 1332POPC   C4B15984  12.591  15.637  17.370 -0.0883 -0.3036 -0.0775
 1333POPC   NC315985  15.149   3.362  15.159  0.0540 -0.3288 -0.2713
 1333POPC   PO415986  15.023   3.501  15.462  0.1366 -0.0645 -0.0476
 1333POPC   GL115987  14.781   3.744  15.728 -0.4692 -0.3250 -0.0005
 1333POPC   GL215988  14.756   3.528  15.882 -0.3235  0.0169 -0.0767
 1333POPC   C1A15989  14.598   3.992  16.081  0.1368  0.1325 -0.4100
 1333POPC   D2A15990  14.476   3.923  16.527 -0.0349  0.0480 -0.1555
 1333POPC   C3A15991  14.263   4.332  16.630  0.1992  0.1699 -0.2202
 1333POPC   C4A15992  14.036   4.591  16.908  0.0040  0.0630  0.0619
 1333POPC   C1B15993  14.872   3.445  16.336 -0.0124  0.1027 -0.2075
 1333POPC   C2B15994  14.839   3.453  16.761  0.0537  0.0682  0.2019
 1333POPC   C3B15995  14.677   3.752  17.073 -0.2342  0.0927 -0.1317
 1333POPC   C4B15996  14.290   3.951  17.138  0.1092 -0.0621 -0.1016
 1334POPC   NC315997   1.319  10.184   8.802 -0.1500  0.5244  0.0732
 1334POPC   PO415998   1.695  10.094   8.934 -0.2628 -0.2618  0.1068
 1334POPC   GL115999   1.737   9.917   8.596 -0.4427  0.2294  0.0766
 1334POPC   GL216000   1.969   9.712   8.597 -0.3286 -0.1002 -0.3018
 1334POPC   C1A16001   1.582  10.101   8.184 -0.2711 -0.1972  0.3336
 1334POPC   D2A16002   1.488  10.095   7.760  0.0261  0.0881 -0.1655
 1334POPC   C3A16003   1.706  10.009   7.361  0.2463 -0.0284  0.2337
 1334POPC   C4A16004   2.013   9.883   7.048 -0.1138 -0.2511  0.0035
 1334POPC   C1B16005   1.751   9.575   8.235 -0.4097  0.1365 -0.0681
 1334POPC   C2B16006   1.823   9.392   7.825 -0.2095 -0.4733 -0.2012
 1334POPC   C3B16007   1.496   9.535   7.499 -0.2082 -0.3012  0.4311
 1334POPC   C4B16008   1.517   9.652   7.066 -0.4222 -0.0082  0.4039
 1335POPC   NC316009   3.149   5.430  14.998 -0.0055 -0.3030 -0.1911
 1335POPC   PO416010   3.446   5.675  14.977  0.0828 -0.0147  0.6552
 1335POPC   GL116011   3.597   5.574  15.336  0.0431 -0.2866 -0.0021
 1335POPC   GL216012   3.430   5.379  15.455  0.1782 -0.0794 -0.0129
 1335POPC   C1A16013   3.729   5.766  15.721 -0.1765  0.0841 -0.2111
 1335POPC   D2A16014   4.076   5.972  15.932 -0.0494 -0.2260  0.0100
 1335POPC   C3A16015   4.543   5.907  15.872 -0.0716 -0.1129 -0.1026
 1335POPC   C4A16016   5.013   5.934  15.778  0.1977 -0.1908 -0.3524
 1335POPC   C1B16017   3.705   5.223  15.815 -0.3490  0.1603  0.2269
 1335POPC   C2B16018   3.639   5.188  16.269 -0.0030 -0.0721  0.0055
 1335POPC   C3B16019   3.383   4.957  16.530 -0.0202  0.2681  0.2909
 1335POPC   C4B16020   3.059   4.987  16.877 -0.0450  0.0141 -0.0848
 1336POPC   NC316021   6.723   2.802  12.089  0.3032  0.0834 -0.2129
 1336POPC   PO416022   7.058   2.829  11.888 -0.0085  0.0647  0.3959
 1336POPC   GL116023   7.354   3.184  11.951  0.2825 -0.1643  0.0104
 1336POPC   GL216024   7.314   3.229  11.647 -0.2980  0.0567 -0.2020
 1336POPC   C1A16025   7.758   3.336  11.878 -0.0979  0.1167  0.1189
 1336POPC   D2A16026   8.145   3.583  11.766  0.1172 -0.2697 -0.1125
 1336POPC   C3A16027   8.539   3.452  11.915 -0.1452 -0.0898 -0.0901
 1336POPC   C4A16028   8.927   3.591  11.895  0.0761 -0.1033 -0.1341
 1336POPC   C1B16029   7.619   3.451  11.397 -0.1478 -0.0294 -0.1066
 1336POPC   C2B16030   8.049   3.567  11.312  0.3119 -0.0397 -0.1938
 1336POPC   C3B16031   8.415   3.915  11.455  0.0739  0.0500 -0.3093
 1336POPC   C4B16032   8.747   4.083  11.740 -0.2516  0.0722  0.0687
 1337POPC   NC316033   7.244  14.722  16.064 -0.1516  0.0740  0.0722
 1337POPC   PO416034   6.869  14.853  15.988  0.1827  0.0621  0.1447
 1337POPC   GL116035   6.836  15.134  16.194  0.2316 -0.0493  0.0149
 1337POPC   GL216036   7.072  15.206  16.356  0.1013  0.2005  0.1029
 1337POPC   C1A16037   6.517  15.454  16.360  0.1216  0.6722 -0.3014
 1337POPC   D2A16038   6.376  15.698  16.688 -0.1196 -0.5335 -0.1942
 1337POPC   C3A16039   6.505  16.123  16.926 -0.0316  0.1390 -0.0808
 1337POPC   C4A16040   6.448  16.589  16.851  0.0164 -0.3798 -0.5009
 1337POPC   C1B16041   6.926  15.548  16.668  0.1159  0.3203 -0.1011
 1337POPC   C2B16042   6.899  15.779  17.118  0.0404 -0.1911  0.1519
 1337POPC   C3B16043   6.683  15.637  17.487 -0.0940 -0.0311 -0.0014
 1337POPC   C4B16044   6.410  15.304  17.562  0.1636 -0.1334 -0.0863
 1338POPC   NC316045  14.234   6.349  11.008 -0.0689 -0.2495 -0.0932
 1338POPC   PO416046  14.638   6.253  10.963 -0.1696  0.2180  0.0502
 1338POPC   GL116047  14.388   6.350  10.577 -0.0771 -0.1016 -0.2812
 1338POPC   GL216048  14.195   6.523  10.411  0.1963 -0.0080  0.1835
 1338POPC   C1A16049  14.015   6.060  10.503  0.1285 -0.1524  0.0256
 1338POPC   D2A16050  13.747   5.733  10.302 -0.2179  0.1574 -0.0952
 1338POPC   C3A16051  13.548   5.780   9.851 -0.2163  0.1127  0.0541
 1338POPC   C4A16052  13.700   5.613   9.452  0.3526 -0.2221  0.3045
 1338POPC   C1B16053  13.851   6.420  10.094 -0.1445 -0.0368  0.1295
 1338POPC   C2B16054  13.436   6.284   9.960  0.2553  0.0919 -0.2894
 1338POPC   C3B16055  13.123   6.414   9.601  0.0541 -0.5060 -0.1435
 1338POPC   C4B16056  13.048   6.890   9.483  0.0403  0.1299 -0.2462
 1339POPC   NC316057   3.906   5.868  15.077  0.0382 -0.1408 -0.2413
 1339POPC   PO416058   3.868   5.433  15.039  0.2368 -0.1417  0.0437
 1339POPC   GL116059   4.063   5.533  15.362  0.2166  0.1158 -0.2454
 1339POPC   GL216060   4.365   5.402  15.276  0.0343 -0.3277  0.2811
 1339POPC   C1A16061   4.121   5.453  15.810  0.0322 -0.2222  0.0073
 1339POPC   D2A16062   4.325   5.505  16.248  0.1246  0.0110 -0.2921
 1339POPC   C3A16063   4.745   5.695  16.370 -0.1175 -0.1951 -0.1480
 1339POPC   C4A16064   5.153   5.879  16.278 -0.2107  0.2132  0.1321
 1339POPC   C1B16065   4.629   5.463  15.702 -0.0327  0.1315  0.0417
 1339POPC   C2B16066   5.051   5.464  15.947  0.2571 -0.2120  0.2077
 1339POPC   C3B16067   5.145   5.329  16.397 -0.2793  0.4380  0.3243
 1339POPC   C4B16068   5.409   5.121  16.732 -0.0829  0.1815 -0.0559
 1340POPC   NC316069  10.465  11.502  15.389 -0.0560  0.0261 -0.1104
 1340POPC   PO416070  10.215  11.295  15.607  0.0604 -0.3583 -0.0140
 1340POPC   GL116071  10.341  11.128  16.050  0.2681 -0.0316 -0.3481
 1340POPC   GL216072  10.074  11.248  16.107  0.0138  0.0673  0.3813
 1340POPC   C1A16073  10.210  10.866  16.431  0.0927 -0.2633 -0.0666
 1340POPC   D2A16074  10.343  10.488  16.668  0.4628  0.2057 -0.2645
 1340POPC   C3A16075  10.266  10.284  17.061 -0.0483 -0.1032 -0.1427
 1340POPC   C4A16076  10.367  10.095  17.433 -0.2061 -0.1660  0.1316
 1340POPC   C1B16077   9.786  11.164  16.453 -0.3307  0.0784 -0.1463
 1340POPC   C2B16078   9.764  10.759  16.802 -0.1543  0.1367 -0.1240
 1340POPC   C3B16079   9.771  10.345  17.061  0.1344 -0.3233 -0.0425
 1340POPC   C4B16080   9.361  10.093  17.160 -0.3203 -0.0640  0.0787
 1341POPC   NC316081   1.775   6.509  16.141 -0.1010  0.0013  0.2023
 1341POPC   PO416082   1.772   6.933  16.156 -0.0949 -0.0787 -0.1189
 1341POPC   GL116083   1.514   6.750  16.502 -0.0506 -0.1287 -0.0527
 1341POPC   GL216084   1.589   6.990  16.796 -0.3668  0.0459  0.1561
 1341POPC   C1A16085   1.548   6.535  16.940  0.3932 -0.1977  0.3916
 1341POPC   D2A16086   1.722   6.437  17.371  0.1478 -0.1743 -0.2335
 1341POPC   C3A16087   2.165   6.445  17.414 -0.1138  0.0288  0.2898
 1341POPC   C4A16088   2.583   6.243  17.525  0.3391 -0.0167 -0.1089
 1341POPC   C1B16089   1.822   7.326  17.016 -0.0770 -0.1003 -0.2886
 1341POPC   C2B16090   1.839   7.469  17.494 -0.4596  0.0837 -0.0650
 1341POPC   C3B16091   2.154   7.392  17.816  0.2764 -0.1413 -0.0547
 1341POPC   C4B16092   2.562   7.397  18.076  0.0232 -0.1050 -0.1320
 1342POPC   NC316093   8.120   0.815  13.554 -0.1093  0.0725  0.1317
 1342POPC   PO416094   8.066   1.077  13.251 -0.1404 -0.0190 -0.0073
 1342POPC   GL116095   8.169   1.268  13.600 -0.2185 -0.0338 -0.1071
 1342POPC   GL216096   8.432   1.145  13.713  0.0781 -0.2059  0.3209
 1342POPC   C1A16097   8.448   1.627  13.785 -0.1575  0.1422  0.1538
 1342POPC   D2A16098   8.444   1.814  14.180  0.0053 -0.0341 -0.2125
 1342POPC   C3A16099   8.768   2.002  14.437  0.1136  0.0510 -0.3749
 1342POPC   C4A16100   9.116   2.301  14.559 -0.1151 -0.2476 -0.1286
 1342POPC   C1B16101   8.579   1.271  14.134 -0.1958  0.0131 -0.0068
 1342POPC   C2B16102   8.652   1.496  14.516  0.1810  0.1197  0.1113
 1342POPC   C3B16103   8.863   1.720  14.870  0.1086 -0.0222  0.1559
 1342POPC   C4B16104   8.847   2.097  15.137  0.0403  0.3659 -0.0024
 1343POPC   NC316105   1.330   7.015  15.738  0.1560  0.1479 -0.0457
 1343POPC   PO416106   1.420   6.644  15.766 -0.1613  0.1443 -0.4058
 1343POPC   GL116107   1.275   6.690  16.137 -0.0748  0.2737 -0.0216
 1343POPC   GL216108   1.224   6.970  16.221 -0.0946 -0.2408  0.0844
 1343POPC   C1A16109   1.060   6.643  16.513  0.1372 -0.1271 -0.3345
 1343POPC   D2A16110   0.842   6.797  16.883  0.1098 -0.1568 -0.2474
 1343POPC   C3A16111   0.548   6.628  17.243  0.0610  0.2303 -0.2090
 1343POPC   C4A16112   0.435   6.311  17.545 -0.0347 -0.1608  0.0233
 1343POPC   C1B16113   1.174   7.205  16.592 -0.0217 -0.0171  0.2974
 1343POPC   C2B16114   1.189   7.141  17.061 -0.0332 -0.2896  0.3696
 1343POPC   C3B16115   1.349   7.270  17.487 -0.2100 -0.0744  0.1613
 1343POPC   C4B16116   1.357   7.280  17.957 -0.2533  0.0202  0.0106
 1344POPC   NC316117   8.529  10.379  13.001 -0.2121 -0.0171 -0.1796
 1344POPC   PO416118   8.163  10.459  12.949 -0.1608 -0.0525 -0.1471
 1344POPC   GL116119   8.031  10.067  13.122  0.0545 -0.2020  0.1347
 1344POPC   GL216120   8.196  10.005  12.863 -0.2131 -0.1452  0.3224
 1344POPC   C1A16121   7.806   9.707  12.938 -0.1354  0.1683  0.2341
 1344POPC   D2A16122   7.912   9.267  12.729 -0.1516  0.0575 -0.1020
 1344POPC   C3A16123   8.328   9.094  12.617 -0.4321 -0.1723 -0.0986
 1344POPC   C4A16124   8.588   8.769  12.829  0.2365 -0.1928 -0.1451
 1344POPC   C1B16125   8.245   9.697  12.470  0.1657 -0.1314 -0.3131
 1344POPC   C2B16126   7.907   9.398  12.275 -0.2826 -0.4499 -0.0421
 1344POPC   C3B16127   7.964   8.932  12.294 -0.0505 -0.1133  0.1693
 1344POPC   C4B16128   8.120   8.629  12.607  0.2339 -0.0333 -0.0330
 1345POPC   NC316129  14.001  14.024  20.571  0.2255 -0.0248 -0.2066
 1345POPC   PO416130  14.232  14.355  20.475  0.0186  0.1310 -0.1070
 1345POPC   GL116131  14.266  14.380  20.056  0.1103  0.2477 -0.0797
 1345POPC   GL216132  14.121  14.136  19.989 -0.2540 -0.1321  0.0235
 1345POPC   C1A16133  14.695  14.380  19.878  0.0654 -0.2459 -0.3673
 1345POPC   D2A16134  14.915  14.299  19.454 -0.0035  0.0616 -0.2543
 1345POPC   C3A16135  15.031  14.620  19.151  0.2321 -0.0574 -0.2829
 1345POPC   C4A16136  15.020  15.004  18.917 -0.1657 -0.2165  0.2581
 1345POPC   C1B16137  14.412  14.073  19.628 -0.0959  0.3394 -0.1278
 1345POPC   C2B16138  14.554  13.951  19.207  0.3614 -0.0653 -0.0702
 1345POPC   C3B16139  14.577  14.045  18.714  0.1315 -0.2886  0.0155
 1345POPC   C4B16140  14.647  14.173  18.293 -0.0380 -0.1185 -0.0291
 1346POPC   NC316141  13.328  10.951  20.459 -0.0292 -0.0724  0.0518
 1346POPC   PO416142  13.265  10.675  20.187 -0.2476  0.0823  0.2128
 1346POPC   GL116143  13.163  10.997  20.015 -0.2976 -0.0359  0.1127
 1346POPC   GL216144  12.893  10.969  19.916  0.1848  0.1443  0.2444
 1346POPC   C1A16145  13.198  11.419  19.838 -0.2516 -0.2988  0.0688
 1346POPC   D2A16146  13.231  11.840  19.795  0.0340  0.2976  0.2654
 1346POPC   C3A16147  13.022  12.087  19.535 -0.0774  0.1216  0.1023
 1346POPC   C4A16148  12.897  12.118  19.145 -0.0310  0.0619 -0.2232
 1346POPC   C1B16149  13.067  11.060  19.514  0.1816  0.3769 -0.0334
 1346POPC   C2B16150  12.963  11.146  19.097 -0.0869  0.0667 -0.3720
 1346POPC   C3B16151  12.811  11.404  18.719  0.1580 -0.1960  0.2416
 1346POPC   C4B16152  12.935  11.389  18.255  0.1021 -0.2917  0.2061
 1347POPC   NC316153   4.115  10.163  20.481  0.0366  0.0555 -0.0496
 1347POPC   PO416154   3.856   9.876  20.450 -0.2657  0.0893 -0.0471
 1347POPC   GL116155   3.620   9.919  20.184 -0.0240 -0.3756  0.3606
 1347POPC   GL216156   3.473   9.718  20.141  0.2458 -0.2540  0.1488
 1347POPC   C1A16157   3.762   9.864  19.720  0.0605 -0.1283  0.1210
 1347POPC   D2A16158   3.840   9.495  19.522  0.1794  0.3036 -0.0909
 1347POPC   C3A16159   3.775   9.570  19.026 -0.1753  0.0708  0.1438
 1347POPC   C4A16160   3.811   9.528  18.542 -0.4216  0.0245  0.0499
 1347POPC   C1B16161   3.218   9.931  19.738  0.0192  0.1246 -0.2086
 1347POPC   C2B16162   3.121  10.176  19.363 -0.0925 -0.0668 -0.0797
 1347POPC   C3B16163   3.280  10.477  19.061  0.0384 -0.0974 -0.1544
 1347POPC   C4B16164   3.039  10.803  18.817  0.2090 -0.2373  0.0874
 1348POPC   NC316165   5.648  12.791  20.404  0.1346  0.0477  0.5096
 1348POPC   PO416166   5.617  13.158  20.278  0.1688 -0.1994 -0.0266
 1348POPC   GL116167   5.592  13.171  19.888  0.1257 -0.1016 -0.2225
 1348POPC   GL216168   5.678  13.375  19.770 -0.0409  0.1336 -0.2190
 1348POPC   C1A16169   5.235  13.307  19.636 -0.1745  0.2143  0.2940
 1348POPC   D2A16170   5.171  13.525  19.225 -0.2501 -0.0780  0.2242
 1348POPC   C3A16171   5.142  13.956  19.099  0.1129 -0.1763 -0.1066
 1348POPC   C4A16172   5.001  14.335  18.837 -0.0785 -0.2094  0.0502
 1348POPC   C1B16173   5.800  13.136  19.412 -0.0118 -0.0722  0.1954
 1348POPC   C2B16174   6.047  12.928  19.054  0.0047  0.1886 -0.0608
 1348POPC   C3B16175   5.980  12.880  18.594 -0.2417  0.2109 -0.0210
 1348POPC   C4B16176   5.708  12.683  18.265  0.0715  0.2662  0.0027
 1349POPC   NC316177  13.663  13.334  20.280  0.2216 -0.0347 -0.1340
 1349POPC   PO416178  13.467  13.079  20.560  0.1913 -0.0223  0.3037
 1349POPC   GL116179  13.319  12.848  20.245 -0.3244  0.0382  0.1971
 1349POPC   GL216180  13.539  12.892  20.061 -0.1600  0.2759  0.1017
 1349POPC   C1A16181  13.068  13.014  19.851  0.1525 -0.1104 -0.3456
 1349POPC   D2A16182  13.067  12.957  19.429  0.0972 -0.0752 -0.1286
 1349POPC   C3A16183  13.193  12.582  19.237  0.3383 -0.0931 -0.2864
 1349POPC   C4A16184  13.392  12.226  19.103 -0.0679 -0.3051 -0.0272
 1349POPC   C1B16185  13.493  12.857  19.604 -0.0455  0.2967  0.0093
 1349POPC   C2B16186  13.506  13.019  19.148 -0.0404 -0.0111  0.0427
 1349POPC   C3B16187  13.431  12.662  18.826  0.3285  0.1040  0.0133
 1349POPC   C4B16188  13.762  12.355  18.697  0.2508 -0.0753  0.1129
 1350POPC   NC316189  14.482   5.262  19.317  0.1957 -0.1312  0.1728
 1350POPC   PO416190  14.469   5.618  19.491  0.0657 -0.0872 -0.0260
 1350POPC   GL116191  14.715   5.631  19.195  0.0436 -0.2375 -0.3674
 1350POPC   GL216192  14.526   5.824  19.006 -0.1350 -0.0213  0.1304
 1350POPC   C1A16193  14.954   5.694  18.812  0.0629  0.1485  0.0402
 1350POPC   D2A16194  14.951   5.472  18.455 -0.0718 -0.0986  0.0542
 1350POPC   C3A16195  15.230   5.590  18.071 -0.1577 -0.1860 -0.0456
 1350POPC   C4A16196  15.566   5.770  17.752  0.2109 -0.1469  0.4026
 1350POPC   C1B16197  14.510   6.242  18.978  0.1940 -0.1076  0.0630
 1350POPC   C2B16198  14.462   6.641  18.699 -0.0166 -0.0935 -0.1842
 1350POPC   C3B16199  14.696   6.851  18.352  0.1055 -0.1183 -0.0970
 1350POPC   C4B16200  14.945   6.933  17.918 -0.1922  0.1050 -0.1584
 1351POPC   NC316201   1.970   0.076  20.963  0.3251  0.2942 -0.2373
 1351POPC   PO416202   1.833   0.077  20.539 -0.3108  0.1775 -0.2390
 1351POPC   GL116203   1.771  -0.141  20.194 -0.2415 -0.2991 -0.1802
 1351POPC   GL216204   1.564   0.085  20.118 -0.0822  0.1272  0.0333
 1351POPC   C1A16205   1.949  -0.244  19.805 -0.1687 -0.2644 -0.1878
 1351POPC   D2A16206   2.159  -0.123  19.415  0.0175 -0.0595  0.0203
 1351POPC   C3A16207   2.337  -0.226  18.967  0.1091 -0.0463  0.0066
 1351POPC   C4A16208   2.347  -0.584  18.602  0.0217  0.2242 -0.2138
 1351POPC   C1B16209   1.555   0.043  19.653 -0.2618  0.1198  0.3276
 1351POPC   C2B16210   1.425   0.365  19.294 -0.1607 -0.0936  0.0002
 1351POPC   C3B16211   1.636   0.654  18.976  0.2805 -0.0507 -0.0284
 1351POPC   C4B16212   1.849   0.747  18.578 -0.0715  0.0644  0.1175
 1352POPC   NC316213   0.232  15.070  20.370 -0.1514  0.2770 -0.0297
 1352POPC   PO416214   0.336  14.727  20.501  0.0437  0.1775 -0.2279
 1352POPC   GL116215   0.480  14.660  20.210  0.1028 -0.2329  0.0394
 1352POPC   GL216216   0.227  14.616  20.010  0.2625 -0.0492  0.0709
 1352POPC   C1A16217   0.812  14.940  19.969 -0.0739 -0.2763 -0.2404
 1352POPC   D2A16218   0.955  15.384  19.844 -0.0971 -0.2106  0.1040
 1352POPC   C3A16219   1.291  15.412  19.550  0.2237  0.2019  0.1331
 1352POPC   C4A16220   1.440  15.199  19.174 -0.1214 -0.2610  0.1633
 1352POPC   C1B16221   0.597  14.458  19.808 -0.1991  0.1984 -0.2411
 1352POPC   C2B16222   0.852  14.156  19.587  0.3356 -0.0639 -0.1681
 1352POPC   C3B16223   0.991  13.808  19.322  0.0199 -0.0756  0.0378
 1352POPC   C4B16224   0.737  13.463  19.264  0.0200  0.0391  0.2552
 1353POPC   NC316225   7.073   5.077  17.295 -0.1020  0.0028  0.1428
 1353POPC   PO416226   7.135   5.417  17.047  0.2354 -0.3067 -0.1825
 1353POPC   GL116227   6.947   5.662  16.786  0.0005 -0.0004 -0.1759
 1353POPC   GL216228   6.697   5.516  16.671  0.1569  0.3250 -0.0436
 1353POPC   C1A16229   6.934   6.041  16.533  0.3348  0.0840 -0.1735
 1353POPC   D2A16230   6.808   6.431  16.272 -0.4453 -0.0615  0.1465
 1353POPC   C3A16231   6.362   6.607  16.393  0.0456  0.2850 -0.1398
 1353POPC   C4A16232   5.974   6.456  16.367  0.3198 -0.0273 -0.1804
 1353POPC   C1B16233   6.222   5.614  16.619 -0.4430  0.0792  0.1066
 1353POPC   C2B16234   5.897   5.880  16.461  0.4670 -0.0536 -0.0119
 1353POPC   C3B16235   5.662   6.071  16.104  0.0916  0.3606 -0.1654
 1353POPC   C4B16236   5.343   6.265  15.906  0.0970 -0.1066 -0.0382
 1354POPC   NC316237   0.962   8.906  20.467  0.0951 -0.0583 -0.1286
 1354POPC   PO416238   0.993   9.280  20.588  0.0153 -0.0555 -0.0272
 1354POPC   GL116239   0.767   9.347  20.188 -0.1658 -0.2238 -0.0129
 1354POPC   GL216240   0.965   9.491  20.059 -0.1398  0.1653  0.1150
 1354POPC   C1A16241   0.796   9.002  19.867  0.0460 -0.3907  0.0847
 1354POPC   D2A16242   0.553   8.669  19.731  0.0144 -0.0007 -0.0879
 1354POPC   C3A16243   0.858   8.434  19.491 -0.1015  0.1087  0.0213
 1354POPC   C4A16244   1.259   8.361  19.176  0.0310  0.1313 -0.2966
 1354POPC   C1B16245   0.967   9.484  19.586 -0.0593 -0.0714 -0.3813
 1354POPC   C2B16246   0.942   9.682  19.113 -0.1111  0.2144  0.0690
 1354POPC   C3B16247   1.198   9.949  18.794 -0.0312  0.2145  0.0103
 1354POPC   C4B16248   1.376  10.189  18.474  0.2313 -0.0222  0.1006
 1355POPC   NC316249   9.076  11.089  19.896 -0.0413 -0.0340 -0.0119
 1355POPC   PO416250   8.824  10.859  19.651 -0.2562 -0.0817  0.4697
 1355POPC   GL116251   9.005  11.120  19.396 -0.2412 -0.0158 -0.2786
 1355POPC   GL216252   8.813  11.125  19.232  0.1032  0.5558  0.3168
 1355POPC   C1A16253   9.250  11.239  19.034 -0.1510 -0.2741 -0.1844
 1355POPC   D2A16254   9.707  11.405  18.912  0.1154  0.2605 -0.0444
 1355POPC   C3A16255   9.481  11.700  18.625  0.0025 -0.2247  0.3054
 1355POPC   C4A16256   9.191  11.992  18.412 -0.1000 -0.0685  0.1751
 1355POPC   C1B16257   8.385  11.118  18.974  0.0874  0.1086 -0.1141
 1355POPC   C2B16258   8.174  11.369  18.632 -0.2500 -0.2356  0.0703
 1355POPC   C3B16259   7.765  11.595  18.556  0.0649  0.0623 -0.0851
 1355POPC   C4B16260   7.345  11.633  18.599  0.4762 -0.1085  0.5862
 1356POPC   NC316261   9.012   9.763  19.245 -0.1954 -0.0826  0.0040
 1356POPC   PO416262   9.283   9.753  18.938  0.1120 -0.0153  0.2153
 1356POPC   GL116263   9.209  10.149  18.680 -0.0183 -0.0520 -0.1331
 1356POPC   GL216264   9.201   9.922  18.461 -0.0109  0.2645  0.3049
 1356POPC   C1A16265   9.347  10.314  18.245 -0.1050  0.0996  0.1762
 1356POPC   D2A16266   9.635  10.393  17.947  0.2734  0.1141 -0.1374
 1356POPC   C3A16267  10.045  10.196  17.901  0.0097  0.0386  0.3696
 1356POPC   C4A16268  10.533  10.059  17.865  0.2587  0.0669  0.1960
 1356POPC   C1B16269   8.807  10.069  18.185  0.0467  0.0976  0.0591
 1356POPC   C2B16270   8.537  10.118  17.834  0.2621  0.4547 -0.0072
 1356POPC   C3B16271   8.560  10.458  17.528  0.0382 -0.1065 -0.2564
 1356POPC   C4B16272   8.379  10.564  17.102 -0.2844 -0.2136  0.2250
 1357POPC   NC316273   1.662   5.686  19.754 -0.1010 -0.0734  0.4887
 1357POPC   PO416274   2.058   5.717  19.796 -0.3215 -0.0563 -0.1388
 1357POPC   GL116275   2.178   6.035  19.613  0.1839  0.1821  0.3345
 1357POPC   GL216276   2.039   5.990  19.353 -0.1408 -0.0171  0.1282
 1357POPC   C1A16277   2.565   6.106  19.419  0.0120 -0.1525  0.1649
 1357POPC   D2A16278   2.784   5.934  19.027 -0.0790 -0.1925 -0.0500
 1357POPC   C3A16279   2.986   5.630  18.727 -0.1608  0.0130  0.2030
 1357POPC   C4A16280   2.997   5.199  18.722 -0.1492  0.0858 -0.1197
 1357POPC   C1B16281   2.271   5.931  18.977 -0.2882  0.1275 -0.1227
 1357POPC   C2B16282   2.330   6.056  18.539 -0.1806  0.0299  0.0452
 1357POPC   C3B16283   2.329   6.226  18.017  0.0790 -0.1193 -0.0286
 1357POPC   C4B16284   2.215   5.964  17.706 -0.0132 -0.1330 -0.0250
 1358POPC   NC316285   7.054   2.814  18.466  0.0664 -0.1332 -0.1494
 1358POPC   PO416286   6.981   2.583  18.213 -0.3073  0.3351 -0.3102
 1358POPC   GL116287   7.304   2.520  17.894 -0.3514  0.1989 -0.0684
 1358POPC   GL216288   7.076   2.568  17.729 -0.2268 -0.2059  0.3816
 1358POPC   C1A16289   7.568   2.393  17.559  0.2308 -0.2448  0.0486
 1358POPC   D2A16290   7.776   2.054  17.334 -0.1194 -0.2279  0.0517
 1358POPC   C3A16291   7.898   1.930  16.884  0.1791  0.0684 -0.2318
 1358POPC   C4A16292   7.922   1.580  16.575  0.1046  0.1326  0.2530
 1358POPC   C1B16293   7.121   2.127  17.462 -0.0483  0.2480 -0.1033
 1358POPC   C2B16294   7.231   1.878  17.072 -0.1611 -0.2281 -0.0811
 1358POPC   C3B16295   7.448   1.556  16.800 -0.3191 -0.1933  0.2127
 1358POPC   C4B16296   7.550   1.256  16.451  0.0923 -0.3653  0.0212
 1359POPC   NC316297  13.194   5.564  19.128 -0.3025 -0.1605 -0.1737
 1359POPC   PO416298  13.035   5.236  18.980 -0.0244 -0.1543  0.0280
 1359POPC   GL116299  13.321   5.316  18.711  0.2740 -0.1685 -0.5328
 1359POPC   GL216300  13.174   5.188  18.469 -0.2452 -0.2509  0.0747
 1359POPC   C1A16301  13.577   5.609  18.493  0.0794  0.3120  0.0669
 1359POPC   D2A16302  13.992   5.544  18.462  0.1058 -0.3606  0.4582
 1359POPC   C3A16303  14.137   5.810  18.118 -0.1589  0.3181 -0.0410
 1359POPC   C4A16304  14.417   6.026  17.806 -0.1001 -0.3039 -0.0482
 1359POPC   C1B16305  13.348   5.452  18.114 -0.1583  0.1153 -0.1425
 1359POPC   C2B16306  13.684   5.359  17.791 -0.1707  0.1116 -0.4446
 1359POPC   C3B16307  13.795   5.458  17.319 -0.0961 -0.0820 -0.0465
 1359POPC   C4B16308  13.996   5.287  16.901  0.2546 -0.1079 -0.0531
 1360POPC   NC316309   5.355  16.229  20.633  0.1553  0.3825  0.0610
 1360POPC   PO416310   5.176  16.173  20.298  0.0766 -0.0423 -0.0205
 1360POPC   GL116311   5.168  15.926  19.873  0.2197 -0.1174  0.0280
 1360POPC   GL216312   4.876  15.712  19.823  0.1473 -0.1753  0.2834
 1360POPC   C1A16313   5.177  15.925  19.420  0.0320  0.0984  0.0238
 1360POPC   D2A16314   5.010  15.778  18.996 -0.0690 -0.0574 -0.3639
 1360POPC   C3A16315   4.819  15.588  18.626 -0.0164 -0.1709 -0.4561
 1360POPC   C4A16316   4.981  15.467  18.240  0.2459  0.0114  0.1449
 1360POPC   C1B16317   4.775  15.498  19.450 -0.2662 -0.2458  0.1102
 1360POPC   C2B16318   4.815  15.285  19.062  0.0969  0.0779 -0.5742
 1360POPC   C3B16319   5.021  15.081  18.729  0.1211  0.0528  0.0786
 1360POPC   C4B16320   5.352  14.748  18.719 -0.0958 -0.2177 -0.3453
 1361POPC   NC316321  10.852   5.126  15.595 -0.1129  0.0982  0.1060
 1361POPC   PO416322  10.965   5.439  15.800  0.0474 -0.0218 -0.0481
 1361POPC   GL116323  11.328   5.300  15.672 -0.2159  0.1386  0.3087
 1361POPC   GL216324  11.496   5.180  15.887  0.0574 -0.1672  0.0758
 1361POPC   C1A16325  11.796   5.431  15.615  0.0853 -0.2361  0.0287
 1361POPC   D2A16326  12.185   5.626  15.460 -0.3214  0.5038  0.0695
 1361POPC   C3A16327  12.420   5.698  15.834  0.0642  0.0203 -0.2910
 1361POPC   C4A16328  12.781   5.889  16.078  0.1730 -0.2445  0.1708
 1361POPC   C1B16329  11.824   4.958  15.655 -0.1086 -0.3418 -0.2582
 1361POPC   C2B16330  12.136   5.070  15.305  0.2461  0.0789 -0.0984
 1361POPC   C3B16331  12.344   5.367  15.049 -0.3474  0.2539  0.0502
 1361POPC   C4B16332  12.676   5.571  14.841  0.0237 -0.0795 -0.1786
 1362POPC   NC316333   4.831   9.813  20.408 -0.1440  0.1041 -0.0197
 1362POPC   PO416334   4.604  10.096  20.473 -0.0436 -0.0141  0.0417
 1362POPC   GL116335   4.455  10.106  20.099 -0.0009  0.4479 -0.1217
 1362POPC   GL216336   4.551  10.243  19.884 -0.1351 -0.0449 -0.2605
 1362POPC   C1A16337   4.297   9.899  19.699  0.1038  0.0033  0.0437
 1362POPC   D2A16338   4.290   9.756  19.295 -0.1566  0.1274 -0.0216
 1362POPC   C3A16339   4.304   9.662  18.866  0.2450  0.0982 -0.1103
 1362POPC   C4A16340   4.273   9.622  18.430  0.1274  0.2386 -0.0231
 1362POPC   C1B16341   4.668  10.110  19.474 -0.0118 -0.0901  0.2052
 1362POPC   C2B16342   4.472  10.192  19.070  0.0519 -0.1167  0.0938
 1362POPC   C3B16343   4.314  10.495  18.746 -0.2770  0.0226  0.3805
 1362POPC   C4B16344   4.222  10.933  18.640  0.0054 -0.1773 -0.0611
 1363POPC   NC316345  14.773   2.114  19.542  0.1677 -0.1853 -0.3429
 1363POPC   PO416346  14.905   1.892  19.846 -0.2014  0.0390  0.0178
 1363POPC   GL116347  15.080   1.776  19.410  0.0965  0.2874  0.1029
 1363POPC   GL216348  15.368   1.807  19.516 -0.1867  0.1542 -0.1601
 1363POPC   C1A16349  15.153   1.417  19.143 -0.0941 -0.0310 -0.0338
 1363POPC   D2A16350  15.313   1.266  18.719 -0.0534  0.2027  0.1592
 1363POPC   C3A16351  15.458   1.294  18.278 -0.0409 -0.1379  0.0266
 1363POPC   C4A16352  15.613   1.277  17.850 -0.0620 -0.2748 -0.1756
 1363POPC   C1B16353  15.421   1.857  19.087  0.0500  0.0650  0.0961
 1363POPC   C2B16354  15.258   1.747  18.678  0.0350 -0.1245 -0.3826
 1363POPC   C3B16355  15.070   1.764  18.292 -0.3774  0.2232 -0.0992
 1363POPC   C4B16356  14.711   1.791  18.036 -0.0802  0.0119  0.1370
 1364POPC   NC316357   1.692   9.934  20.368  0.0936 -0.0078 -0.1260
 1364POPC   PO416358   1.558   9.578  20.190  0.4355  0.2758 -0.2002
 1364POPC   GL116359   1.337   9.593  19.787  0.1273 -0.2011 -0.0588
 1364POPC   GL216360   1.493   9.239  19.795  0.2342  0.1353 -0.1798
 1364POPC   C1A16361   1.431   9.753  19.370 -0.2092  0.0160  0.3155
 1364POPC   D2A16362   1.571  10.106  19.118 -0.0002  0.0004 -0.0751
 1364POPC   C3A16363   1.742  10.277  18.742  0.0940 -0.0880  0.1172
 1364POPC   C4A16364   2.010  10.189  18.361  0.0855 -0.1545 -0.0551
 1364POPC   C1B16365   1.328   9.278  19.360 -0.3056 -0.1131  0.0691
 1364POPC   C2B16366   1.353   9.420  18.884  0.1173 -0.0153 -0.0510
 1364POPC   C3B16367   1.255   9.174  18.503 -0.1331  0.0653 -0.0764
 1364POPC   C4B16368   1.206   9.031  18.073 -0.2651 -0.2583 -0.1206
 1365POPC   NC316369  10.503   5.961  12.987 -0.0501  0.0975  0.0928
 1365POPC   PO416370  10.416   5.798  12.645  0.3371 -0.1178 -0.0796
 1365POPC   GL116371  10.822   5.828  12.686  0.3135 -0.3421 -0.1476
 1365POPC   GL216372  10.948   5.978  12.469  0.1878 -0.0773 -0.0255
 1365POPC   C1A16373  11.138   5.536  12.524  0.1632  0.3571  0.0909
 1365POPC   D2A16374  11.523   5.365  12.472 -0.1515 -0.3925  0.0691
 1365POPC   C3A16375  11.825   5.506  12.205  0.1337 -0.2356  0.0325
 1365POPC   C4A16376  12.065   5.672  11.868  0.1562  0.1579 -0.0149
 1365POPC   C1B16377  11.398   5.944  12.466 -0.0020  0.1196  0.1562
 1365POPC   C2B16378  11.814   5.957  12.692  0.0844  0.3380 -0.0667
 1365POPC   C3B16379  11.989   5.816  13.108  0.0601  0.3895  0.3627
 1365POPC   C4B16380  12.332   5.693  13.400  0.3700 -0.0027  0.4020
 1366POPC   NC316381  10.109   4.949  13.039 -0.1327  0.1448  0.2036
 1366POPC   PO416382  10.460   4.939  13.195 -0.0565  0.1008  0.0218
 1366POPC   GL116383  10.586   4.499  13.152  0.1054  0.1780 -0.2081
 1366POPC   GL216384  10.389   4.528  12.908  0.0016  0.0761  0.3703
 1366POPC   C1A16385  10.965   4.291  13.367  0.2589  0.0531 -0.2230
 1366POPC   D2A16386  11.355   4.292  13.590 -0.2134  0.1786  0.0596
 1366POPC   C3A16387  11.478   3.959  13.291  0.0125 -0.3828  0.1313
 1366POPC   C4A16388  11.573   3.796  12.900  0.0676 -0.0800  0.0869
 1366POPC   C1B16389  10.503   4.096  13.060  0.1067 -0.2520 -0.0311
 1366POPC   C2B16390  10.597   3.675  12.934  0.0731  0.1736  0.0597
 1366POPC   C3B16391  10.982   3.452  12.749  0.0868 -0.3598 -0.1704
 1366POPC   C4B16392  11.305   3.455  12.469 -0.3697  0.2452  0.2877
 1367POPC   NC316393  15.014   5.608  19.587 -0.1324 -0.0672 -0.1754
 1367POPC   PO416394  15.362   5.673  19.460  0.0653 -0.3111  0.1037
 1367POPC   GL116395  15.491   5.677  19.160  0.2107 -0.1348  0.0170
 1367POPC   GL216396  15.382   5.876  18.991 -0.0400 -0.1729  0.1005
 1367POPC   C1A16397  15.427   5.454  18.767 -0.4129  0.3457 -0.1923
 1367POPC   D2A16398  15.475   5.213  18.388 -0.2279 -0.3574  0.1489
 1367POPC   C3A16399  15.591   5.195  17.952 -0.3461 -0.1009  0.0988
 1367POPC   C4A16400  15.962   5.353  17.793 -0.0493  0.3618 -0.2629
 1367POPC   C1B16401  15.309   5.935  18.538 -0.0776 -0.0514  0.0918
 1367POPC   C2B16402  15.478   6.153  18.164  0.1681  0.0706 -0.2174
 1367POPC   C3B16403  15.517   6.301  17.754 -0.0106  0.2050  0.1776
 1367POPC   C4B16404  15.649   6.408  17.253 -0.6545  0.0182  0.0219
 1368POPC   NC316405   3.535   3.006  19.553 -0.1817  0.1585 -0.0072
 1368POPC   PO416406   3.231   2.933  19.783 -0.1149 -0.2081 -0.0537
 1368POPC   GL116407   3.139   2.795  19.375 -0.0713  0.3130 -0.3709
 1368POPC   GL216408   2.904   2.990  19.368  0.1895  0.0275 -0.3794
 1368POPC   C1A16409   3.480   2.651  19.093 -0.0697 -0.1986  0.0882
 1368POPC   D2A16410   3.591   2.405  18.726  0.0326  0.0502  0.1706
 1368POPC   C3A16411   3.738   2.595  18.316  0.0332  0.2240  0.0572
 1368POPC   C4A16412   3.879   2.603  17.866 -0.0329 -0.0385 -0.3720
 1368POPC   C1B16413   2.979   2.676  19.007  0.2228 -0.0802 -0.0678
 1368POPC   C2B16414   3.099   2.566  18.635  0.0852  0.0583  0.1355
 1368POPC   C3B16415   3.243   2.304  18.260 -0.0573  0.0729  0.1124
 1368POPC   C4B16416   3.180   1.877  18.028 -0.1686  0.0626  0.0229
 1369POPC   NC316417   8.807   2.640  17.762 -0.3904  0.0099  0.0553
 1369POPC   PO416418   8.622   2.300  17.829 -0.2855  0.4139 -0.0993
 1369POPC   GL116419   8.638   2.222  17.457 -0.0032  0.1283 -0.2327
 1369POPC   GL216420   8.741   1.914  17.498 -0.0025 -0.1097 -0.3146
 1369POPC   C1A16421   8.436   1.991  17.129 -0.1087  0.3617 -0.2873
 1369POPC   D2A16422   8.336   1.590  16.984  0.0943 -0.1038  0.0829
 1369POPC   C3A16423   8.461   1.514  16.573 -0.1480 -0.0339  0.0626
 1369POPC   C4A16424   8.870   1.599  16.320  0.1147  0.3045  0.4547
 1369POPC   C1B16425   8.784   1.648  17.066  0.0113 -0.2859  0.0645
 1369POPC   C2B16426   8.888   1.287  16.790  0.1928  0.0146 -0.1829
 1369POPC   C3B16427   8.785   1.139  16.344  0.1396  0.1690  0.1148
 1369POPC   C4B16428   8.879   0.955  15.961  0.1373  0.0240  0.2602
 1370POPC   NC316429   8.565   3.750  16.149 -0.0842  0.1197  0.0149
 1370POPC   PO416430   8.886   3.496  16.053 -0.1982 -0.2816  0.0469
 1370POPC   GL116431   8.873   3.305  15.694  0.0512  0.0876  0.1172
 1370POPC   GL216432   8.585   3.444  15.577  0.1231 -0.2145 -0.1376
 1370POPC   C1A16433   8.693   2.881  15.556 -0.1695  0.3499 -0.3562
 1370POPC   D2A16434   8.637   2.779  15.080 -0.4052 -0.0659 -0.2358
 1370POPC   C3A16435   8.500   2.362  14.849 -0.3161 -0.0097  0.0463
 1370POPC   C4A16436   8.205   2.208  14.498 -0.0914  0.0979  0.0699
 1370POPC   C1B16437   8.488   3.319  15.139 -0.0582 -0.0035 -0.2177
 1370POPC   C2B16438   8.605   3.130  14.673 -0.1616 -0.1843  0.0400
 1370POPC   C3B16439   8.299   3.020  14.302 -0.4489  0.3249 -0.0886
 1370POPC   C4B16440   8.262   2.807  13.878  0.0519 -0.0129 -0.4553
 1371POPC   NC316441   4.185   5.775  19.431 -0.1431  0.0113  0.3222
 1371POPC   PO416442   4.377   5.512  19.194  0.0630  0.0561 -0.1274
 1371POPC   GL116443   4.197   5.619  18.831  0.4185  0.0640 -0.2384
 1371POPC   GL216444   4.335   5.638  18.602  0.2772 -0.0919  0.0888
 1371POPC   C1A16445   3.844   5.438  18.622  0.1736  0.0187 -0.2049
 1371POPC   D2A16446   3.790   5.068  18.342 -0.1030  0.4568  0.1828
 1371POPC   C3A16447   3.799   4.968  17.866 -0.0148  0.1560  0.1043
 1371POPC   C4A16448   4.037   4.828  17.512 -0.1712  0.1548 -0.0328
 1371POPC   C1B16449   4.135   5.827  18.234 -0.0550 -0.2974  0.0291
 1371POPC   C2B16450   4.146   6.251  18.015 -0.1665 -0.2614 -0.2508
 1371POPC   C3B16451   4.100   6.457  17.622 -0.0190  0.3395 -0.0879
 1371POPC   C4B16452   4.057   6.544  17.178 -0.0587  0.2066  0.3909
 1372POPC   NC316453   2.858   8.749  20.138 -0.1147  0.1168  0.0874
 1372POPC   PO416454   2.634   8.453  20.005 -0.0807 -0.4778 -0.3127
 1372POPC   GL116455   2.569   8.469  19.658 -0.2883 -0.2765 -0.0566
 1372POPC   GL216456   2.610   8.787  19.565  0.0364 -0.3266  0.1602
 1372POPC   C1A16457   2.738   8.157  19.344  0.0761 -0.3808 -0.0298
 1372POPC   D2A16458   2.603   7.885  19.048 -0.0069  0.1109  0.0050
 1372POPC   C3A16459   2.701   7.954  18.596 -0.0826 -0.2098 -0.2776
 1372POPC   C4A16460   2.786   8.315  18.327 -0.1091 -0.0752  0.3717
 1372POPC   C1B16461   2.350   9.020  19.274  0.3411 -0.1195 -0.0257
 1372POPC   C2B16462   2.169   9.377  18.997 -0.2310 -0.2418  0.1994
 1372POPC   C3B16463   1.899   9.324  18.665 -0.2184 -0.2499 -0.2334
 1372POPC   C4B16464   1.742   9.221  18.289  0.2687 -0.1466  0.2718
 1373POPC   NC316465   9.313   5.214  13.040 -0.1389  0.2487 -0.2201
 1373POPC   PO416466   9.291   4.897  13.308 -0.2931 -0.2371 -0.0327
 1373POPC   GL116467   9.006   4.582  13.314  0.2409 -0.0619  0.2495
 1373POPC   GL216468   8.779   4.671  13.412 -0.1136  0.0073  0.2185
 1373POPC   C1A16469   8.700   4.277  13.114  0.1559  0.4591  0.3704
 1373POPC   D2A16470   8.246   4.248  12.980  0.1664 -0.0921 -0.1626
 1373POPC   C3A16471   8.074   4.621  12.817  0.0948  0.0089 -0.4028
 1373POPC   C4A16472   7.696   4.912  12.664 -0.0738 -0.3162  0.1070
 1373POPC   C1B16473   8.354   4.562  13.461  0.0510  0.0783 -0.2110
 1373POPC   C2B16474   8.132   4.158  13.568  0.1426 -0.2299  0.2104
 1373POPC   C3B16475   8.110   3.763  13.339 -0.0197  0.4570  0.0991
 1373POPC   C4B16476   7.992   3.336  13.091  0.2194 -0.1530 -0.0698
 1374POPC   NC316477   8.357  13.699  20.195 -0.0098 -0.1226  0.1003
 1374POPC   PO416478   8.614  14.016  20.310 -0.0668  0.2023 -0.0194
 1374POPC   GL116479   8.512  14.135  19.935  0.0352  0.1289  0.0397
 1374POPC   GL216480   8.570  13.940  19.778  0.3338  0.0662 -0.2207
 1374POPC   C1A16481   8.356  14.416  19.598 -0.1712  0.1770  0.1197
 1374POPC   D2A16482   8.575  14.353  19.187 -0.0029 -0.0636 -0.0215
 1374POPC   C3A16483   8.815  14.779  19.119 -0.1250  0.2054  0.0276
 1374POPC   C4A16484   8.915  15.215  19.072  0.0785  0.1931 -0.1260
 1374POPC   C1B16485   8.253  13.946  19.395  0.1788 -0.3321 -0.1475
 1374POPC   C2B16486   8.093  14.061  18.966  0.1291 -0.0094 -0.0927
 1374POPC   C3B16487   7.675  14.204  18.836  0.1747 -0.1390  0.0336
 1374POPC   C4B16488   7.194  14.173  18.774 -0.0567 -0.0607 -0.0532
 1375POPC   NC316489   7.480   7.973  18.250  0.1190  0.1488  0.4254
 1375POPC   PO416490   7.590   7.653  18.002  0.3305  0.0103 -0.1501
 1375POPC   GL116491   7.381   7.826  17.803  0.2498 -0.1702  0.0330
 1375POPC   GL216492   7.474   8.080  17.756  0.1905 -0.2099 -0.1091
 1375POPC   C1A16493   7.233   8.033  17.370  0.0477 -0.2298 -0.0127
 1375POPC   D2A16494   7.191   8.457  17.227 -0.1610  0.0412 -0.0953
 1375POPC   C3A16495   6.822   8.724  17.141 -0.0435 -0.3152 -0.1574
 1375POPC   C4A16496   6.605   9.130  17.046  0.1164 -0.0622 -0.0055
 1375POPC   C1B16497   7.064   8.368  17.791 -0.1027 -0.1127 -0.1694
 1375POPC   C2B16498   6.882   8.725  17.634  0.0493 -0.2648  0.0890
 1375POPC   C3B16499   6.440   8.766  17.455 -0.3142 -0.4037 -0.0255
 1375POPC   C4B16500   6.089   8.866  17.225  0.0027 -0.2282  0.1382
 1376POPC   NC316501  12.899  15.406  19.994 -0.0548 -0.0782 -0.0878
 1376POPC   PO416502  12.597  15.697  19.906 -0.0579 -0.1100 -0.2043
 1376POPC   GL116503  12.552  15.447  19.595 -0.3262  0.0529 -0.1400
 1376POPC   GL216504  12.417  15.197  19.782 -0.1183 -0.1470 -0.2067
 1376POPC   C1A16505  12.735  15.196  19.219 -0.1315  0.1502 -0.3449
 1376POPC   D2A16506  12.599  14.907  18.852  0.0192  0.1554  0.0396
 1376POPC   C3A16507  12.712  15.128  18.460 -0.2897  0.1372 -0.4840
 1376POPC   C4A16508  12.423  15.322  18.189 -0.0643 -0.1666  0.0579
 1376POPC   C1B16509  12.441  14.807  19.513 -0.1852 -0.2640  0.0425
 1376POPC   C2B16510  12.179  14.742  19.134  0.0151 -0.1840  0.0239
 1376POPC   C3B16511  12.219  14.528  18.754 -0.0815  0.0094 -0.2495
 1376POPC   C4B16512  12.184  14.230  18.493 -0.0363 -0.3087 -0.0014
 1377POPC   NC316513   9.223   9.419  18.604 -0.2002  0.0429 -0.2233
 1377POPC   PO416514   9.208   9.021  18.610  0.0300  0.2593  0.0127
 1377POPC   GL116515   9.329   9.112  18.267 -0.0312 -0.0455 -0.0264
 1377POPC   GL216516   9.561   9.293  18.258 -0.0208  0.0876  0.1810
 1377POPC   C1A16517   9.256   9.130  17.819  0.1877 -0.2287  0.3909
 1377POPC   D2A16518   9.149   8.971  17.441  0.0211 -0.0504 -0.5292
 1377POPC   C3A16519   9.050   9.456  17.327 -0.0304 -0.1168 -0.0009
 1377POPC   C4A16520   8.970   9.803  17.024 -0.2120  0.1471  0.2658
 1377POPC   C1B16521   9.222   9.545  18.079 -0.3453 -0.0179 -0.1109
 1377POPC   C2B16522   8.818   9.578  17.859  0.0436  0.0476 -0.1870
 1377POPC   C3B16523   8.601   9.745  17.468 -0.0137 -0.3559 -0.0846
 1377POPC   C4B16524   8.589  10.129  17.182  0.0058  0.0772 -0.1308
 1378POPC   NC316525  13.505   4.187  19.110  0.0506 -0.1313  0.0432
 1378POPC   PO416526  13.238   4.397  18.951 -0.1007 -0.2446 -0.0676
 1378POPC   GL116527  13.305   4.301  18.626  0.0786 -0.1557  0.0623
 1378POPC   GL216528  13.232   4.514  18.449 -0.1190 -0.1259  0.1683
 1378POPC   C1A16529  13.100   4.040  18.275 -0.2842 -0.0563 -0.2600
 1378POPC   D2A16530  13.160   3.998  17.829  0.0909  0.0290  0.0684
 1378POPC   C3A16531  13.368   3.972  17.454 -0.1756  0.1203 -0.2254
 1378POPC   C4A16532  13.451   4.070  17.020 -0.0918  0.0795 -0.0012
 1378POPC   C1B16533  13.647   4.396  18.233  0.2347 -0.1319  0.2189
 1378POPC   C2B16534  13.857   4.580  17.902 -0.0491  0.0681 -0.3394
 1378POPC   C3B16535  14.113   4.950  17.768 -0.1941 -0.1233 -0.0481
 1378POPC   C4B16536  14.207   5.212  17.421  0.1829 -0.1126 -0.1168
 1379POPC   NC316537   3.038  13.737  20.783  0.1896 -0.1437  0.2240
 1379POPC   PO416538   3.420  13.804  20.632  0.0103  0.2642  0.1171
 1379POPC   GL116539   3.632  13.710  20.363  0.1837  0.0493 -0.1238
 1379POPC   GL216540   3.758  14.006  20.298 -0.2029  0.2655 -0.3003
 1379POPC   C1A16541   3.701  13.321  20.071  0.0185 -0.0346  0.0063
 1379POPC   D2A16542   3.562  13.281  19.630  0.2039  0.0226 -0.3007
 1379POPC   C3A16543   3.868  13.136  19.325  0.2597 -0.0132 -0.2096
 1379POPC   C4A16544   4.075  12.823  19.022  0.2947 -0.0812  0.0607
 1379POPC   C1B16545   3.815  13.761  19.899 -0.0950 -0.1490 -0.0581
 1379POPC   C2B16546   3.767  13.730  19.369  0.1251 -0.1678 -0.0115
 1379POPC   C3B16547   3.566  13.825  18.941 -0.1496 -0.2759  0.2095
 1379POPC   C4B16548   3.196  13.711  18.701 -0.0362  0.2437 -0.0410
 1380POPC   NC316549   3.899  17.108  20.484 -0.2045 -0.3446  0.0070
 1380POPC   PO416550   3.663  17.393  20.423  0.1360  0.2794 -0.2114
 1380POPC   GL116551   3.709  17.275  20.046 -0.1918 -0.1199  0.0686
 1380POPC   GL216552   3.923  17.082  19.991  0.2164  0.3269 -0.0370
 1380POPC   C1A16553   3.705  17.321  19.586  0.2579 -0.2185  0.0535
 1380POPC   D2A16554   3.856  17.250  19.138 -0.0633  0.5007 -0.0536
 1380POPC   C3A16555   3.624  17.110  18.724 -0.3624  0.1424  0.1694
 1380POPC   C4A16556   3.397  16.757  18.517  0.1759  0.0205  0.4339
 1380POPC   C1B16557   3.802  16.785  19.650  0.0348  0.0659 -0.0486
 1380POPC   C2B16558   3.909  16.740  19.166  0.1300  0.0169 -0.2985
 1380POPC   C3B16559   3.831  16.526  18.771  0.2043 -0.2449  0.1178
 1380POPC   C4B16560   3.798  16.481  18.307 -0.1457  0.1225 -0.1671
 1381POPC   NC316561   6.774   1.174  19.219  0.2384  0.1501 -0.1506
 1381POPC   PO416562   6.559   1.287  18.930  0.2505 -0.0734  0.0902
 1381POPC   GL116563   6.581   0.974  18.583 -0.0962  0.0930 -0.2823
 1381POPC   GL216564   6.787   1.140  18.497 -0.1143  0.2055 -0.1844
 1381POPC   C1A16565   6.689   0.510  18.420  0.3069 -0.1526 -0.0622
 1381POPC   D2A16566   6.621   0.121  18.117 -0.1503 -0.0206  0.2120
 1381POPC   C3A16567   6.333  -0.210  18.146  0.0729  0.1664 -0.0456
 1381POPC   C4A16568   6.162  -0.619  18.363 -0.0489  0.5434  0.0546
 1381POPC   C1B16569   6.831   0.883  18.085 -0.0840  0.1217  0.0649
 1381POPC   C2B16570   7.059   0.756  17.721  0.0292 -0.3733  0.0681
 1381POPC   C3B16571   7.201   0.941  17.301  0.0702  0.4316  0.0288
 1381POPC   C4B16572   7.593   1.081  17.131 -0.3743  0.2325 -0.0837
 1382POPC   NC316573   9.285  15.215  19.528  0.0095 -0.0961  0.0527
 1382POPC   PO416574   9.020  15.034  19.804  0.1407 -0.0592 -0.0193
 1382POPC   GL116575   8.959  14.700  19.528  0.0356 -0.0437  0.4140
 1382POPC   GL216576   8.825  14.487  19.669  0.2908  0.0419 -0.4627
 1382POPC   C1A16577   9.154  14.434  19.220 -0.1174 -0.3256  0.1308
 1382POPC   D2A16578   8.982  14.243  18.845  0.0833 -0.1416  0.1065
 1382POPC   C3A16579   8.628  14.100  18.597  0.0339 -0.0309  0.2443
 1382POPC   C4A16580   8.170  14.098  18.425 -0.2215 -0.0244 -0.0258
 1382POPC   C1B16581   8.879  14.081  19.409 -0.0670  0.0842 -0.3591
 1382POPC   C2B16582   8.606  13.870  19.115 -0.2060 -0.0875  0.0889
 1382POPC   C3B16583   8.429  13.621  18.732 -0.0240 -0.2905  0.2813
 1382POPC   C4B16584   8.470  13.713  18.281  0.0773  0.2175  0.0641
 1383POPC   NC316585  10.195   6.953  17.219 -0.0483 -0.1871 -0.0818
 1383POPC   PO416586  10.371   7.286  17.200 -0.1484 -0.0087 -0.1651
 1383POPC   GL116587  10.421   7.261  16.832  0.1174  0.3825  0.2994
 1383POPC   GL216588  10.673   7.448  16.834  0.1126 -0.1990  0.1911
 1383POPC   C1A16589  10.275   7.567  16.497  0.2949 -0.0557  0.4858
 1383POPC   D2A16590  10.081   7.782  16.111  0.0603 -0.0713  0.1106
 1383POPC   C3A16591  10.257   8.029  15.800  0.1249  0.0835  0.3247
 1383POPC   C4A16592  10.537   8.225  15.502  0.1897  0.3549 -0.2536
 1383POPC   C1B16593  10.655   7.925  16.738  0.0218  0.1924  0.1137
 1383POPC   C2B16594  10.542   8.235  16.395 -0.1836  0.0866  0.1230
 1383POPC   C3B16595  10.590   8.455  16.023 -0.1021 -0.2471  0.3106
 1383POPC   C4B16596  10.676   8.663  15.570 -0.2904  0.0177  0.0696
 1384POPC   NC316597  12.430  32.816  20.227 -0.0387 -0.1411 -0.0600
 1384POPC   PO416598  12.184  32.954  19.989 -0.0403  0.2256  0.0004
 1384POPC   GL116599  12.356  32.935  19.641 -0.1302  0.3328  0.0313
 1384POPC   GL216600  12.140  33.146  19.525 -0.0973  0.2818  0.1173
 1384POPC   C1A16601  12.248  32.810  19.175 -0.0642 -0.0114  0.2783
 1384POPC   D2A16602  11.964  32.556  18.988 -0.1912 -0.0050 -0.3155
 1384POPC   C3A16603  12.126  32.505  18.566 -0.0919  0.0205  0.0995
 1384POPC   C4A16604  12.120  32.521  18.070 -0.0230  0.1636 -0.3275
 1384POPC   C1B16605  12.191  33.341  19.106 -0.0689 -0.0185  0.0174
 1384POPC   C2B16606  12.441  33.399  18.732  0.3362 -0.0035  0.1167
 1384POPC   C3B16607  12.576  33.359  18.322  0.0532  0.0829 -0.2768
 1384POPC   C4B16608  12.406  33.217  17.947  0.0008 -0.1172  0.0111
 1385POPC   NC316609  11.969   2.720  18.364 -0.1658  0.2593  0.0375
 1385POPC   PO416610  11.646   2.472  18.277  0.2067  0.0066  0.4616
 1385POPC   GL116611  11.962   2.304  18.050  0.1602  0.0086 -0.0031
 1385POPC   GL216612  12.214   2.263  18.247 -0.0447  0.0496  0.0472
 1385POPC   C1A16613  12.242   2.381  17.645  0.1426  0.2125 -0.1774
 1385POPC   D2A16614  12.465   2.461  17.234  0.0519  0.2011 -0.1775
 1385POPC   C3A16615  12.326   2.638  16.853  0.0306 -0.0828  0.0111
 1385POPC   C4A16616  12.175   3.084  16.814  0.1285 -0.1772  0.0699
 1385POPC   C1B16617  12.323   1.955  17.881 -0.2824 -0.0166  0.0937
 1385POPC   C2B16618  12.559   1.968  17.516  0.0734  0.0106  0.0256
 1385POPC   C3B16619  12.683   1.992  17.066 -0.0499  0.1484 -0.1913
 1385POPC   C4B16620  12.804   2.177  16.652 -0.3311 -0.0918  0.1365
 1386POPC   NC316621  14.552   4.584  19.681 -0.1750 -0.0270  0.2707
 1386POPC   PO416622  14.445   4.728  19.358 -0.1540  0.2846 -0.2303
 1386POPC   GL116623  14.442   4.561  19.037 -0.0607 -0.1046 -0.1507
 1386POPC   GL216624  14.640   4.719  18.893 -0.0608 -0.0491  0.3834
 1386POPC   C1A16625  14.602   4.158  18.998 -0.0505  0.2943 -0.0660
 1386POPC   D2A16626  14.822   3.810  18.831 -0.0618  0.0856 -0.2891
 1386POPC   C3A16627  15.168   3.991  18.510  0.0914  0.0259  0.1475
 1386POPC   C4A16628  15.422   3.983  18.123 -0.0644 -0.0128  0.2212
 1386POPC   C1B16629  14.610   4.454  18.555 -0.1909 -0.1565 -0.0196
 1386POPC   C2B16630  14.809   4.146  18.245  0.0350 -0.0970 -0.2042
 1386POPC   C3B16631  14.833   4.113  17.820  0.0336 -0.1224 -0.1590
 1386POPC   C4B16632  14.633   4.148  17.411 -0.1498 -0.0684 -0.3012
 1387POPC   NC316633   9.859   2.315  17.696 -0.1783  0.2552  0.1286
 1387POPC   PO416634   9.609   2.270  18.024  0.0456  0.1095 -0.3094
 1387POPC   GL116635   9.477   1.935  17.864 -0.5932 -0.1254 -0.1453
 1387POPC   GL216636   9.634   1.721  17.942  0.1148 -0.1935  0.1888
 1387POPC   C1A16637   9.234   1.702  17.496 -0.1870 -0.1314  0.1252
 1387POPC   D2A16638   9.096   1.280  17.225  0.2787  0.1859 -0.3752
 1387POPC   C3A16639   9.141   0.899  16.988  0.0849  0.1298  0.1918
 1387POPC   C4A16640   9.284   0.452  16.876  0.1577 -0.0673  0.0136
 1387POPC   C1B16641   9.754   1.348  17.759  0.0568 -0.0383 -0.1465
 1387POPC   C2B16642   9.667   1.181  17.308 -0.0577  0.2572 -0.3648
 1387POPC   C3B16643   9.651   0.755  17.108 -0.1919  0.0224 -0.1031
 1387POPC   C4B16644   9.816   0.635  16.663 -0.1649 -0.1211 -0.0106
 1388POPC   NC316645   2.094   6.640  20.185  0.0835 -0.2231  0.1081
 1388POPC   PO416646   1.744   6.832  20.084  0.2650 -0.1297 -0.1825
 1388POPC   GL116647   1.714   6.826  19.722  0.0928  0.1105  0.1102
 1388POPC   GL216648   1.531   6.764  19.436 -0.4265  0.3190  0.0250
 1388POPC   C1A16649   2.062   6.987  19.477  0.2260  0.1217  0.0946
 1388POPC   D2A16650   2.281   7.133  19.109 -0.0907 -0.0229 -0.0535
 1388POPC   C3A16651   2.416   6.880  18.713 -0.1502 -0.0590 -0.3103
 1388POPC   C4A16652   2.189   6.617  18.401 -0.1540  0.1699 -0.0025
 1388POPC   C1B16653   1.436   6.794  18.952 -0.0390  0.2702 -0.3325
 1388POPC   C2B16654   1.312   6.410  18.602  0.1581  0.1086 -0.0141
 1388POPC   C3B16655   1.174   6.343  18.132  0.1965  0.3328  0.1318
 1388POPC   C4B16656   1.359   6.369  17.664 -0.1960 -0.2654 -0.0290
 1389POPC   NC316657   0.788  11.141  20.530 -0.0555 -0.2440  0.2133
 1389POPC   PO416658   0.873  11.527  20.559  0.3899  0.2556 -0.0743
 1389POPC   GL116659   0.738  11.788  20.268 -0.3640 -0.0811 -0.0288
 1389POPC   GL216660   0.616  11.612  20.062  0.0114 -0.1824  0.0248
 1389POPC   C1A16661   1.000  11.874  19.858  0.0451 -0.2312 -0.0120
 1389POPC   D2A16662   1.146  12.160  19.537 -0.1190  0.0885 -0.3100
 1389POPC   C3A16663   1.264  12.290  19.134  0.3228  0.2500 -0.0788
 1389POPC   C4A16664   1.199  12.372  18.688 -0.1975 -0.0670 -0.0892
 1389POPC   C1B16665   0.545  11.898  19.647 -0.0184  0.0520  0.0179
 1389POPC   C2B16666   0.437  11.990  19.195  0.1200  0.1933  0.1765
 1389POPC   C3B16667   0.214  12.269  18.871  0.1176  0.1277  0.0557
 1389POPC   C4B16668  -0.075  12.580  18.797 -0.1230  0.0685 -0.0421
 1390POPC   NC316669   5.152   1.202  20.258  0.1423  0.0440  0.2050
 1390POPC   PO416670   4.995   1.065  19.908  0.0826  0.0112  0.1348
 1390POPC   GL116671   4.833   0.909  19.554  0.0052 -0.1195  0.0855
 1390POPC   GL216672   5.021   0.805  19.406 -0.1579 -0.2389  0.1663
 1390POPC   C1A16673   4.703   1.200  19.244 -0.0926 -0.1086 -0.0966
 1390POPC   D2A16674   4.764   1.467  18.893  0.0598  0.0790  0.1054
 1390POPC   C3A16675   4.627   1.324  18.455 -0.2982  0.2805  0.0427
 1390POPC   C4A16676   4.741   1.033  18.117  0.1359 -0.2056  0.3095
 1390POPC   C1B16677   4.901   0.645  19.008  0.0129 -0.0794 -0.2953
 1390POPC   C2B16678   4.749   0.343  18.656  0.1507 -0.0237 -0.1833
 1390POPC   C3B16679   4.755   0.134  18.238 -0.1300  0.4324 -0.0521
 1390POPC   C4B16680   4.875   0.420  17.943 -0.1775 -0.2214 -0.0219
 1391POPC   NC316681  11.077  15.660  19.924  0.1887  0.0390 -0.0981
 1391POPC   PO416682  10.773  15.905  19.844 -0.0202 -0.1231 -0.3426
 1391POPC   GL116683  10.754  15.858  19.481 -0.2036 -0.3901 -0.2121
 1391POPC   GL216684  10.962  15.625  19.445  0.0869 -0.1014 -0.2334
 1391POPC   C1A16685  10.642  15.747  19.040  0.1628  0.0790  0.1123
 1391POPC   D2A16686  10.464  15.761  18.620 -0.1302  0.2197 -0.0340
 1391POPC   C3A16687  10.622  15.544  18.273 -0.1122 -0.1566  0.4769
 1391POPC   C4A16688  10.387  15.307  17.955 -0.0413  0.1336  0.1446
 1391POPC   C1B16689  11.006  15.282  19.060 -0.0522  0.1196  0.1013
 1391POPC   C2B16690  10.788  14.881  18.924  0.0191  0.1121 -0.3706
 1391POPC   C3B16691  10.515  14.569  18.727  0.1444 -0.0276  0.1195
 1391POPC   C4B16692  10.124  14.392  18.485  0.0236  0.0240 -0.3374
 1392POPC   NC316693   8.744   6.504  13.448  0.2435 -0.1395 -0.1654
 1392POPC   PO416694   8.923   6.163  13.519 -0.0813  0.0894 -0.3320
 1392POPC   GL116695   8.447   6.108  13.267 -0.0202 -0.0230  0.2146
 1392POPC   GL216696   8.258   6.213  13.399  0.0469  0.1899  0.0251
 1392POPC   C1A16697   8.184   5.675  13.263 -0.1092 -0.1877 -0.2595
 1392POPC   D2A16698   8.301   5.250  13.326  0.2265  0.2204  0.0723
 1392POPC   C3A16699   7.938   4.933  13.376 -0.1966  0.3426  0.4350
 1392POPC   C4A16700   7.832   4.541  13.645 -0.0806  0.0799  0.1555
 1392POPC   C1B16701   7.924   6.538  13.479 -0.1276  0.2089 -0.2820
 1392POPC   C2B16702   7.615   6.880  13.440  0.0185 -0.1841  0.1546
 1392POPC   C3B16703   7.174   6.745  13.516  0.1418 -0.0473  0.0452
 1392POPC   C4B16704   7.008   6.360  13.741 -0.1193 -0.0011  0.0022
 1393POPC   NC316705  10.534   1.876  18.139  0.0273 -0.0821  0.3047
 1393POPC   PO416706  10.586   2.264  18.078 -0.0649  0.0335  0.0682
 1393POPC   GL116707  10.824   2.043  17.827 -0.1307  0.1581  0.0539
 1393POPC   GL216708  11.090   2.036  17.908  0.1233 -0.2001  0.1026
 1393POPC   C1A16709  11.023   1.812  17.477  0.3854  0.2160 -0.2581
 1393POPC   D2A16710  11.337   1.647  17.153 -0.3393 -0.1796 -0.1053
 1393POPC   C3A16711  11.784   1.723  17.188  0.0353 -0.2226 -0.0736
 1393POPC   C4A16712  12.242   1.636  17.250  0.0205 -0.0357 -0.0702
 1393POPC   C1B16713  11.459   1.744  17.745  0.0920  0.1979  0.0285
 1393POPC   C2B16714  11.602   1.370  17.476  0.1859 -0.0584 -0.2336
 1393POPC   C3B16715  11.413   1.174  17.114 -0.1576 -0.3327 -0.0526
 1393POPC   C4B16716  11.219   1.147  16.711 -0.0045 -0.0128  0.2987
 1394POPC   NC316717  12.842   2.458  18.749 -0.1395  0.0752 -0.0723
 1394POPC   PO416718  12.991   2.703  19.016  0.0160  0.1031  0.1863
 1394POPC   GL116719  13.348   2.566  18.853 -0.1414 -0.1386  0.2379
 1394POPC   GL216720  13.372   2.371  19.085 -0.0284  0.1310  0.3083
 1394POPC   C1A16721  13.345   2.252  18.505 -0.0097 -0.2342 -0.1865
 1394POPC   D2A16722  13.369   1.817  18.292  0.2615  0.0582 -0.0629
 1394POPC   C3A16723  13.461   1.666  17.854 -0.1223  0.0625 -0.0378
 1394POPC   C4A16724  13.651   1.690  17.395 -0.0210  0.0726 -0.0817
 1394POPC   C1B16725  13.751   2.420  18.815 -0.1070 -0.1201  0.0676
 1394POPC   C2B16726  13.886   2.404  18.379 -0.0104 -0.0291  0.0773
 1394POPC   C3B16727  13.726   2.202  18.033 -0.4280  0.1660 -0.3775
 1394POPC   C4B16728  13.880   2.108  17.589  0.1906  0.3772 -0.1948
 1395POPC   NC316729  15.514  13.910  20.387  0.2026  0.2250  0.2374
 1395POPC   PO416730  15.852  13.705  20.513 -0.0572  0.1429  0.0180
 1395POPC   GL116731  15.829  13.353  20.361  0.0240 -0.0628  0.1105
 1395POPC   GL216732  15.660  13.455  20.101 -0.0538 -0.2527  0.0376
 1395POPC   C1A16733  16.160  13.077  20.242  0.0565 -0.1281  0.3021
 1395POPC   D2A16734  16.233  13.014  19.843 -0.0768 -0.0862  0.2678
 1395POPC   C3A16735  15.895  12.903  19.508 -0.0688  0.0394 -0.2934
 1395POPC   C4A16736  15.538  12.827  19.215  0.0467 -0.1155 -0.1949
 1395POPC   C1B16737  15.449  13.690  19.769  0.1094  0.2346  0.0470
 1395POPC   C2B16738  15.147  13.871  19.469 -0.1581 -0.1914 -0.0300
 1395POPC   C3B16739  15.077  13.976  19.022  0.0668 -0.0225  0.1543
 1395POPC   C4B16740  15.078  13.837  18.565 -0.0567 -0.1229 -0.1662
 1396POPC   NC316741   5.714  13.639  20.223 -0.2074 -0.0728 -0.0121
 1396POPC   PO416742   5.973  13.832  20.367  0.2995  0.0575  0.1121
 1396POPC   GL116743   6.153  13.746  20.115 -0.0685 -0.1362  0.3789
 1396POPC   GL216744   5.995  13.750  19.856 -0.1130  0.0054 -0.4651
 1396POPC   C1A16745   6.494  13.561  19.867 -0.0206  0.0652 -0.0448
 1396POPC   D2A16746   6.865  13.362  19.890 -0.0517  0.0449 -0.2884
 1396POPC   C3A16747   6.886  13.055  19.530 -0.1134  0.3591  0.2801
 1396POPC   C4A16748   6.976  12.953  19.118  0.1567 -0.0538  0.0708
 1396POPC   C1B16749   5.884  14.105  19.571  0.1706  0.0623 -0.0183
 1396POPC   C2B16750   5.493  14.317  19.308  0.3630  0.0786 -0.0808
 1396POPC   C3B16751   5.197  14.632  19.191  0.1894 -0.3037 -0.0688
 1396POPC   C4B16752   5.233  15.022  19.416  0.1638  0.0044  0.0528
 1397POPC   NC316753  10.111   3.963  15.502  0.3618 -0.1722 -0.0169
 1397POPC   PO416754   9.868   3.715  15.662  0.1811 -0.0032 -0.2195
 1397POPC   GL116755   9.914   3.386  15.346 -0.5339  0.3137  0.1062
 1397POPC   GL216756  10.163   3.501  15.278  0.0766  0.0958 -0.1717
 1397POPC   C1A16757   9.988   2.949  15.143 -0.1132  0.2839  0.1562
 1397POPC   D2A16758  10.013   2.540  15.004  0.3352 -0.1679  0.1647
 1397POPC   C3A16759  10.121   2.136  15.211 -0.2472 -0.0040  0.0640
 1397POPC   C4A16760  10.037   1.751  15.500  0.1236  0.2776  0.1976
 1397POPC   C1B16761  10.216   3.297  14.834  0.0217 -0.3015 -0.2536
 1397POPC   C2B16762  10.030   2.969  14.606  0.0706 -0.1914  0.1302
 1397POPC   C3B16763   9.918   2.577  14.486 -0.0429 -0.0224 -0.0704
 1397POPC   C4B16764   9.568   2.263  14.357  0.0984  0.1162 -0.2706
 1398POPC   NC316765   9.726   4.303  14.706  0.0299 -0.0124  0.1789
 1398POPC   PO416766   9.968   4.168  14.454  0.0184 -0.0248 -0.2781
 1398POPC   GL116767   9.825   3.776  14.330 -0.0951 -0.0591 -0.1968
 1398POPC   GL216768   9.598   3.721  14.125 -0.1233 -0.1198 -0.0116
 1398POPC   C1A16769   9.717   3.336  14.406 -0.1091  0.1446 -0.0169
 1398POPC   D2A16770   9.611   2.909  14.248 -0.0359  0.0504  0.0554
 1398POPC   C3A16771   9.392   2.801  13.795 -0.0305 -0.0241 -0.1392
 1398POPC   C4A16772   9.177   2.812  13.403  0.2705 -0.0649  0.0142
 1398POPC   C1B16773   9.327   3.415  13.883  0.0922 -0.1026  0.0175
 1398POPC   C2B16774   8.986   3.199  13.698  0.2366 -0.1084 -0.1316
 1398POPC   C3B16775   8.513   3.211  13.639  0.2349 -0.0892  0.2118
 1398POPC   C4B16776   8.139   3.516  13.762 -0.0224  0.2854 -0.1817
 1399POPC   NC316777  16.350   6.696  20.130 -0.1460  0.1103  0.0322
 1399POPC   PO416778  16.659   6.859  19.926  0.1581  0.2535  0.1501
 1399POPC   GL116779  16.859   6.913  19.479  0.0059 -0.0825 -0.3758
 1399POPC   GL216780  17.102   6.976  19.550 -0.0797  0.1230 -0.3342
 1399POPC   C1A16781  16.705   7.174  19.104  0.3493  0.0786 -0.1738
 1399POPC   D2A16782  16.998   7.087  18.728  0.0548 -0.2852 -0.1760
 1399POPC   C3A16783  17.384   6.854  18.625  0.0630 -0.3105 -0.2979
 1399POPC   C4A16784  17.462   6.446  18.783 -0.0669 -0.0605  0.0930
 1399POPC   C1B16785  17.537   7.184  19.450 -0.1305 -0.1538 -0.0561
 1399POPC   C2B16786  17.962   7.037  19.315 -0.2201 -0.2860  0.3466
 1399POPC   C3B16787  18.302   6.903  19.002 -0.1619  0.0443 -0.0925
 1399POPC   C4B16788  18.612   6.717  18.740 -0.1038 -0.2625  0.2579
 1400POPC   NC316789  11.606   4.354  16.482  0.0797 -0.0302 -0.1548
 1400POPC   PO416790  11.618   4.444  16.873 -0.1765 -0.1674 -0.1788
 1400POPC   GL116791  11.833   4.703  16.872  0.2217 -0.3452  0.0196
 1400POPC   GL216792  11.926   4.841  16.659  0.2809 -0.2573 -0.1658
 1400POPC   C1A16793  12.272   4.781  16.975 -0.0017 -0.0608 -0.1261
 1400POPC   D2A16794  12.700   4.945  16.929  0.0433 -0.0876  0.0567
 1400POPC   C3A16795  13.047   4.722  16.830 -0.1244 -0.1763 -0.0255
 1400POPC   C4A16796  13.475   4.858  16.759  0.2171  0.1819  0.0045
 1400POPC   C1B16797  12.274   4.604  16.435 -0.0855  0.1246 -0.1379
 1400POPC   C2B16798  12.434   4.441  16.025 -0.1138 -0.1212  0.0377
 1400POPC   C3B16799  12.665   4.055  15.889 -0.1964 -0.1341 -0.0977
 1400POPC   C4B16800  12.829   3.635  15.993 -0.0969  0.0793  0.1959
 1401POPC   NC316801  32.601   3.210  20.146 -0.0411  0.0819 -0.0137
 1401POPC   PO416802  32.641   3.430  19.813  0.1357  0.0782  0.1817
 1401POPC   GL116803  32.855   3.136  19.582  0.0444  0.5222 -0.3740
 1401POPC   GL216804  32.701   3.140  19.395 -0.0636 -0.1509  0.0224
 1401POPC   C1A16805  33.267   3.224  19.400 -0.0123  0.0328  0.2368
 1401POPC   D2A16806  33.483   2.996  19.046 -0.2465  0.0876 -0.2797
 1401POPC   C3A16807  33.333   3.193  18.653  0.0033 -0.1325 -0.2128
 1401POPC   C4A16808  33.339   3.024  18.172 -0.0682 -0.1668  0.0096
 1401POPC   C1B16809  32.762   3.437  19.051  0.0231  0.3213  0.4200
 1401POPC   C2B16810  32.883   3.334  18.602  0.4024  0.0221  0.1089
 1401POPC   C3B16811  32.979   3.376  18.110 -0.1744 -0.1019  0.0123
 1401POPC   C4B16812  32.709   3.264  17.741 -0.0292  0.0155 -0.0270
 1402POPC   NC316813   8.390  15.497  20.307  0.0336 -0.1046 -0.0409
 1402POPC   PO416814   8.110  15.699  20.069  0.1741 -0.1556 -0.3875
 1402POPC   GL116815   7.987  15.661  19.667  0.0240  0.1952  0.0063
 1402POPC   GL216816   7.870  15.403  19.703 -0.1800 -0.1442 -0.0321
 1402POPC   C1A16817   7.747  15.793  19.281  0.0525 -0.1697 -0.1217
 1402POPC   D2A16818   7.486  15.730  18.871  0.1313  0.1259 -0.1684
 1402POPC   C3A16819   7.383  15.376  18.705  0.2623  0.0884  0.1037
 1402POPC   C4A16820   7.263  15.382  18.227 -0.3538 -0.0464 -0.0997
 1402POPC   C1B16821   8.008  15.394  19.271 -0.0479  0.0358  0.2760
 1402POPC   C2B16822   8.405  15.319  19.035  0.1319  0.1050 -0.0722
 1402POPC   C3B16823   8.604  15.049  18.702  0.2164 -0.1580 -0.1614
 1402POPC   C4B16824   8.755  14.662  18.575 -0.0854  0.0375 -0.1745
 1403POPC   NC316825   9.446   4.511  13.766  0.0039  0.2278  0.0483
 1403POPC   PO416826   9.788   4.368  13.855 -0.3936 -0.0998  0.1852
 1403POPC   GL116827  10.049   4.131  13.747 -0.4092  0.1047  0.4569
 1403POPC   GL216828  10.136   3.938  13.961  0.0356  0.0251 -0.2145
 1403POPC   C1A16829  10.509   4.193  13.653  0.3489  0.1701  0.2243
 1403POPC   D2A16830  10.786   4.501  13.828  0.3117  0.1941 -0.2597
 1403POPC   C3A16831  11.108   4.748  13.555 -0.4333 -0.0090 -0.1038
 1403POPC   C4A16832  11.377   4.666  13.187 -0.1232 -0.3509  0.0943
 1403POPC   C1B16833  10.533   3.706  13.903  0.1614 -0.1007 -0.2067
 1403POPC   C2B16834  10.843   3.379  13.795  0.3152  0.0874 -0.2766
 1403POPC   C3B16835  11.181   3.116  13.757 -0.2062 -0.1089 -0.2376
 1403POPC   C4B16836  11.619   3.089  13.674 -0.2073 -0.1630  0.0927
 1404POPC   NC316837   7.331   2.031  18.905  0.2874  0.2136  0.1271
 1404POPC   PO416838   7.206   1.691  19.068 -0.1688 -0.2105 -0.0114
 1404POPC   GL116839   7.201   1.626  18.655 -0.0033 -0.2019  0.2160
 1404POPC   GL216840   6.882   1.608  18.668 -0.2061 -0.0065 -0.0500
 1404POPC   C1A16841   7.218   1.288  18.313 -0.0785  0.0679  0.1548
 1404POPC   D2A16842   7.390   0.872  18.331  0.1255  0.0983 -0.2524
 1404POPC   C3A16843   7.148   0.506  18.313  0.1194 -0.0176 -0.1359
 1404POPC   C4A16844   6.985   0.320  17.886 -0.1163  0.1343  0.2463
 1404POPC   C1B16845   6.954   1.739  18.214 -0.0257  0.4900 -0.2081
 1404POPC   C2B16846   7.205   1.544  17.865  0.0248 -0.0646 -0.0718
 1404POPC   C3B16847   7.405   1.124  17.849 -0.0018 -0.4330 -0.1532
 1404POPC   C4B16848   7.498   0.661  17.924 -0.1302 -0.1442  0.0313
 1405POPC   NC316849   3.192  10.726  20.408  0.2682  0.0232 -0.2881
 1405POPC   PO416850   3.148  10.410  20.611  0.4035 -0.0659  0.3498
 1405POPC   GL116851   2.721  10.486  20.542  0.2937 -0.1661 -0.0455
 1405POPC   GL216852   2.694  10.736  20.693  0.3589  0.0269 -0.1069
 1405POPC   C1A16853   2.470  10.400  20.194 -0.2653 -0.2350 -0.2568
 1405POPC   D2A16854   2.263  10.518  19.776  0.0558 -0.0290 -0.2796
 1405POPC   C3A16855   2.189  10.720  19.416  0.1261 -0.0690  0.0923
 1405POPC   C4A16856   2.120  11.057  19.069  0.0041 -0.0244  0.1787
 1405POPC   C1B16857   2.640  10.850  20.279 -0.0026 -0.1399  0.0669
 1405POPC   C2B16858   2.620  10.940  19.834  0.1890 -0.2835 -0.1019
 1405POPC   C3B16859   2.606  11.092  19.381  0.0882 -0.1926  0.0543
 1405POPC   C4B16860   2.593  11.028  18.934  0.0800 -0.0972 -0.0481
 1406POPC   NC316861   3.648   7.203  20.407 -0.0232 -0.1268 -0.0783
 1406POPC   PO416862   3.675   7.380  20.052  0.1248  0.2187 -0.1536
 1406POPC   GL116863   3.712   7.413  19.629  0.1747  0.0768  0.2118
 1406POPC   GL216864   3.398   7.556  19.621 -0.1813  0.1078 -0.0963
 1406POPC   C1A16865   4.093   7.381  19.305 -0.1912  0.2272  0.0993
 1406POPC   D2A16866   4.337   7.528  19.003 -0.2390 -0.0052 -0.1312
 1406POPC   C3A16867   4.067   7.672  18.721  0.4374 -0.0810 -0.0261
 1406POPC   C4A16868   3.679   7.851  18.574 -0.2270 -0.2339 -0.3684
 1406POPC   C1B16869   3.255   7.254  19.286 -0.4567  0.0002 -0.0367
 1406POPC   C2B16870   3.148   7.399  18.816 -0.2539 -0.0007 -0.0825
 1406POPC   C3B16871   2.995   7.553  18.396 -0.2566  0.0303 -0.1976
 1406POPC   C4B16872   2.839   7.813  18.068  0.3126  0.1074  0.0702
 1407POPC   NC316873   5.126   7.761  19.568  0.2318  0.2493  0.0907
 1407POPC   PO416874   5.462   7.978  19.522  0.1335 -0.1807  0.0194
 1407POPC   GL116875   5.254   7.986  19.160  0.1785 -0.2848 -0.2792
 1407POPC   GL216876   5.138   8.248  19.127  0.3176 -0.2278  0.0048
 1407POPC   C1A16877   4.824   7.906  18.896 -0.0489 -0.1920  0.0512
 1407POPC   D2A16878   4.602   7.927  18.511  0.1865  0.2498  0.0218
 1407POPC   C3A16879   4.218   7.816  18.250 -0.0109  0.0189 -0.2276
 1407POPC   C4A16880   3.871   7.600  18.105  0.0461  0.0098  0.1227
 1407POPC   C1B16881   4.882   8.427  18.749 -0.1925  0.2716 -0.1544
 1407POPC   C2B16882   4.618   8.415  18.349  0.0098  0.0998  0.0189
 1407POPC   C3B16883   4.473   8.126  17.961 -0.0085 -0.2393  0.0905
 1407POPC   C4B16884   4.332   7.747  17.713  0.0076  0.0599  0.5405
 1408POPC   NC316885   8.025   4.801  15.171 -0.1324 -0.1506  0.1424
 1408POPC   PO416886   7.878   4.581  15.494 -0.0452  0.1022 -0.1832
 1408POPC   GL116887   7.614   4.554  15.252  0.2937  0.1061 -0.0447
 1408POPC   GL216888   7.487   4.315  15.306 -0.2680  0.2878 -0.0179
 1408POPC   C1A16889   7.337   4.546  14.886  0.1205  0.0751 -0.0710
 1408POPC   D2A16890   7.046   4.358  14.633  0.0611  0.2357 -0.0601
 1408POPC   C3A16891   6.628   4.535  14.536 -0.0855  0.0430 -0.0537
 1408POPC   C4A16892   6.242   4.776  14.570 -0.0661 -0.2369  0.0207
 1408POPC   C1B16893   7.037   4.169  15.192  0.0893 -0.0021 -0.0302
 1408POPC   C2B16894   6.601   4.184  15.145 -0.0822  0.0040  0.0272
 1408POPC   C3B16895   6.235   3.988  15.289  0.0892 -0.2924  0.3432
 1408POPC   C4B16896   5.788   4.124  15.275 -0.3968  0.3153 -0.0381
 1409POPC   NC316897   9.892   7.394  18.084  0.0339 -0.0395  0.1972
 1409POPC   PO416898  10.228   7.562  18.041 -0.1831  0.1183 -0.0815
 1409POPC   GL116899  10.487   7.875  17.901  0.2603  0.1588 -0.3014
 1409POPC   GL216900  10.259   8.075  17.870 -0.1826 -0.4081 -0.1641
 1409POPC   C1A16901  10.938   7.910  17.775  0.0514  0.1062  0.1275
 1409POPC   D2A16902  11.203   8.029  17.383  0.0740  0.1975 -0.0382
 1409POPC   C3A16903  11.581   8.197  17.291 -0.1060  0.1738  0.1240
 1409POPC   C4A16904  12.019   8.265  17.192  0.0674 -0.0767 -0.0040
 1409POPC   C1B16905  10.102   8.227  17.500  0.1885  0.0698 -0.0838
 1409POPC   C2B16906   9.847   8.585  17.506  0.1699 -0.0555  0.0838
 1409POPC   C3B16907   9.702   9.067  17.504  0.1836  0.0891  0.1176
 1409POPC   C4B16908   9.663   9.415  17.779 -0.0286 -0.2363 -0.1607
 1410POPC   NC316909   2.361  12.760  21.225  0.2086 -0.3026  0.1996
 1410POPC   PO416910   2.576  12.732  20.907 -0.0757 -0.2109  0.1326
 1410POPC   GL116911   2.653  12.936  20.531  0.2054 -0.2088 -0.0779
 1410POPC   GL216912   2.681  13.218  20.554 -0.2651  0.3598  0.2574
 1410POPC   C1A16913   2.902  12.800  20.148 -0.0734  0.2867 -0.2403
 1410POPC   D2A16914   2.776  12.830  19.709  0.2406  0.2745  0.0534
 1410POPC   C3A16915   2.716  13.034  19.331  0.1787  0.1105  0.0089
 1410POPC   C4A16916   2.431  13.007  18.964 -0.0250 -0.1048  0.2695
 1410POPC   C1B16917   2.560  13.150  20.135  0.0519 -0.0089 -0.0624
 1410POPC   C2B16918   2.406  13.163  19.757 -0.1481 -0.2416  0.4267
 1410POPC   C3B16919   2.217  13.231  19.311 -0.2707 -0.2433  0.2369
 1410POPC   C4B16920   1.960  12.964  19.042  0.2878 -0.1127 -0.0812
 1411POPC   NC316921  12.174   1.161  19.100 -0.0937  0.0408 -0.0819
 1411POPC   PO416922  12.207   1.591  19.106  0.1209  0.3533 -0.4463
 1411POPC   GL116923  12.001   1.355  18.743  0.2008 -0.1622 -0.0573
 1411POPC   GL216924  11.747   1.424  18.604  0.2073  0.0884 -0.2029
 1411POPC   C1A16925  12.142   0.894  18.604  0.4269 -0.1349 -0.1713
 1411POPC   D2A16926  12.072   0.499  18.352 -0.4150 -0.2362 -0.0679
 1411POPC   C3A16927  11.951   0.167  18.029  0.1236 -0.0886  0.0854
 1411POPC   C4A16928  11.532   0.202  17.838 -0.2334 -0.1329  0.1434
 1411POPC   C1B16929  12.114   1.321  18.303  0.1568  0.0098 -0.1354
 1411POPC   C2B16930  12.262   1.000  18.040 -0.1387 -0.2344 -0.0949
 1411POPC   C3B16931  11.987   0.686  17.851 -0.2292  0.4078  0.1517
 1411POPC   C4B16932  11.917   0.310  17.538 -0.0011  0.0352  0.2148
 1412POPC   NC316933   7.553   2.508  18.842 -0.2319 -0.0849  0.1389
 1412POPC   PO416934   7.451   2.552  18.467 -0.0079  0.1579 -0.0626
 1412POPC   GL116935   7.368   2.257  18.334  0.1146  0.2852 -0.0673
 1412POPC   GL216936   7.186   2.082  18.440 -0.0034 -0.1145  0.0536
 1412POPC   C1A16937   7.545   2.075  17.902 -0.3878  0.1903 -0.0210
 1412POPC   D2A16938   7.788   1.741  17.735 -0.0557 -0.0756  0.0951
 1412POPC   C3A16939   7.805   1.312  17.650 -0.0744 -0.0596 -0.1415
 1412POPC   C4A16940   7.769   0.845  17.558  0.3555 -0.0555 -0.2422
 1412POPC   C1B16941   7.530   1.809  18.282  0.3567  0.2618 -0.0329
 1412POPC   C2B16942   7.687   1.421  18.128  0.2193  0.2305  0.1803
 1412POPC   C3B16943   8.093   1.509  18.035 -0.0257  0.5440 -0.1377
 1412POPC   C4B16944   8.435   1.706  17.832 -0.0608  0.3280 -0.1698
 1413POPC   NC316945  10.893   5.225  13.322  0.3224  0.0358  0.0036
 1413POPC   PO416946  10.825   5.541  13.144  0.0741 -0.2248 -0.0489
 1413POPC   GL116947  11.133   5.647  13.163 -0.2814 -0.3683 -0.0286
 1413POPC   GL216948  11.161   5.902  12.967  0.2041  0.0728  0.1315
 1413POPC   C1A16949  11.516   5.575  12.916 -0.1635  0.0393  0.2778
 1413POPC   D2A16950  11.880   5.387  12.866  0.2599  0.3064  0.1710
 1413POPC   C3A16951  11.991   5.281  13.276  0.4757 -0.0854 -0.2538
 1413POPC   C4A16952  12.178   5.144  13.651 -0.0624  0.1438  0.3386
 1413POPC   C1B16953  10.972   6.342  12.929 -0.2095  0.0306  0.0775
 1413POPC   C2B16954  10.909   6.739  13.099  0.1400  0.2938 -0.3813
 1413POPC   C3B16955  10.965   7.075  13.394  0.1450 -0.1797  0.4043
 1413POPC   C4B16956  11.297   7.395  13.461  0.0763  0.1982  0.1601
 1414POPC   NC316957   7.813   6.343  15.369 -0.3138  0.2047  0.0562
 1414POPC   PO416958   8.097   6.500  15.211  0.3638 -0.2157  0.1015
 1414POPC   GL116959   7.902   6.795  14.962 -0.2275  0.0518 -0.1162
 1414POPC   GL216960   8.011   6.974  14.877  0.1260  0.0317 -0.1562
 1414POPC   C1A16961   7.592   7.166  15.050  0.0758  0.0345  0.2021
 1414POPC   D2A16962   7.274   7.456  14.818  0.0577  0.3893 -0.0777
 1414POPC   C3A16963   7.416   7.891  14.712  0.0310 -0.1077 -0.0879
 1414POPC   C4A16964   7.546   8.251  14.420 -0.2346  0.1472  0.0845
 1414POPC   C1B16965   7.546   6.820  14.675  0.2603 -0.1889 -0.0801
 1414POPC   C2B16966   7.501   6.892  14.232  0.0137  0.0682  0.4769
 1414POPC   C3B16967   7.605   6.605  13.871  0.2260 -0.0592  0.0864
 1414POPC   C4B16968   7.496   6.311  13.526 -0.0537 -0.0197  0.3004
 1415POPC   NC316969   4.902   5.713  18.655  0.1212  0.3352 -0.1208
 1415POPC   PO416970   4.644   5.812  18.933 -0.5622 -0.1949  0.3369
 1415POPC   GL116971   4.348   6.080  18.753  0.1264 -0.1850 -0.5425
 1415POPC   GL216972   4.517   6.158  18.569  0.0821  0.1583 -0.0555
 1415POPC   C1A16973   4.056   6.327  18.547  0.1083 -0.1342 -0.1525
 1415POPC   D2A16974   3.719   6.457  18.289  0.1112  0.0259 -0.2505
 1415POPC   C3A16975   3.669   6.338  17.859  0.1300 -0.0548  0.1350
 1415POPC   C4A16976   3.633   6.537  17.416  0.3994  0.1293 -0.1985
 1415POPC   C1B16977   4.659   6.125  18.091 -0.1592  0.1331  0.2467
 1415POPC   C2B16978   4.493   6.128  17.652 -0.0790  0.0462  0.1530
 1415POPC   C3B16979   4.366   5.774  17.358  0.2021 -0.0781  0.3734
 1415POPC   C4B16980   4.355   5.664  16.877  0.1126  0.0207  0.2864
 1416POPC   NC316981  11.941   4.450  17.930  0.2532 -0.1799  0.1273
 1416POPC   PO416982  12.270   4.469  18.157  0.1608  0.1187 -0.0922
 1416POPC   GL116983  12.390   4.271  17.861 -0.0596  0.0500  0.4221
 1416POPC   GL216984  12.358   3.943  17.784  0.1991 -0.0916 -0.2103
 1416POPC   C1A16985  12.822   4.230  17.579  0.0571 -0.3482  0.2199
 1416POPC   D2A16986  12.949   3.983  17.200 -0.2184  0.0250 -0.2222
 1416POPC   C3A16987  13.057   4.122  16.775 -0.1113 -0.0581 -0.2253
 1416POPC   C4A16988  13.392   4.298  16.554  0.0573 -0.0788  0.1898
 1416POPC   C1B16989  12.536   3.816  17.366 -0.1849  0.2099 -0.0965
 1416POPC   C2B16990  12.586   3.748  16.938 -0.3133  0.0828 -0.0508
 1416POPC   C3B16991  12.633   3.403  16.618  0.0599  0.0513  0.1962
 1416POPC   C4B16992  12.827   3.087  16.297 -0.0346 -0.1719 -0.0471
 1417POPC   NC316993   4.162   7.451  19.903  0.0031 -0.2848 -0.0186
 1417POPC   PO416994   3.897   7.772  19.876 -0.0707  0.0499  0.2770
 1417POPC   GL116995   3.832   7.822  19.499 -0.3165  0.0239 -0.0011
 1417POPC   GL216996   3.708   8.071  19.500 -0.1183 -0.3301  0.3695
 1417POPC   C1A16997   3.705   7.608  19.117 -0.3958  0.1254 -0.2033
 1417POPC   D2A16998   3.686   7.298  18.804 -0.0979 -0.1153  0.0846
 1417POPC   C3A16999   3.520   7.425  18.335  0.3449 -0.1982 -0.0313
 1417POPC   C4A17000   3.326   7.790  18.034  0.0255  0.1142 -0.1244
 1417POPC   C1B17001   3.308   8.233  19.266  0.3308  0.2190  0.2358
 1417POPC   C2B17002   2.926   8.342  18.948 -0.0499 -0.0817  0.0142
 1417POPC   C3B17003   2.965   8.668  18.671  0.1564  0.1670 -0.0475
 1417POPC   C4B17004   2.843   8.877  18.322  0.0825  0.2944 -0.0572
 1418POPC   NC317005   3.958   9.356  20.392 -0.4159 -0.1228 -0.0580
 1418POPC   PO417006   4.296   9.280  20.194  0.0797  0.1435  0.1213
 1418POPC   GL117007   4.236   9.110  19.788 -0.4686 -0.3337  0.4268
 1418POPC   GL217008   4.354   9.311  19.681 -0.1221 -0.2854  0.2078
 1418POPC   C1A17009   4.405   8.883  19.362  0.3175  0.3495  0.2449
 1418POPC   D2A17010   4.417   8.751  18.852 -0.5767 -0.1459 -0.0632
 1418POPC   C3A17011   4.357   8.808  18.392  0.1112  0.0079  0.1437
 1418POPC   C4A17012   4.260   8.616  17.962  0.0097  0.4646  0.1282
 1418POPC   C1B17013   4.188   9.280  19.223  0.0178 -0.1481  0.1672
 1418POPC   C2B17014   4.115   9.192  18.755 -0.0215 -0.0668  0.1754
 1418POPC   C3B17015   4.033   9.170  18.291 -0.1741 -0.0339  0.0598
 1418POPC   C4B17016   3.987   9.083  17.818 -0.1967  0.2365 -0.1750
 1419POPC   NC317017  12.296   8.504  19.975 -0.0359 -0.2981  0.0846
 1419POPC   PO417018  12.626   8.732  19.883  0.2157  0.1771  0.2506
 1419POPC   GL117019  12.493   8.921  19.581  0.0863 -0.0498  0.1651
 1419POPC   GL217020  12.241   8.834  19.589 -0.0870  0.0055  0.2087
 1419POPC   C1A17021  12.663   9.058  19.178  0.0305 -0.2103  0.2226
 1419POPC   D2A17022  13.063   8.840  19.012 -0.0332  0.2235  0.0594
 1419POPC   C3A17023  13.129   8.717  18.602  0.0620  0.0723  0.0665
 1419POPC   C4A17024  13.176   8.858  18.201  0.0995 -0.3183 -0.2290
 1419POPC   C1B17025  12.177   9.123  19.253 -0.2334  0.1021  0.0269
 1419POPC   C2B17026  12.266   9.234  18.792  0.0720  0.3034 -0.0021
 1419POPC   C3B17027  12.638   9.493  18.706  0.1472 -0.1098  0.0967
 1419POPC   C4B17028  13.031   9.735  18.518 -0.4491  0.3488  0.3667
 1420POPC   NC317029  12.628  13.440  20.497 -0.1140 -0.1960 -0.1192
 1420POPC   PO417030  12.674  13.855  20.491  0.2021  0.1977  0.0003
 1420POPC   GL117031  12.712  13.703  20.100  0.2311 -0.1200 -0.0122
 1420POPC   GL217032  12.782  13.432  19.996 -0.5207  0.0345  0.0719
 1420POPC   C1A17033  12.340  13.578  19.790  0.1903 -0.1720  0.0255
 1420POPC   D2A17034  12.262  13.305  19.413  0.4194  0.1198  0.5433
 1420POPC   C3A17035  12.175  13.405  18.944 -0.3201  0.1349 -0.1311
 1420POPC   C4A17036  12.002  13.311  18.523 -0.0560  0.1223  0.0336
 1420POPC   C1B17037  12.893  13.530  19.552  0.1042  0.0376  0.0451
 1420POPC   C2B17038  13.169  13.388  19.194 -0.2286 -0.1840  0.0408
 1420POPC   C3B17039  13.014  13.140  18.816  0.1994 -0.1520 -0.2717
 1420POPC   C4B17040  13.196  12.955  18.440  0.1654 -0.2916 -0.0964
 1421POPC   NC317041   5.116   8.755  19.990  0.1727 -0.0099 -0.0503
 1421POPC   PO417042   5.310   8.850  19.646 -0.0784 -0.0518 -0.1092
 1421POPC   GL117043   5.271   9.204  19.442  0.0263  0.5837  0.0639
 1421POPC   GL217044   5.282   9.141  19.130  0.0771  0.0653 -0.0515
 1421POPC   C1A17045   5.325   9.636  19.384  0.0992  0.2740 -0.1216
 1421POPC   D2A17046   4.912   9.801  19.131  0.0802  0.1463  0.0201
 1421POPC   C3A17047   4.760   9.673  18.673  0.0244 -0.0625 -0.0155
 1421POPC   C4A17048   4.801   9.631  18.205 -0.0855  0.2184 -0.2277
 1421POPC   C1B17049   5.162   9.471  18.879  0.2231  0.1669 -0.1498
 1421POPC   C2B17050   5.235   9.856  18.631  0.2438 -0.2338  0.0231
 1421POPC   C3B17051   5.284  10.292  18.598  0.0879 -0.0714 -0.0167
 1421POPC   C4B17052   5.235  10.655  18.294 -0.3575 -0.2824 -0.0785
 1422POPC   NC317053   4.989   0.511  19.856 -0.2168 -0.2319 -0.4035
 1422POPC   PO417054   5.354   0.728  19.928  0.2060 -0.0196  0.1633
 1422POPC   GL117055   5.345   0.454  19.608 -0.0359 -0.0443  0.0704
 1422POPC   GL217056   5.464   0.230  19.702 -0.0821 -0.3235 -0.0154
 1422POPC   C1A17057   5.420   0.297  19.172  0.1133 -0.1426  0.1472
 1422POPC   D2A17058   5.301   0.446  18.733 -0.2828 -0.2561  0.4842
 1422POPC   C3A17059   5.650   0.529  18.404 -0.1615 -0.0446 -0.3182
 1422POPC   C4A17060   5.905   0.537  18.025  0.1008 -0.2889 -0.2676
 1422POPC   C1B17061   5.709  -0.027  19.369 -0.1086  0.1534 -0.4601
 1422POPC   C2B17062   5.816  -0.476  19.131 -0.1160 -0.6076 -0.0101
 1422POPC   C3B17063   5.870  -0.850  18.851 -0.3254 -0.0927  0.0769
 1422POPC   C4B17064   5.914  -1.169  18.519 -0.1963 -0.0587  0.1635
 1423POPC   NC317065  12.284   3.797  18.613  0.0703 -0.0649 -0.2129
 1423POPC   PO417066  12.079   3.549  18.340 -0.0995 -0.0428 -0.0063
 1423POPC   GL117067  12.325   3.603  18.094 -0.1117  0.3225 -0.0144
 1423POPC   GL217068  12.548   3.475  18.248 -0.0809  0.0058 -0.0876
 1423POPC   C1A17069  12.458   3.371  17.673  0.0540 -0.0296 -0.2647
 1423POPC   D2A17070  12.611   3.293  17.219 -0.1081  0.0765 -0.0030
 1423POPC   C3A17071  12.688   2.991  16.905 -0.3321 -0.1617 -0.0638
 1423POPC   C4A17072  12.961   2.704  16.664 -0.2168  0.1684  0.0613
 1423POPC   C1B17073  12.841   3.704  18.003  0.0830 -0.1394  0.0155
 1423POPC   C2B17074  12.939   3.597  17.540  0.1255 -0.1138  0.2608
 1423POPC   C3B17075  13.046   3.474  17.098  0.0694  0.0201  0.0262
 1423POPC   C4B17076  13.121   3.165  16.723 -0.0153 -0.3188  0.2077
 1424POPC   NC317077   6.928   7.294  17.772  0.0169 -0.2242 -0.0480
 1424POPC   PO417078   7.337   7.259  17.643  0.1619  0.1152 -0.0021
 1424POPC   GL117079   7.155   7.600  17.437 -0.3598  0.1813 -0.2083
 1424POPC   GL217080   7.126   7.449  17.204 -0.2211  0.0774  0.1518
 1424POPC   C1A17081   6.850   7.860  17.709  0.3017  0.0603 -0.0125
 1424POPC   D2A17082   6.622   8.256  17.531  0.0079 -0.2363 -0.1105
 1424POPC   C3A17083   6.178   8.330  17.654 -0.0874 -0.1912  0.0130
 1424POPC   C4A17084   5.768   8.229  17.624  0.2737  0.0819 -0.2056
 1424POPC   C1B17085   6.848   7.776  17.180 -0.0980  0.2110  0.0842
 1424POPC   C2B17086   6.838   8.227  16.979 -0.2005 -0.5310  0.3438
 1424POPC   C3B17087   7.177   8.535  16.719 -0.3104  0.1099 -0.0389
 1424POPC   C4B17088   7.525   8.773  16.519  0.0584  0.0290  0.1695
 1425POPC   NC317089  11.315   5.293  17.076 -0.2084  0.0448  0.2326
 1425POPC   PO417090  11.226   5.727  17.118 -0.2928 -0.0822  0.3758
 1425POPC   GL117091  11.581   5.645  16.964 -0.2202 -0.0527  0.3135
 1425POPC   GL217092  11.864   5.720  17.123  0.1206 -0.0201  0.0165
 1425POPC   C1A17093  11.840   5.625  16.578 -0.1387  0.3649 -0.0582
 1425POPC   D2A17094  12.299   5.571  16.378  0.1100  0.1356  0.1034
 1425POPC   C3A17095  12.706   5.424  16.121  0.2937  0.0958  0.0675
 1425POPC   C4A17096  13.205   5.512  16.229  0.0275  0.3151 -0.0024
 1425POPC   C1B17097  12.241   5.590  17.265  0.0709 -0.0691 -0.2143
 1425POPC   C2B17098  12.667   5.446  17.133  0.4951  0.1197 -0.1222
 1425POPC   C3B17099  12.998   5.485  16.762 -0.0430  0.0652 -0.1006
 1425POPC   C4B17100  13.125   5.146  16.499 -0.0372 -0.1208 -0.1613
 1426POPC   NC317101   8.964   3.135  16.519 -0.1137 -0.1879  0.0955
 1426POPC   PO417102   8.798   3.003  16.871  0.0783 -0.0223  0.3269
 1426POPC   GL117103   8.932   2.687  16.531  0.2406 -0.0956  0.0921
 1426POPC   GL217104   9.202   2.697  16.704 -0.0939 -0.1719 -0.1258
 1426POPC   C1A17105   9.046   2.238  16.465 -0.0858 -0.0905  0.0531
 1426POPC   D2A17106   9.290   1.893  16.187  0.0344 -0.1455 -0.1246
 1426POPC   C3A17107   9.111   1.491  15.921  0.0056 -0.0772 -0.1188
 1426POPC   C4A17108   8.898   1.366  15.536 -0.0600  0.2872 -0.0750
 1426POPC   C1B17109   9.468   2.321  16.786 -0.2319  0.0738  0.0039
 1426POPC   C2B17110   9.326   1.843  16.808 -0.2023 -0.0848 -0.1260
 1426POPC   C3B17111   9.386   1.450  16.895  0.2206  0.1048 -0.2631
 1426POPC   C4B17112   9.627   1.086  16.740  0.0261  0.0240  0.3893
 1427POPC   NC317113  14.004   7.875  20.090  0.2299  0.0963 -0.1355
 1427POPC   PO417114  13.745   8.166  20.011 -0.2654  0.2850  0.2043
 1427POPC   GL117115  13.808   8.137  19.643  0.1943  0.1416 -0.2602
 1427POPC   GL217116  14.111   8.180  19.636  0.1296  0.3919 -0.1462
 1427POPC   C1A17117  13.833   8.398  19.263  0.1217 -0.0250 -0.1826
 1427POPC   D2A17118  14.072   8.291  18.905 -0.0276  0.0756  0.0108
 1427POPC   C3A17119  14.093   8.566  18.541  0.2154  0.0870 -0.1064
 1427POPC   C4A17120  13.953   8.512  18.110  0.0796  0.0279 -0.2347
 1427POPC   C1B17121  14.340   8.389  19.302 -0.2597  0.1231  0.0655
 1427POPC   C2B17122  14.490   8.520  18.827  0.1985 -0.3093 -0.2400
 1427POPC   C3B17123  14.806   8.671  18.491  0.2206  0.0599 -0.2471
 1427POPC   C4B17124  15.116   8.826  18.187  0.4448  0.0571  0.0842
 1428POPC   NC317125   5.506  10.516  20.799  0.2347 -0.1017 -0.2967
 1428POPC   PO417126   5.410  10.302  20.419  0.2711  0.1439  0.0575
 1428POPC   GL117127   5.198  10.251  20.025  0.1212  0.0244 -0.0152
 1428POPC   GL217128   4.936  10.336  20.165  0.2104 -0.1850 -0.1868
 1428POPC   C1A17129   4.934   9.890  19.796 -0.0014 -0.0778  0.0363
 1428POPC   D2A17130   4.846   9.478  19.558 -0.0482  0.1937 -0.0245
 1428POPC   C3A17131   4.758   9.237  19.164 -0.0490  0.1876  0.4561
 1428POPC   C4A17132   4.873   8.977  18.833 -0.4583 -0.1584 -0.2396
 1428POPC   C1B17133   4.929  10.527  19.718  0.1211  0.4445 -0.0951
 1428POPC   C2B17134   4.862  10.574  19.275  0.2014 -0.0766 -0.0392
 1428POPC   C3B17135   4.757  10.681  18.856  0.2292 -0.1277 -0.3970
 1428POPC   C4B17136   4.757  10.643  18.431  0.2091 -0.2115  0.0326
 1429POPC   NC317137   5.033   4.532  18.773  0.5005  0.3663  0.1854
 1429POPC   PO417138   5.244   4.326  18.489  0.2139 -0.1514  0.1521
 1429POPC   GL117139   5.064   4.540  18.189 -0.1250  0.3225 -0.3661
 1429POPC   GL217140   4.826   4.494  18.211 -0.1617  0.0550  0.2195
 1429POPC   C1A17141   4.917   4.932  17.975 -0.1301 -0.0039 -0.2117
 1429POPC   D2A17142   4.840   5.304  17.814  0.0924 -0.0922  0.0647
 1429POPC   C3A17143   4.457   5.638  17.821  0.2147  0.2072  0.0928
 1429POPC   C4A17144   4.025   5.839  17.753 -0.2141 -0.5003  0.0359
 1429POPC   C1B17145   4.518   4.475  17.854 -0.1060  0.1042 -0.1346
 1429POPC   C2B17146   4.365   4.470  17.400 -0.0756 -0.0334  0.0984
 1429POPC   C3B17147   4.085   4.612  17.053 -0.2028 -0.1672  0.0935
 1429POPC   C4B17148   3.823   4.823  16.710  0.0061 -0.2158  0.1001
 1430POPC   NC317149  10.666   6.554  17.253 -0.2627 -0.1974 -0.0553
 1430POPC   PO417150  10.349   6.522  17.020 -0.3737  0.1960  0.1151
 1430POPC   GL117151  10.637   6.860  16.907  0.1484  0.0385 -0.0776
 1430POPC   GL217152  10.817   7.006  17.152  0.0387  0.0986  0.2479
 1430POPC   C1A17153  10.966   7.056  16.674  0.0764  0.5896 -0.1363
 1430POPC   D2A17154  11.274   7.393  16.736  0.1596  0.0647 -0.1970
 1430POPC   C3A17155  11.749   7.407  16.727  0.0703  0.2534 -0.1880
 1430POPC   C4A17156  12.100   7.099  16.804 -0.2115 -0.3943 -0.1392
 1430POPC   C1B17157  11.262   7.130  17.195 -0.0123 -0.0509 -0.1159
 1430POPC   C2B17158  11.740   7.087  17.194  0.0323 -0.1332 -0.5016
 1430POPC   C3B17159  12.099   6.783  17.186  0.0671  0.2195 -0.0264
 1430POPC   C4B17160  12.556   6.680  17.171 -0.0766  0.0515  0.1130
 1431POPC   NC317161  15.420  15.081  19.756 -0.0700 -0.1125  0.1379
 1431POPC   PO417162  15.588  14.835  19.984 -0.1003 -0.2364 -0.0896
 1431POPC   GL117163  15.698  14.645  19.647  0.0528  0.1183  0.4105
 1431POPC   GL217164  15.389  14.647  19.551 -0.3908  0.1022 -0.0572
 1431POPC   C1A17165  15.934  14.514  19.245  0.1989  0.2208  0.3017
 1431POPC   D2A17166  15.984  14.118  19.023 -0.0424 -0.1549 -0.3178
 1431POPC   C3A17167  16.269  14.037  18.730 -0.2903  0.1532 -0.3832
 1431POPC   C4A17168  16.684  13.992  18.518 -0.2408  0.1613  0.2061
 1431POPC   C1B17169  15.408  14.273  19.186  0.1703 -0.0573 -0.1759
 1431POPC   C2B17170  15.505  14.064  18.794 -0.0670 -0.1521  0.3008
 1431POPC   C3B17171  15.606  13.901  18.403  0.0997  0.0385 -0.3587
 1431POPC   C4B17172  15.258  13.896  18.077  0.2119 -0.0973 -0.2235
 1432POPC   NC317173   4.998   3.500  19.504 -0.1767 -0.2296  0.0426
 1432POPC   PO417174   4.823   3.553  19.172 -0.1349 -0.0835 -0.0875
 1432POPC   GL117175   4.685   3.496  18.801 -0.2490 -0.1174  0.0909
 1432POPC   GL217176   4.486   3.669  18.758 -0.3291 -0.0599 -0.2081
 1432POPC   C1A17177   4.746   3.441  18.339 -0.0190  0.0346  0.3123
 1432POPC   D2A17178   4.461   3.323  17.995 -0.0086  0.0770 -0.0581
 1432POPC   C3A17179   4.679   3.079  17.676  0.3507  0.1277  0.0254
 1432POPC   C4A17180   4.811   2.842  17.268 -0.0363  0.1671  0.1746
 1432POPC   C1B17181   4.192   3.721  18.428  0.2206 -0.3163  0.0128
 1432POPC   C2B17182   3.944   3.729  17.997 -0.0672  0.0799  0.3304
 1432POPC   C3B17183   3.507   3.593  17.851  0.2373  0.1086 -0.0801
 1432POPC   C4B17184   3.255   3.584  17.409  0.3470  0.0375  0.3647
 1433POPC   NC317185   0.207   1.479  20.243 -0.0206 -0.1238 -0.0136
 1433POPC   PO417186   0.393   1.777  20.162 -0.1144  0.0558  0.2863
 1433POPC   GL117187   0.411   1.550  19.751 -0.2363 -0.2720 -0.5187
 1433POPC   GL217188   0.237   1.327  19.792  0.4235 -0.4249  0.0712
 1433POPC   C1A17189   0.738   1.462  19.410  0.0296  0.0486 -0.1338
 1433POPC   D2A17190   1.061   1.504  19.118  0.2459  0.0422  0.2616
 1433POPC   C3A17191   1.228   1.646  18.701  0.0712 -0.1213 -0.1027
 1433POPC   C4A17192   1.519   1.612  18.333  0.0195 -0.0024 -0.1934
 1433POPC   C1B17193   0.302   1.245  19.299 -0.3109 -0.3458 -0.1726
 1433POPC   C2B17194   0.299   1.045  18.880 -0.0959 -0.0875 -0.1428
 1433POPC   C3B17195   0.501   0.975  18.493 -0.2388 -0.2055 -0.1749
 1433POPC   C4B17196   0.639   1.229  18.120  0.2493 -0.1503 -0.0061
 1434POPC   NC317197  10.648   1.012  19.550  0.0331  0.1602 -0.4206
 1434POPC   PO417198  10.987   0.996  19.310  0.0734 -0.1648 -0.2781
 1434POPC   GL117199  11.041   0.720  19.080 -0.0251  0.0079  0.3208
 1434POPC   GL217200  11.339   0.621  19.107 -0.0795 -0.1861 -0.1270
 1434POPC   C1A17201  10.784   0.442  18.797  0.4060  0.0112 -0.1468
 1434POPC   D2A17202  10.661   0.161  18.532  0.1322 -0.2733 -0.0949
 1434POPC   C3A17203  10.347   0.178  18.180  0.0681 -0.0995 -0.1074
 1434POPC   C4A17204  10.110   0.173  17.754  0.3921 -0.1094 -0.0389
 1434POPC   C1B17205  11.231   0.717  18.701 -0.1378 -0.1229 -0.0555
 1434POPC   C2B17206  11.322   0.715  18.232 -0.2379 -0.2212 -0.0879
 1434POPC   C3B17207  11.468   0.767  17.805 -0.2259  0.0468 -0.0039
 1434POPC   C4B17208  11.437   0.715  17.315  0.3518 -0.0490  0.0433
 1435POPC   NC317209   1.189  13.729  20.738 -0.0051 -0.2246  0.0650
 1435POPC   PO417210   0.916  13.555  20.486  0.0717 -0.2455 -0.0237
 1435POPC   GL117211   1.072  13.335  20.223  0.0365  0.0639 -0.0506
 1435POPC   GL217212   1.325  13.419  20.109  0.0582  0.3194 -0.4587
 1435POPC   C1A17213   0.982  13.003  19.896 -0.0336 -0.1020  0.2255
 1435POPC   D2A17214   1.006  12.782  19.459  0.1749  0.0803  0.0988
 1435POPC   C3A17215   0.900  12.609  19.047  0.3022  0.1575 -0.0075
 1435POPC   C4A17216   0.702  12.397  18.704 -0.0499  0.3784  0.0532
 1435POPC   C1B17217   1.389  13.653  19.737  0.1290  0.1258 -0.1029
 1435POPC   C2B17218   1.345  14.062  19.621 -0.4682  0.0050  0.4598
 1435POPC   C3B17219   1.205  14.310  19.204  0.2998 -0.3049  0.2154
 1435POPC   C4B17220   1.176  14.747  18.995 -0.2382 -0.0657  0.0905
 1436POPC   NC317221   4.146   1.890  19.809 -0.0588 -0.2396  0.0486
 1436POPC   PO417222   3.939   1.663  19.584  0.2798 -0.3753  0.2925
 1436POPC   GL117223   4.184   1.891  19.296  0.1022 -0.3418  0.2870
 1436POPC   GL217224   4.267   2.169  19.317  0.1615 -0.1826  0.1555
 1436POPC   C1A17225   4.436   1.906  18.924 -0.3449 -0.2566 -0.1849
 1436POPC   D2A17226   4.424   1.844  18.453  0.4434  0.1163  0.3772
 1436POPC   C3A17227   4.329   1.502  18.141 -0.0957 -0.2392  0.1608
 1436POPC   C4A17228   4.143   1.211  17.888  0.1968 -0.0729 -0.1325
 1436POPC   C1B17229   4.063   2.198  18.919  0.0030 -0.1294  0.0996
 1436POPC   C2B17230   4.026   2.214  18.481 -0.1227 -0.0441 -0.2245
 1436POPC   C3B17231   4.059   1.944  18.134 -0.0704  0.1358  0.0819
 1436POPC   C4B17232   3.953   1.660  17.749  0.2337 -0.1610 -0.1842
 1437POPC   NC317233   4.763  14.711  20.661  0.0531 -0.2105  0.0642
 1437POPC   PO417234   5.095  14.918  20.576  0.1062 -0.0190 -0.2410
 1437POPC   GL117235   5.324  14.821  20.205 -0.1277  0.1293  0.1103
 1437POPC   GL217236   5.572  14.700  20.244  0.4205 -0.2018 -0.0660
 1437POPC   C1A17237   5.198  14.648  19.773  0.0293 -0.2645  0.2966
 1437POPC   D2A17238   5.050  14.294  19.546 -0.1852  0.4663  0.0615
 1437POPC   C3A17239   4.694  14.249  19.232 -0.0576 -0.2443  0.1698
 1437POPC   C4A17240   4.353  14.456  18.946  0.2813  0.0426  0.1186
 1437POPC   C1B17241   5.516  15.011  19.861  0.1022 -0.0602 -0.0260
 1437POPC   C2B17242   5.721  15.249  19.490 -0.1619  0.2181 -0.1769
 1437POPC   C3B17243   5.800  15.451  19.061  0.3459  0.2464 -0.2807
 1437POPC   C4B17244   5.915  15.682  18.692  0.0480 -0.1177  0.0140
 1438POPC   NC317245   2.803   9.555  20.643 -0.0123  0.3674 -0.1782
 1438POPC   PO417246   2.996   9.675  20.379 -0.2439  0.2112 -0.0534
 1438POPC   GL117247   2.991   9.926  20.138  0.0292  0.5362  0.3703
 1438POPC   GL217248   2.961  10.161  20.209  0.0192  0.0355 -0.0121
 1438POPC   C1A17249   2.736   9.966  19.739 -0.1454 -0.0861  0.2369
 1438POPC   D2A17250   2.590  10.092  19.322 -0.0966  0.0879 -0.1224
 1438POPC   C3A17251   2.344   9.959  18.976 -0.2858 -0.0249 -0.1921
 1438POPC   C4A17252   2.206   9.778  18.647  0.0133  0.1001  0.3784
 1438POPC   C1B17253   2.855  10.442  19.820 -0.2158 -0.1437 -0.0680
 1438POPC   C2B17254   2.722  10.601  19.428 -0.2138 -0.0248 -0.0774
 1438POPC   C3B17255   2.580  10.468  18.990  0.1313  0.0606 -0.0339
 1438POPC   C4B17256   2.409  10.284  18.616 -0.1761  0.0497 -0.0233
 1439POPC   NC317257  11.342   4.925  15.332 -0.2770  0.2491 -0.0864
 1439POPC   PO417258  10.979   4.752  15.300  0.0212  0.0674  0.1575
 1439POPC   GL117259  11.165   4.406  15.150  0.4087 -0.0679  0.1645
 1439POPC   GL217260  11.445   4.422  15.084  0.0612 -0.0625  0.1793
 1439POPC   C1A17261  10.928   4.084  14.884 -0.1608 -0.1744 -0.2353
 1439POPC   D2A17262  11.115   3.683  14.825  0.0476  0.4744  0.3106
 1439POPC   C3A17263  11.287   3.372  14.532  0.1749  0.1295  0.0638
 1439POPC   C4A17264  11.505   2.965  14.531 -0.1600 -0.0581  0.2631
 1439POPC   C1B17265  11.721   4.322  14.723  0.0299 -0.0480  0.2120
 1439POPC   C2B17266  11.856   4.191  14.309 -0.0535 -0.0418 -0.3107
 1439POPC   C3B17267  12.013   3.906  14.014  0.3717 -0.0044 -0.0732
 1439POPC   C4B17268  11.839   3.499  13.822 -0.2274 -0.0076 -0.2171
 1440POPC   NC317269   5.149   5.431  18.965  0.1744  0.0223  0.2998
 1440POPC   PO417270   5.053   5.054  18.962 -0.0421  0.2067  0.0111
 1440POPC   GL117271   5.070   5.008  18.497  0.0174  0.3571  0.2681
 1440POPC   GL217272   5.046   5.275  18.467 -0.3567  0.2511 -0.1074
 1440POPC   C1A17273   5.334   5.152  18.093  0.0862 -0.2737 -0.0880
 1440POPC   D2A17274   5.404   5.214  17.642 -0.2156  0.0469 -0.0815
 1440POPC   C3A17275   5.159   5.530  17.433 -0.1201  0.0789 -0.2010
 1440POPC   C4A17276   4.726   5.427  17.306  0.2797 -0.0298  0.1279
 1440POPC   C1B17277   4.616   5.393  18.245 -0.1647 -0.1457  0.0256
 1440POPC   C2B17278   4.199   5.308  18.240 -0.0374 -0.1285  0.0363
 1440POPC   C3B17279   3.842   5.476  17.958 -0.0711 -0.4661  0.3816
 1440POPC   C4B17280   3.433   5.343  17.900 -0.1276 -0.1746 -0.1871
 1441POPC   NC317281   8.716   1.693  18.305 -0.5541  0.1560  0.0783
 1441POPC   PO417282   9.049   1.578  18.483  0.0737 -0.0714 -0.3240
 1441POPC   GL117283   8.992   1.205  18.375 -0.1448  0.1061 -0.1296
 1441POPC   GL217284   8.745   1.185  18.355  0.2335  0.3313 -0.2863
 1441POPC   C1A17285   9.334   1.079  18.074 -0.1785 -0.1022 -0.3819
 1441POPC   D2A17286   9.390   0.937  17.650 -0.1382  0.2616  0.2723
 1441POPC   C3A17287   9.235   0.599  17.450  0.0909  0.2077  0.2152
 1441POPC   C4A17288   8.846   0.445  17.183  0.0748  0.0515 -0.1811
 1441POPC   C1B17289   8.827   1.037  17.928 -0.2078  0.1493  0.0723
 1441POPC   C2B17290   8.837   0.859  17.504  0.1710  0.0775  0.1529
 1441POPC   C3B17291   8.639   0.925  17.091  0.3613  0.1116 -0.3428
 1441POPC   C4B17292   8.378   0.984  16.681  0.2557  0.1888 -0.1523
 1442POPC   NC317293  12.872   4.768  18.730 -0.1214  0.0136  0.2334
 1442POPC   PO417294  12.663   4.733  18.409 -0.1373 -0.0608  0.1519
 1442POPC   GL117295  12.978   4.775  18.167 -0.2284  0.3146 -0.0754
 1442POPC   GL217296  12.780   4.784  17.869  0.1067  0.1444 -0.0594
 1442POPC   C1A17297  13.197   4.469  17.904 -0.1285 -0.3603 -0.5677
 1442POPC   D2A17298  13.500   4.448  17.572 -0.1103  0.0034 -0.1759
 1442POPC   C3A17299  13.418   4.888  17.763 -0.1128 -0.0998  0.0941
 1442POPC   C4A17300  13.526   4.973  18.192  0.2443  0.2606 -0.0605
 1442POPC   C1B17301  12.947   4.919  17.480  0.0675  0.2177 -0.2051
 1442POPC   C2B17302  13.240   5.073  17.144  0.3928 -0.0935  0.2878
 1442POPC   C3B17303  13.477   5.340  16.813  0.2278  0.0309 -0.2834
 1442POPC   C4B17304  13.603   5.308  16.399 -0.3282 -0.1360  0.1501
 1443POPC   NC317305  15.179   5.053  19.579  0.1621  0.1053  0.0352
 1443POPC   PO417306  14.931   4.792  19.443 -0.0446  0.0669  0.2838
 1443POPC   GL117307  15.044   4.838  19.081 -0.1343 -0.1447  0.0270
 1443POPC   GL217308  15.310   4.896  19.072 -0.0792 -0.0550 -0.2387
 1443POPC   C1A17309  15.073   5.052  18.658  0.0588 -0.1727 -0.2679
 1443POPC   D2A17310  15.045   4.899  18.231  0.2019 -0.0718  0.5094
 1443POPC   C3A17311  14.905   5.096  17.897 -0.3860 -0.0346  0.0392
 1443POPC   C4A17312  14.750   5.129  17.439  0.2205 -0.0214  0.1589
 1443POPC   C1B17313  15.580   4.760  18.713 -0.1161  0.0583 -0.0369
 1443POPC   C2B17314  15.662   4.663  18.234 -0.0970  0.2013  0.2757
 1443POPC   C3B17315  15.806   4.619  17.824  0.1871  0.1197  0.2391
 1443POPC   C4B17316  15.383   4.656  17.613  0.1926 -0.1153  0.3005
 1444POPC   NC317317   5.412   4.122  18.915  0.1148 -0.1209  0.1923
 1444POPC   PO417318   5.506   3.913  18.597 -0.0903 -0.2145 -0.5000
 1444POPC   GL117319   5.222   3.903  18.272  0.2456  0.0954  0.2880
 1444POPC   GL217320   5.258   3.621  18.152 -0.0880 -0.1691 -0.0414
 1444POPC   C1A17321   4.839   3.987  17.992 -0.2473 -0.1638 -0.1205
 1444POPC   D2A17322   4.388   4.105  18.146 -0.0442  0.1549 -0.1178
 1444POPC   C3A17323   4.098   4.261  17.794 -0.1387 -0.2175 -0.3313
 1444POPC   C4A17324   3.904   4.297  17.397  0.0244 -0.2134  0.3326
 1444POPC   C1B17325   4.927   3.508  17.866  0.0663  0.0387 -0.0189
 1444POPC   C2B17326   4.764   3.517  17.457 -0.2876  0.2429  0.2507
 1444POPC   C3B17327   4.780   3.269  17.024  0.0846  0.0398 -0.2568
 1444POPC   C4B17328   4.672   2.910  16.792 -0.0242 -0.0951  0.1400
 1445POPC   NC317329   8.633   5.184  14.486 -0.1417 -0.0879 -0.2461
 1445POPC   PO417330   8.457   5.089  14.821  0.0537  0.1781 -0.0913
 1445POPC   GL117331   8.055   5.164  14.800  0.0156  0.2528  0.2219
 1445POPC   GL217332   8.050   5.025  14.558 -0.1210  0.1029  0.0090
 1445POPC   C1A17333   7.584   5.019  14.869  0.1525 -0.2914  0.0017
 1445POPC   D2A17334   7.181   5.009  15.190 -0.0983  0.1818  0.1459
 1445POPC   C3A17335   6.909   4.656  15.088  0.0514 -0.0696 -0.2396
 1445POPC   C4A17336   6.485   4.649  15.017  0.1904  0.2135  0.0048
 1445POPC   C1B17337   7.931   4.634  14.724 -0.1233  0.1425 -0.2162
 1445POPC   C2B17338   7.644   4.389  14.538  0.0372  0.4826 -0.2094
 1445POPC   C3B17339   7.431   4.189  14.286 -0.0698  0.5010 -0.1947
 1445POPC   C4B17340   7.121   3.830  14.417  0.0819 -0.3222  0.3412
 1446POPC   NC317341   9.255  12.034  20.081 -0.0451 -0.2400 -0.0602
 1446POPC   PO417342   9.462  12.237  20.344 -0.2073 -0.0986  0.1336
 1446POPC   GL117343   9.656  12.501  20.100 -0.1110 -0.0299 -0.1152
 1446POPC   GL217344   9.457  12.467  19.864  0.1333 -0.3675  0.2842
 1446POPC   C1A17345   9.969  12.830  20.041 -0.3547 -0.1036  0.0404
 1446POPC   D2A17346  10.372  12.969  19.846 -0.3608  0.5323 -0.1749
 1446POPC   C3A17347  10.747  12.775  19.947 -0.2626  0.1700  0.0604
 1446POPC   C4A17348  11.119  12.955  20.190 -0.2503  0.3065 -0.2282
 1446POPC   C1B17349   9.478  12.355  19.440 -0.1421 -0.3006 -0.2119
 1446POPC   C2B17350   9.765  12.325  19.059 -0.1991  0.1789  0.2047
 1446POPC   C3B17351  10.061  12.423  18.692  0.1745  0.0763  0.2189
 1446POPC   C4B17352  10.252  12.267  18.324  0.1026 -0.0492  0.0851
 1447POPC   NC317353  10.343  31.980  19.805  0.1970 -0.0318  0.0501
 1447POPC   PO417354  10.184  31.865  20.165 -0.0487 -0.3780  0.3082
 1447POPC   GL117355  10.474  31.654  20.087  0.2212  0.1745  0.2783
 1447POPC   GL217356  10.485  31.394  19.978  0.0791 -0.0319  0.1041
 1447POPC   C1A17357  10.624  31.563  19.604  0.2680  0.2338 -0.2801
 1447POPC   D2A17358  10.987  31.566  19.263  0.0789  0.0049 -0.3709
 1447POPC   C3A17359  10.852  31.402  18.802  0.1058 -0.0249 -0.3913
 1447POPC   C4A17360  10.731  31.148  18.444 -0.0184  0.0893 -0.0994
 1447POPC   C1B17361  10.138  31.367  19.669 -0.1413 -0.0604  0.3162
 1447POPC   C2B17362  10.033  31.157  19.235  0.2330 -0.1352  0.0800
 1447POPC   C3B17363   9.830  31.149  18.858 -0.1844 -0.0579 -0.3476
 1447POPC   C4B17364   9.744  30.905  18.468  0.1507  0.0177 -0.3964
 1448POPC   NC317365  11.535   7.743  19.371  0.0007  0.2313 -0.1398
 1448POPC   PO417366  11.538   8.142  19.343  0.2394 -0.1365 -0.3015
 1448POPC   GL117367  11.803   8.372  19.117 -0.1680  0.5694 -0.3026
 1448POPC   GL217368  11.863   8.652  19.286  0.3579  0.4116 -0.0418
 1448POPC   C1A17369  12.021   8.270  18.736 -0.0351  0.2389  0.2462
 1448POPC   D2A17370  12.346   8.368  18.441  0.0020 -0.1879  0.1020
 1448POPC   C3A17371  12.513   8.731  18.259  0.0144  0.2854 -0.0814
 1448POPC   C4A17372  12.810   8.762  17.883  0.0055  0.1871  0.2821
 1448POPC   C1B17373  11.681   8.971  18.980  0.0786 -0.2089 -0.1143
 1448POPC   C2B17374  11.728   9.292  18.683  0.0928  0.2063 -0.4041
 1448POPC   C3B17375  11.661   9.681  18.395  0.0034 -0.2114 -0.1710
 1448POPC   C4B17376  11.430  10.105  18.293  0.0360  0.3126 -0.1211
 1449POPC   NC317377  14.907  14.040  20.943  0.1698 -0.5476  0.5073
 1449POPC   PO417378  15.020  13.934  20.547  0.0361 -0.1437 -0.1637
 1449POPC   GL117379  15.104  13.786  20.139  0.0177  0.0977 -0.0724
 1449POPC   GL217380  15.077  14.053  20.051 -0.3664  0.2045  0.1989
 1449POPC   C1A17381  15.098  13.345  19.927  0.1171  0.0040 -0.1279
 1449POPC   D2A17382  14.723  13.015  19.967  0.1289 -0.4744  0.0104
 1449POPC   C3A17383  14.243  12.799  19.914 -0.0858 -0.3200  0.1875
 1449POPC   C4A17384  14.113  12.484  19.579  0.0138 -0.0719  0.1854
 1449POPC   C1B17385  15.439  14.199  19.758  0.0948 -0.0896 -0.1304
 1449POPC   C2B17386  15.853  14.148  19.601 -0.2741  0.0238 -0.0136
 1449POPC   C3B17387  16.226  14.338  19.736 -0.0159  0.0874  0.2589
 1449POPC   C4B17388  16.678  14.230  19.717 -0.0835 -0.1414  0.0785
 1450POPC   NC317389  11.931   7.443  19.302 -0.3412  0.2579 -0.1937
 1450POPC   PO417390  11.736   7.413  18.986 -0.1037  0.3135  0.2638
 1450POPC   GL117391  11.997   7.595  18.774 -0.4350 -0.0883 -0.1250
 1450POPC   GL217392  12.175   7.757  18.921 -0.0504 -0.2557 -0.1461
 1450POPC   C1A17393  12.317   7.707  18.465  0.2337 -0.0534 -0.0289
 1450POPC   D2A17394  12.616   7.978  18.219 -0.1623 -0.1368 -0.0469
 1450POPC   C3A17395  12.485   8.283  17.878  0.0028 -0.2111  0.0650
 1450POPC   C4A17396  12.493   8.313  17.415  0.0744 -0.0364  0.1278
 1450POPC   C1B17397  12.499   8.080  18.766  0.0854  0.0659  0.0099
 1450POPC   C2B17398  12.860   8.283  18.541  0.1086  0.4755 -0.3000
 1450POPC   C3B17399  12.957   8.321  18.114 -0.2085 -0.0304 -0.0321
 1450POPC   C4B17400  12.959   8.208  17.648 -0.2317 -0.1980  0.1963
 1451POPC   NC317401   3.438  15.820  20.448 -0.1247 -0.0039 -0.0694
 1451POPC   PO417402   3.660  15.482  20.461  0.1311  0.1241  0.3230
 1451POPC   GL117403   3.573  15.194  20.180  0.1514  0.0509 -0.1019
 1451POPC   GL217404   3.785  15.052  20.100  0.0410  0.0048 -0.1640
 1451POPC   C1A17405   3.421  15.020  19.795 -0.2053  0.1609 -0.1473
 1451POPC   D2A17406   3.061  14.852  19.521  0.3004 -0.0301 -0.2948
 1451POPC   C3A17407   3.015  14.694  19.126 -0.1172  0.2087  0.1645
 1451POPC   C4A17408   2.699  14.595  18.821 -0.2025  0.1411  0.1897
 1451POPC   C1B17409   3.831  15.418  19.782 -0.3242 -0.2725 -0.0081
 1451POPC   C2B17410   4.035  15.773  19.605 -0.0610  0.1203 -0.1062
 1451POPC   C3B17411   3.974  15.842  19.137  0.1568 -0.0250  0.1369
 1451POPC   C4B17412   3.975  15.506  18.795  0.3500 -0.2789  0.2780
 1452POPC   NC317413   5.667   4.371  18.186  0.0761  0.0292  0.1296
 1452POPC   PO417414   5.760   3.992  18.161 -0.1057  0.5123  0.0745
 1452POPC   GL117415   5.633   3.912  17.822 -0.2428  0.0921  0.0206
 1452POPC   GL217416   5.337   4.061  17.867 -0.0124 -0.2434  0.1743
 1452POPC   C1A17417   5.441   3.511  17.650  0.1792 -0.0750 -0.0216
 1452POPC   D2A17418   5.516   3.092  17.503 -0.1243  0.1350  0.0932
 1452POPC   C3A17419   5.718   2.783  17.323 -0.2076 -0.2658 -0.0228
 1452POPC   C4A17420   5.920   2.771  16.878  0.0634  0.1295  0.0356
 1452POPC   C1B17421   5.123   3.901  17.530 -0.0989  0.3940  0.2014
 1452POPC   C2B17422   4.876   3.917  17.077 -0.3611  0.1932  0.0057
 1452POPC   C3B17423   4.986   3.616  16.698  0.0567 -0.0936  0.2514
 1452POPC   C4B17424   5.117   3.194  16.574 -0.1262 -0.1469 -0.0029
 1453POPC   NC317425  16.244  12.114  20.740 -0.0618  0.2627 -0.0062
 1453POPC   PO417426  15.941  12.352  20.679  0.2668 -0.1828 -0.0791
 1453POPC   GL117427  15.998  12.353  20.258 -0.0455 -0.2961  0.1236
 1453POPC   GL217428  16.282  12.501  20.239 -0.0785  0.0411 -0.1006
 1453POPC   C1A17429  15.999  12.563  19.849  0.0210 -0.0464 -0.0315
 1453POPC   D2A17430  16.055  12.426  19.394 -0.2803 -0.3032  0.1913
 1453POPC   C3A17431  16.033  12.764  19.040 -0.3696 -0.0560 -0.2035
 1453POPC   C4A17432  16.080  13.031  18.611  0.2066 -0.0599  0.3271
 1453POPC   C1B17433  16.452  12.158  19.938 -0.0338 -0.0682 -0.2340
 1453POPC   C2B17434  16.422  12.122  19.501 -0.1368  0.1728  0.0487
 1453POPC   C3B17435  16.262  11.927  19.078  0.2165  0.2288 -0.4324
 1453POPC   C4B17436  16.348  11.751  18.616  0.4472  0.0915 -0.2569
 1454POPC   NC317437   7.008  11.804  20.147  0.1732  0.0269 -0.1487
 1454POPC   PO417438   6.746  12.092  20.077  0.2694 -0.2217  0.1557
 1454POPC   GL117439   6.857  12.054  19.706 -0.0012  0.0981  0.2302
 1454POPC   GL217440   6.587  11.914  19.640 -0.0327  0.0707 -0.1447
 1454POPC   C1A17441   6.764  12.317  19.318 -0.0428 -0.0978  0.2539
 1454POPC   D2A17442   6.784  12.460  18.874  0.0828  0.0252 -0.2772
 1454POPC   C3A17443   7.180  12.615  18.639 -0.1324 -0.2083  0.0149
 1454POPC   C4A17444   7.522  12.854  18.497 -0.1135 -0.1083  0.2916
 1454POPC   C1B17445   6.405  11.930  19.223 -0.0626 -0.0119 -0.0110
 1454POPC   C2B17446   6.189  11.929  18.844  0.2558  0.0646 -0.0484
 1454POPC   C3B17447   5.909  11.970  18.456 -0.1132  0.3851  0.0628
 1454POPC   C4B17448   5.898  11.684  18.015  0.1447 -0.1456  0.0629
 1455POPC   NC317449   4.690  11.872  20.879  0.1338  0.0751  0.2891
 1455POPC   PO417450   4.945  11.846  20.562 -0.3346  0.0336  0.3358
 1455POPC   GL117451   4.778  11.803  20.267 -0.1270 -0.0551  0.3130
 1455POPC   GL217452   4.981  11.778  20.044 -0.0337 -0.0227 -0.0822
 1455POPC   C1A17453   4.452  11.570  19.983 -0.0434 -0.0359  0.4688
 1455POPC   D2A17454   4.385  11.242  19.706  0.0406  0.0817 -0.0333
 1455POPC   C3A17455   4.024  11.129  19.474 -0.0746  0.1807 -0.1775
 1455POPC   C4A17456   3.613  10.853  19.386  0.0182 -0.0616 -0.3539
 1455POPC   C1B17457   5.130  11.950  19.655 -0.1252  0.3827  0.0700
 1455POPC   C2B17458   5.303  12.003  19.222 -0.1006  0.2810 -0.0295
 1455POPC   C3B17459   5.057  12.183  18.848  0.0228 -0.1313  0.2915
 1455POPC   C4B17460   4.888  11.973  18.474  0.1274 -0.0237 -0.2430
 1456POPC   NC317461  14.427  12.159  20.577 -0.0420 -0.0017  0.0153
 1456POPC   PO417462  14.499  11.789  20.633 -0.0111 -0.0158  0.0472
 1456POPC   GL117463  14.729  11.769  20.271 -0.1523  0.1294 -0.3385
 1456POPC   GL217464  14.810  12.002  20.074 -0.1982  0.0965  0.1800
 1456POPC   C1A17465  15.089  11.570  20.109 -0.0412  0.1187 -0.3267
 1456POPC   D2A17466  15.380  11.347  19.867  0.0925 -0.4680  0.2203
 1456POPC   C3A17467  15.640  11.594  19.568 -0.0827 -0.2654 -0.0037
 1456POPC   C4A17468  16.051  11.592  19.395 -0.2641  0.3005  0.2389
 1456POPC   C1B17469  14.910  11.687  19.708 -0.0218 -0.0062  0.2276
 1456POPC   C2B17470  15.202  11.457  19.406 -0.0694  0.1059 -0.0922
 1456POPC   C3B17471  15.361  11.462  18.925 -0.3245 -0.1675 -0.0022
 1456POPC   C4B17472  15.058  11.290  18.596 -0.0871 -0.0436  0.0660
 1457POPC   NC317473   8.306  14.295  20.611 -0.3078 -0.1600 -0.1078
 1457POPC   PO417474   8.093  14.238  20.313  0.2294  0.2190 -0.0022
 1457POPC   GL117475   8.063  14.143  19.957 -0.1474 -0.0828 -0.1339
 1457POPC   GL217476   7.899  13.875  19.973  0.2508  0.1466  0.0705
 1457POPC   C1A17477   7.896  14.207  19.564  0.0323  0.0471 -0.0635
 1457POPC   D2A17478   7.547  14.558  19.484 -0.0285  0.3899  0.1491
 1457POPC   C3A17479   7.251  14.332  19.257 -0.0567 -0.2983  0.1176
 1457POPC   C4A17480   6.861  14.109  19.159 -0.3692 -0.0334  0.3638
 1457POPC   C1B17481   7.851  13.672  19.552 -0.0813 -0.0139 -0.1108
 1457POPC   C2B17482   8.037  13.599  19.119 -0.0106 -0.0662 -0.3480
 1457POPC   C3B17483   7.832  13.644  18.725  0.1021  0.1608  0.0530
 1457POPC   C4B17484   8.029  13.455  18.327  0.2379 -0.1702 -0.2184
 1458POPC   NC317485  10.655   5.368  12.606 -0.1200  0.1233 -0.1776
 1458POPC   PO417486  10.447   5.018  12.667  0.0524  0.1026  0.0367
 1458POPC   GL117487  10.720   4.775  12.697 -0.1286 -0.2283 -0.2547
 1458POPC   GL217488  10.952   4.976  12.832 -0.0286  0.1017 -0.0664
 1458POPC   C1A17489  10.936   4.399  12.885 -0.0064  0.0367 -0.2078
 1458POPC   D2A17490  11.365   4.290  12.801 -0.1421  0.2230  0.0040
 1458POPC   C3A17491  11.719   4.379  13.028  0.1473 -0.1884  0.0806
 1458POPC   C4A17492  11.898   4.356  13.426 -0.0799 -0.3505 -0.0669
 1458POPC   C1B17493  11.421   4.880  12.651 -0.1683 -0.1139  0.0242
 1458POPC   C2B17494  11.863   4.975  12.538 -0.2350 -0.3592  0.0346
 1458POPC   C3B17495  12.294   5.100  12.556 -0.0567  0.2059  0.0313
 1458POPC   C4B17496  12.627   4.873  12.534  0.1748  0.1921 -0.1167
 1459POPC   NC317497   1.720   0.529  20.350 -0.2133  0.0551  0.0509
 1459POPC   PO417498   1.405   0.796  20.327  0.0405  0.2191 -0.0669
 1459POPC   GL117499   1.409   0.523  20.008 -0.0974 -0.1287  0.0517
 1459POPC   GL217500   1.314   0.634  19.821 -0.1654 -0.3221  0.0413
 1459POPC   C1A17501   1.149   0.169  19.880 -0.1406 -0.0759 -0.0370
 1459POPC   D2A17502   1.106  -0.102  19.525  0.0143 -0.0812 -0.5534
 1459POPC   C3A17503   1.048  -0.070  19.048 -0.0618  0.4424 -0.1074
 1459POPC   C4A17504   1.297  -0.097  18.671  0.1009 -0.0337  0.0957
 1459POPC   C1B17505   1.175   0.772  19.403  0.1523 -0.1493 -0.4249
 1459POPC   C2B17506   1.367   1.119  19.095 -0.0546  0.0216 -0.1666
 1459POPC   C3B17507   1.578   1.188  18.660 -0.0608 -0.1749  0.0274
 1459POPC   C4B17508   2.042   1.285  18.574 -0.1931 -0.0796 -0.1380
 1460POPC   NC317509   5.359   7.439  20.026 -0.1591  0.0625 -0.1033
 1460POPC   PO417510   5.406   7.309  19.644  0.0857 -0.1248 -0.0809
 1460POPC   GL117511   5.442   7.239  19.259 -0.0976  0.1324  0.3113
 1460POPC   GL217512   5.389   7.538  19.093 -0.2449  0.4712  0.1050
 1460POPC   C1A17513   5.208   7.036  18.950 -0.0109 -0.1768 -0.2044
 1460POPC   D2A17514   4.789   6.887  18.950 -0.1104 -0.1948  0.3689
 1460POPC   C3A17515   4.444   7.092  18.778  0.3224  0.2485  0.2716
 1460POPC   C4A17516   4.481   7.456  18.467  0.1211  0.2674  0.2467
 1460POPC   C1B17517   5.288   7.699  18.666  0.2489  0.3354 -0.0924
 1460POPC   C2B17518   4.995   7.628  18.385 -0.1970  0.1190  0.1185
 1460POPC   C3B17519   4.843   7.833  17.978 -0.1676 -0.2418  0.2594
 1460POPC   C4B17520   4.768   7.981  17.534 -0.0618 -0.1313  0.1562
 1461POPC   NC317521   2.079  13.532  20.914 -0.2767 -0.2991 -0.0303
 1461POPC   PO417522   2.450  13.617  20.768  0.0567  0.0311  0.0074
 1461POPC   GL117523   2.594  13.705  20.489 -0.1533  0.0829 -0.0224
 1461POPC   GL217524   2.549  13.968  20.423  0.1196  0.1024  0.2171
 1461POPC   C1A17525   2.806  13.595  20.108  0.1087 -0.0642 -0.1821
 1461POPC   D2A17526   2.873  13.326  19.777 -0.0490  0.1778 -0.2123
 1461POPC   C3A17527   3.074  13.428  19.419  0.0541  0.0109 -0.0890
 1461POPC   C4A17528   3.475  13.385  19.149 -0.0615 -0.2794  0.0088
 1461POPC   C1B17529   2.745  14.040  19.978  0.2095  0.0177  0.1997
 1461POPC   C2B17530   2.814  13.860  19.527 -0.1123  0.3104  0.2073
 1461POPC   C3B17531   2.593  13.557  19.185 -0.3722 -0.2404  0.0424
 1461POPC   C4B17532   2.392  13.604  18.772 -0.0634 -0.2431  0.0432
 1462POPC   NC317533   6.684   4.299  17.585  0.0469  0.3967  0.4311
 1462POPC   PO417534   6.380   4.579  17.616 -0.2149 -0.2793  0.2921
 1462POPC   GL117535   6.290   4.299  17.317  0.0745  0.4131 -0.0909
 1462POPC   GL217536   6.060   4.470  17.208 -0.0747 -0.2311 -0.4740
 1462POPC   C1A17537   6.503   3.885  17.145  0.0342  0.0664  0.0470
 1462POPC   D2A17538   6.822   3.524  17.120 -0.2522 -0.1267 -0.0109
 1462POPC   C3A17539   6.833   3.343  16.746  0.1514 -0.2452  0.0823
 1462POPC   C4A17540   6.985   3.125  16.335  0.1688 -0.2231 -0.1365
 1462POPC   C1B17541   5.701   4.370  17.027 -0.3179 -0.1845 -0.1980
 1462POPC   C2B17542   5.312   4.220  16.754  0.1068  0.0547  0.0832
 1462POPC   C3B17543   4.887   4.370  16.819  0.1783 -0.0075  0.1888
 1462POPC   C4B17544   4.533   4.682  16.791  0.0713  0.3875 -0.0818
 1463POPC   NC317545  11.450   3.487  18.131 -0.2101 -0.0528 -0.1506
 1463POPC   PO417546  11.140   3.332  17.993 -0.0421  0.4255  0.1597
 1463POPC   GL117547  11.383   3.124  17.710  0.0591  0.0435 -0.1449
 1463POPC   GL217548  11.616   3.208  17.687  0.1403  0.2966  0.0237
 1463POPC   C1A17549  11.382   2.694  17.506  0.0198 -0.0297 -0.2534
 1463POPC   D2A17550  11.550   2.264  17.680  0.1694  0.1251 -0.2682
 1463POPC   C3A17551  11.882   1.989  17.647 -0.2629 -0.0978  0.1480
 1463POPC   C4A17552  12.009   1.575  17.692  0.2394 -0.0600 -0.0515
 1463POPC   C1B17553  11.461   3.085  17.237 -0.0019  0.3468 -0.0591
 1463POPC   C2B17554  11.624   2.942  16.798  0.0566  0.1486 -0.1643
 1463POPC   C3B17555  11.931   2.943  16.394  0.1004 -0.1372  0.1899
 1463POPC   C4B17556  12.374   2.826  16.307 -0.0748 -0.1098 -0.1358
 1464POPC   NC317557   2.902   0.160  19.993  0.0770 -0.0305 -0.3919
 1464POPC   PO417558   2.744  -0.079  20.263  0.1216 -0.1402 -0.2584
 1464POPC   GL117559   2.699  -0.249  19.966  0.0649  0.1807 -0.3129
 1464POPC   GL217560   2.493  -0.077  19.774  0.1163  0.1612 -0.1539
 1464POPC   C1A17561   2.351  -0.579  20.009  0.2848  0.0501 -0.0210
 1464POPC   D2A17562   2.314  -0.967  19.883  0.1986 -0.0179 -0.3030
 1464POPC   C3A17563   2.003  -0.810  19.574  0.1507  0.4929 -0.0058
 1464POPC   C4A17564   1.918  -0.498  19.228 -0.4857 -0.0314 -0.0601
 1464POPC   C1B17565   2.453  -0.500  19.535 -0.4660  0.0513 -0.2427
 1464POPC   C2B17566   2.378  -0.772  19.166  0.2974 -0.0047 -0.3249
 1464POPC   C3B17567   2.361  -1.186  18.966 -0.0539 -0.1937  0.0957
 1464POPC   C4B17568   1.997  -1.484  18.970  0.3523  0.0907  0.1979
 1465POPC   NC317569   9.059   5.198  12.264  0.3209  0.1053 -0.0170
 1465POPC   PO417570   8.922   5.200  12.643 -0.1998 -0.4788 -0.0257
 1465POPC   GL117571   8.547   5.265  12.764 -0.0751 -0.1816 -0.1091
 1465POPC   GL217572   8.322   5.093  12.753 -0.2487 -0.0545  0.0189
 1465POPC   C1A17573   8.333   5.688  12.801 -0.3038  0.2239  0.0333
 1465POPC   D2A17574   8.358   6.131  12.791 -0.1875 -0.1084 -0.0615
 1465POPC   C3A17575   7.974   6.308  12.913  0.0397 -0.0297 -0.0172
 1465POPC   C4A17576   7.586   6.500  13.064  0.2429  0.4789  0.1355
 1465POPC   C1B17577   8.264   5.376  12.450  0.0178 -0.0576 -0.0739
 1465POPC   C2B17578   8.013   5.604  12.063 -0.0788 -0.2966  0.1392
 1465POPC   C3B17579   7.630   5.342  11.899  0.3241  0.2132  0.1946
 1465POPC   C4B17580   7.198   5.328  12.070  0.0254 -0.0899 -0.1146
 1466POPC   NC317581  31.296   1.619  19.758 -0.3863  0.0786 -0.1330
 1466POPC   PO417582  31.358   1.945  19.863  0.2376 -0.1040  0.0712
 1466POPC   GL117583  31.404   2.093  19.519  0.3482 -0.4178  0.2716
 1466POPC   GL217584  31.330   2.361  19.408  0.0821  0.1835 -0.3334
 1466POPC   C1A17585  31.591   2.158  19.074  0.1057  0.0856 -0.1651
 1466POPC   D2A17586  31.929   2.394  18.906 -0.1319  0.1566  0.2016
 1466POPC   C3A17587  31.993   2.446  18.473  0.1598 -0.0624 -0.1376
 1466POPC   C4A17588  32.184   2.606  18.088  0.1884 -0.1383  0.0207
 1466POPC   C1B17589  31.569   2.745  19.204  0.0512  0.3557  0.1579
 1466POPC   C2B17590  31.802   2.890  18.847 -0.1265 -0.4257 -0.1061
 1466POPC   C3B17591  31.941   3.051  18.417  0.0231 -0.1918 -0.0787
 1466POPC   C4B17592  31.949   3.434  18.177 -0.3397 -0.1764 -0.0346
 1467POPC   NC317593  11.634   4.115  17.255  0.1415 -0.4686 -0.0736
 1467POPC   PO417594  11.362   3.888  17.020 -0.3854  0.2469  0.2997
 1467POPC   GL117595  11.594   3.991  16.770  0.2612  0.2182 -0.1219
 1467POPC   GL217596  11.867   3.840  16.888  0.0484 -0.0624  0.1143
 1467POPC   C1A17597  11.789   3.871  16.334  0.1074  0.0605 -0.2051
 1467POPC   D2A17598  11.952   3.799  15.925 -0.1079  0.0045 -0.0094
 1467POPC   C3A17599  12.392   3.693  15.681  0.1807  0.0278  0.0557
 1467POPC   C4A17600  12.780   3.547  15.481  0.1943  0.1230 -0.2811
 1467POPC   C1B17601  12.207   3.634  16.601  0.1970 -0.2363  0.0373
 1467POPC   C2B17602  12.241   3.432  16.203  0.1796 -0.3699 -0.2896
 1467POPC   C3B17603  12.523   3.262  15.985  0.0056  0.1814 -0.2740
 1467POPC   C4B17604  12.597   2.839  15.807 -0.0418  0.0105  0.0772
 1468POPC   NC317605  12.631  10.331  20.473 -0.1343 -0.0625  0.0084
 1468POPC   PO417606  12.542  10.024  20.260  0.0491 -0.2097  0.0946
 1468POPC   GL117607  12.613   9.941  19.919  0.3300  0.0300  0.1291
 1468POPC   GL217608  12.434   9.912  19.683  0.0246 -0.0459  0.1328
 1468POPC   C1A17609  12.847  10.051  19.516 -0.0204 -0.1380  0.3638
 1468POPC   D2A17610  13.128  10.229  19.258 -0.0434 -0.0461 -0.2565
 1468POPC   C3A17611  13.168  10.678  19.141 -0.2920 -0.2561  0.0658
 1468POPC   C4A17612  13.048  10.872  18.729 -0.2962  0.2197  0.1181
 1468POPC   C1B17613  12.383  10.344  19.634  0.1138  0.3969  0.2991
 1468POPC   C2B17614  12.360  10.809  19.672  0.0419  0.1045 -0.1617
 1468POPC   C3B17615  12.573  11.232  19.543 -0.1104 -0.0154 -0.0273
 1468POPC   C4B17616  12.567  11.542  19.211  0.1138  0.3235  0.0109
 1469POPC   NC317617   8.673   9.142  18.765 -0.3474  0.2849 -0.1396
 1469POPC   PO417618   8.951   9.358  18.996 -0.1342  0.0242 -0.3232
 1469POPC   GL117619   8.633   9.591  18.766 -0.2039 -0.0692  0.1156
 1469POPC   GL217620   8.744   9.663  18.506 -0.1539  0.1505  0.3330
 1469POPC   C1A17621   8.220   9.488  18.529  0.0346 -0.0983 -0.0546
 1469POPC   D2A17622   7.847   9.515  18.246  0.1213 -0.1421  0.0139
 1469POPC   C3A17623   7.388   9.333  18.252  0.3471 -0.1331  0.4365
 1469POPC   C4A17624   6.902   9.292  18.367  0.1324 -0.2431 -0.0986
 1469POPC   C1B17625   8.441   9.993  18.558 -0.1726  0.1530 -0.4060
 1469POPC   C2B17626   8.161   9.974  18.218  0.0523 -0.2352 -0.0770
 1469POPC   C3B17627   7.853   9.942  17.896 -0.2526  0.0731  0.2436
 1469POPC   C4B17628   7.601   9.947  17.447 -0.2461 -0.1546  0.0338
 1470POPC   NC317629   9.044  10.617  19.270  0.3514  0.1012 -0.2158
 1470POPC   PO417630   9.167  10.263  19.186  0.0012 -0.0045  0.2441
 1470POPC   GL117631   9.229  10.538  18.860  0.0734 -0.2270 -0.0502
 1470POPC   GL217632   9.292  10.805  18.882  0.0737  0.1062 -0.1298
 1470POPC   C1A17633   9.098  10.696  18.456  0.2781  0.1988 -0.2005
 1470POPC   D2A17634   8.845  10.603  18.099  0.2115  0.3582  0.0368
 1470POPC   C3A17635   9.125  10.360  17.808 -0.2659  0.3768 -0.2600
 1470POPC   C4A17636   9.086   9.923  17.599  0.4001 -0.1541 -0.0149
 1470POPC   C1B17637   9.554  11.076  18.602  0.0841  0.1125 -0.1563
 1470POPC   C2B17638   9.555  11.374  18.224  0.2692  0.1156  0.0238
 1470POPC   C3B17639   9.439  11.533  17.747  0.0252  0.3259 -0.0302
 1470POPC   C4B17640   9.186  11.931  17.687  0.4255 -0.0052  0.0067
 1471POPC   NC317641  10.321   8.559  18.492 -0.0431 -0.3577  0.2875
 1471POPC   PO417642   9.981   8.398  18.415  0.0637 -0.1505 -0.0050
 1471POPC   GL117643   9.852   8.554  18.045 -0.0403  0.0418  0.1032
 1471POPC   GL217644  10.256   8.627  17.989 -0.0406  0.0391  0.0739
 1471POPC   C1A17645   9.867   9.005  17.980 -0.0939  0.0605  0.0878
 1471POPC   D2A17646  10.056   9.429  18.069  0.1843  0.0101 -0.2487
 1471POPC   C3A17647  10.120   9.712  17.715  0.0396  0.3116 -0.2156
 1471POPC   C4A17648   9.899   9.897  17.328  0.0306  0.0041 -0.4127
 1471POPC   C1B17649  10.355   8.665  17.544 -0.3922 -0.0534  0.0308
 1471POPC   C2B17650  10.221   8.927  17.159  0.2468 -0.0365  0.1849
 1471POPC   C3B17651  10.351   9.108  16.764  0.1509 -0.2353  0.4807
 1471POPC   C4B17652  10.616   9.048  16.437  0.2019  0.0455  0.0993
 1472POPC   NC317653  14.636   9.369  19.945 -0.1655  0.3218 -0.1074
 1472POPC   PO417654  14.272   9.451  20.055 -0.0874 -0.0212  0.1486
 1472POPC   GL117655  14.194   9.540  19.633  0.0733 -0.0072  0.3773
 1472POPC   GL217656  13.921   9.712  19.726 -0.2521  0.0817  0.1602
 1472POPC   C1A17657  14.163   9.469  19.216  0.1635 -0.1292  0.1953
 1472POPC   D2A17658  14.126   9.352  18.780  0.1261  0.0638 -0.2555
 1472POPC   C3A17659  14.175   9.488  18.377  0.3092  0.0240 -0.1009
 1472POPC   C4A17660  14.128   9.841  18.089 -0.3631 -0.1845 -0.0527
 1472POPC   C1B17661  13.777   9.791  19.285  0.2750  0.1344 -0.1119
 1472POPC   C2B17662  13.933   9.895  18.831  0.2480  0.0786 -0.0870
 1472POPC   C3B17663  14.267   9.993  18.604  0.2649 -0.0945  0.0834
 1472POPC   C4B17664  14.563  10.034  18.250  0.3132 -0.1407 -0.1173
 1473POPC   NC317665   7.095  16.311  19.789 -0.0614  0.0411 -0.2419
 1473POPC   PO417666   6.944  15.998  19.905  0.0009  0.0902  0.0970
 1473POPC   GL117667   6.916  15.598  19.606 -0.1891  0.1780 -0.2790
 1473POPC   GL217668   6.783  15.660  19.356  0.3428  0.1791  0.1804
 1473POPC   C1A17669   7.298  15.437  19.363 -0.2202 -0.0407  0.0549
 1473POPC   D2A17670   7.477  15.138  19.153 -0.1150  0.0424 -0.1619
 1473POPC   C3A17671   7.804  15.150  18.851  0.0140  0.0068 -0.2297
 1473POPC   C4A17672   7.746  15.176  18.390 -0.0332 -0.0255 -0.1369
 1473POPC   C1B17673   6.883  15.423  19.022  0.1206  0.3107  0.0684
 1473POPC   C2B17674   6.960  15.150  18.634 -0.0193  0.1770  0.4950
 1473POPC   C3B17675   6.897  14.858  18.230  0.1256  0.1165 -0.0612
 1473POPC   C4B17676   7.021  14.687  17.792  0.2125  0.0723 -0.0445
 1474POPC   NC317677   7.617   9.972  19.633 -0.2925 -0.2207 -0.2554
 1474POPC   PO417678   7.376  10.315  19.734  0.1908  0.0470 -0.0563
 1474POPC   GL117679   7.611  10.390  19.357 -0.0484  0.1577 -0.0463
 1474POPC   GL217680   7.820  10.250  19.275 -0.2094  0.1609  0.0293
 1474POPC   C1A17681   7.447  10.706  19.081 -0.0411  0.3612  0.0866
 1474POPC   D2A17682   7.515  11.126  19.224  0.1795 -0.0354  0.2578
 1474POPC   C3A17683   7.468  11.227  18.765 -0.0044 -0.1965  0.0607
 1474POPC   C4A17684   7.387  11.199  18.325 -0.1774 -0.0108  0.0045
 1474POPC   C1B17685   7.717  10.323  18.827  0.0008  0.2314  0.2974
 1474POPC   C2B17686   7.927  10.362  18.441  0.2623 -0.2464 -0.0370
 1474POPC   C3B17687   7.813  10.724  18.188  0.0887 -0.0225  0.0189
 1474POPC   C4B17688   7.927  11.184  18.266 -0.0863 -0.2548  0.0863
 1475POPC   NC317689  16.956  11.592  20.673 -0.0529  0.1317  0.1170
 1475POPC   PO417690  16.579  11.696  20.592  0.3113  0.1139  0.1170
 1475POPC   GL117691  16.751  11.645  20.145  0.3899  0.0647  0.0828
 1475POPC   GL217692  17.030  11.656  20.036 -0.1452  0.1001 -0.1640
 1475POPC   C1A17693  16.691  11.211  19.957 -0.2029 -0.3018  0.1055
 1475POPC   D2A17694  16.251  11.003  19.959 -0.4324 -0.1498  0.4524
 1475POPC   C3A17695  16.041  11.154  19.576  0.0560  0.1451 -0.1758
 1475POPC   C4A17696  15.651  11.170  19.307 -0.0995  0.0525  0.1803
 1475POPC   C1B17697  17.106  11.523  19.634  0.0951 -0.0199 -0.1113
 1475POPC   C2B17698  17.196  11.808  19.298 -0.2885  0.0520 -0.4359
 1475POPC   C3B17699  17.227  12.080  18.880  0.0357 -0.1111  0.0485
 1475POPC   C4B17700  17.051  12.207  18.444  0.2223 -0.2629  0.0681
 1476POPC   NC317701  31.461   3.158  19.524 -0.1572  0.0953  0.0471
 1476POPC   PO417702  31.678   3.326  19.749  0.0829  0.2204 -0.2626
 1476POPC   GL117703  31.890   2.991  19.594  0.0285 -0.1656  0.1907
 1476POPC   GL217704  31.991   3.164  19.326 -0.0589 -0.0328 -0.1199
 1476POPC   C1A17705  32.050   2.596  19.391  0.3460  0.1120  0.0167
 1476POPC   D2A17706  32.446   2.407  19.224 -0.0857 -0.2184  0.0482
 1476POPC   C3A17707  32.352   2.097  18.900  0.0273  0.0692 -0.6392
 1476POPC   C4A17708  32.599   1.956  18.548 -0.5251  0.0464 -0.2878
 1476POPC   C1B17709  32.313   2.993  19.079 -0.2021 -0.2171 -0.2839
 1476POPC   C2B17710  32.478   2.842  18.677  0.2922 -0.1666 -0.2685
 1476POPC   C3B17711  32.424   2.948  18.295 -0.1131 -0.1511  0.0335
 1476POPC   C4B17712  32.196   3.068  17.869 -0.2270  0.1078  0.1955
 1477POPC   NC317713  11.319   1.177  19.031  0.1649  0.0404  0.1948
 1477POPC   PO417714  11.701   1.030  19.042  0.2047  0.1094  0.3471
 1477POPC   GL117715  11.644   0.956  18.686  0.2729  0.2995 -0.3722
 1477POPC   GL217716  11.703   0.652  18.681  0.4953 -0.0234  0.1464
 1477POPC   C1A17717  11.756   0.932  18.273 -0.1298 -0.1438  0.1541
 1477POPC   D2A17718  11.805   1.130  17.845 -0.3630 -0.1512  0.1189
 1477POPC   C3A17719  11.717   1.496  18.080 -0.2501 -0.1790  0.4191
 1477POPC   C4A17720  11.957   1.836  18.260  0.3816  0.0141 -0.0188
 1477POPC   C1B17721  11.584   0.341  18.346  0.1934  0.0612 -0.0570
 1477POPC   C2B17722  11.219   0.057  18.367  0.1996 -0.2601 -0.2196
 1477POPC   C3B17723  10.836  -0.201  18.256  0.2750  0.0039 -0.2875
 1477POPC   C4B17724  10.708  -0.291  17.806 -0.0872 -0.0245  0.1765
 1478POPC   NC317725   2.322   7.936  20.043  0.1130  0.3534  0.2473
 1478POPC   PO417726   2.441   7.576  20.081  0.1960 -0.3181 -0.0254
 1478POPC   GL117727   2.505   7.607  19.762 -0.0689 -0.2566  0.0683
 1478POPC   GL217728   2.397   7.363  19.579 -0.1035 -0.1594 -0.1360
 1478POPC   C1A17729   2.323   7.950  19.528  0.1840 -0.0625 -0.0636
 1478POPC   D2A17730   2.114   8.160  19.152  0.1439 -0.0465 -0.0420
 1478POPC   C3A17731   2.197   7.985  18.709 -0.1463  0.1562 -0.3096
 1478POPC   C4A17732   2.351   8.122  18.286 -0.3366 -0.1434  0.4700
 1478POPC   C1B17733   2.237   7.589  19.268 -0.0018  0.0543 -0.1695
 1478POPC   C2B17734   1.976   7.602  18.916  0.0942 -0.1411 -0.0118
 1478POPC   C3B17735   1.701   7.628  18.535  0.3339  0.1271 -0.1116
 1478POPC   C4B17736   1.359   7.845  18.375 -0.0802 -0.4102 -0.2874
 1479POPC   NC317737  16.533  15.809  19.859  0.1242 -0.0869  0.3312
 1479POPC   PO417738  16.687  15.549  20.113 -0.2396  0.2515  0.0069
 1479POPC   GL117739  16.825  15.313  19.798 -0.3164 -0.2730  0.1587
 1479POPC   GL217740  17.022  15.172  19.902 -0.2539  0.4898 -0.1619
 1479POPC   C1A17741  16.726  15.570  19.425  0.2195  0.0332 -0.0513
 1479POPC   D2A17742  16.763  15.781  19.022  0.1892  0.0525 -0.0341
 1479POPC   C3A17743  16.452  16.140  18.870 -0.1983 -0.1173  0.3959
 1479POPC   C4A17744  16.335  16.584  18.858  0.0621 -0.1162  0.0972
 1479POPC   C1B17745  17.229  15.348  19.517 -0.4514 -0.1995  0.1140
 1479POPC   C2B17746  17.157  15.454  19.108 -0.0402 -0.0806 -0.0804
 1479POPC   C3B17747  17.132  15.453  18.688 -0.3179  0.0768 -0.2109
 1479POPC   C4B17748  17.022  15.533  18.274  0.1196 -0.1302  0.0965
 1480POPC   NC317749   9.192   1.576  18.974  0.0233  0.0621 -0.2202
 1480POPC   PO417750   9.259   1.240  18.809 -0.0288  0.1968 -0.0844
 1480POPC   GL117751   9.277   0.881  18.576  0.7558 -0.4972 -0.0834
 1480POPC   GL217752   9.625   0.807  18.604  0.0344  0.0208 -0.1439
 1480POPC   C1A17753   8.914   0.721  18.290  0.3820  0.1141 -0.1598
 1480POPC   D2A17754   8.865   0.493  17.900  0.2941 -0.0046 -0.3441
 1480POPC   C3A17755   8.982   0.173  17.605 -0.1647  0.0437  0.2149
 1480POPC   C4A17756   8.878  -0.295  17.407  0.0175 -0.2202  0.0864
 1480POPC   C1B17757   9.357   0.480  18.736  0.1974 -0.3372 -0.0471
 1480POPC   C2B17758   9.000   0.238  18.621  0.1448  0.3216  0.2415
 1480POPC   C3B17759   8.759   0.122  18.195 -0.1390  0.0780 -0.1477
 1480POPC   C4B17760   8.753  -0.241  17.936  0.0398 -0.0778  0.3443
 1481POPC   NC317761   7.259  13.191  20.130  0.1676  0.1084  0.1059
 1481POPC   PO417762   7.506  13.353  20.351  0.1466 -0.0859 -0.2465
 1481POPC   GL117763   7.561  13.548  19.980  0.1237 -0.1722 -0.2114
 1481POPC   GL217764   7.413  13.813  20.060 -0.4414  0.3759  0.3554
 1481POPC   C1A17765   7.427  13.375  19.581  0.2132  0.2949  0.0319
 1481POPC   D2A17766   7.409  12.882  19.374 -0.2290  0.0331 -0.2611
 1481POPC   C3A17767   7.605  12.770  19.019  0.0904  0.0622  0.3054
 1481POPC   C4A17768   7.912  12.410  18.982  0.1648  0.0992 -0.0786
 1481POPC   C1B17769   7.470  13.966  19.597 -0.0702 -0.0690  0.1465
 1481POPC   C2B17770   7.498  13.839  19.121 -0.1845  0.1008 -0.1881
 1481POPC   C3B17771   7.352  13.657  18.709  0.0518 -0.1191  0.0510
 1481POPC   C4B17772   7.512  13.423  18.355 -0.0760 -0.1444  0.0315
 1482POPC   NC317773  10.178   4.558  13.433 -0.0097 -0.0724 -0.3183
 1482POPC   PO417774   9.777   4.694  13.442 -0.0702 -0.0115 -0.1655
 1482POPC   GL117775   9.718   4.292  13.408  0.0219 -0.0918 -0.1374
 1482POPC   GL217776   9.480   4.364  13.232 -0.2024 -0.1411  0.0240
 1482POPC   C1A17777  10.088   4.055  13.298  0.0060  0.0659 -0.0821
 1482POPC   D2A17778  10.396   3.693  13.421  0.1761 -0.0636 -0.0151
 1482POPC   C3A17779  10.293   3.179  13.337  0.0764 -0.0498  0.1372
 1482POPC   C4A17780  10.361   2.740  13.366  0.0743  0.2792  0.0894
 1482POPC   C1B17781   9.642   4.027  12.997 -0.1053 -0.1211 -0.0630
 1482POPC   C2B17782   9.563   3.846  12.561 -0.0334  0.1261 -0.1882
 1482POPC   C3B17783   9.666   3.432  12.516 -0.4050  0.1530  0.0723
 1482POPC   C4B17784  10.056   3.198  12.492  0.1594  0.3470 -0.0847
 1483POPC   NC317785   8.773   4.786  14.161  0.0429 -0.0802  0.0408
 1483POPC   PO417786   9.097   4.538  14.153  0.2141  0.0279  0.1192
 1483POPC   GL117787   8.932   4.460  13.751  0.3073 -0.1369 -0.1062
 1483POPC   GL217788   8.647   4.294  13.848  0.2499 -0.0229 -0.4329
 1483POPC   C1A17789   8.952   4.094  13.469 -0.1923  0.1431  0.2364
 1483POPC   D2A17790   9.096   3.677  13.336 -0.2032 -0.3103  0.4255
 1483POPC   C3A17791   9.338   3.248  13.375  0.2013 -0.2180 -0.2020
 1483POPC   C4A17792   9.415   3.108  12.968  0.0125 -0.2087  0.0341
 1483POPC   C1B17793   8.374   3.942  13.989 -0.2857 -0.3758  0.0008
 1483POPC   C2B17794   8.039   3.683  14.276 -0.3501 -0.0076 -0.2983
 1483POPC   C3B17795   7.879   3.263  14.480 -0.2452  0.0538  0.1425
 1483POPC   C4B17796   7.510   2.965  14.523 -0.1981 -0.1287  0.3596
 1484POPC   NC317797   9.029   4.166  15.445  0.0454  0.0447 -0.0412
 1484POPC   PO417798   8.911   3.830  15.617 -0.0343 -0.0276  0.1576
 1484POPC   GL117799   8.742   3.725  15.221 -0.4203  0.2372  0.1368
 1484POPC   GL217800   8.449   3.798  15.177  0.1082 -0.2518 -0.2361
 1484POPC   C1A17801   8.734   3.687  14.765  0.0170 -0.2252 -0.0083
 1484POPC   D2A17802   8.624   3.502  14.363  0.2171  0.0242  0.0853
 1484POPC   C3A17803   8.730   3.036  14.118  0.1187  0.0445 -0.0808
 1484POPC   C4A17804   8.732   2.778  13.780  0.0427 -0.3069  0.1149
 1484POPC   C1B17805   8.258   4.087  14.793  0.2304  0.0626  0.2344
 1484POPC   C2B17806   8.093   4.249  14.394  0.5016 -0.1574  0.0398
 1484POPC   C3B17807   7.850   4.099  14.040  0.0914 -0.3864  0.1019
 1484POPC   C4B17808   7.666   4.010  13.590  0.0539  0.2825 -0.1014
 1485POPC   NC317809  31.679   9.632  20.314  0.1877  0.1623  0.3476
 1485POPC   PO417810  32.043   9.553  20.161 -0.1972 -0.0731 -0.1542
 1485POPC   GL117811  32.152   9.592  19.750  0.2111 -0.1825 -0.1349
 1485POPC   GL217812  32.423   9.642  19.631 -0.2222 -0.1918  0.2698
 1485POPC   C1A17813  31.975   9.918  19.429  0.0865 -0.2329 -0.0883
 1485POPC   D2A17814  31.905  10.002  18.969  0.2436 -0.2657 -0.1166
 1485POPC   C3A17815  31.646   9.896  18.618  0.0645 -0.1631  0.2400
 1485POPC   C4A17816  31.527   9.681  18.154  0.0988 -0.0705  0.1630
 1485POPC   C1B17817  32.346   9.666  19.188  0.0940  0.0756 -0.2368
 1485POPC   C2B17818  32.281   9.760  18.696  0.0530  0.1448 -0.0010
 1485POPC   C3B17819  32.390   9.958  18.315 -0.0307  0.1302 -0.2209
 1485POPC   C4B17820  32.352  10.271  17.974 -0.0541  0.0307 -0.2510
 1486POPC   NC317821   8.117   1.154  19.127 -0.2198 -0.0992  0.0936
 1486POPC   PO417822   8.491   1.084  19.224  0.1340 -0.0013 -0.0713
 1486POPC   GL117823   8.479   0.888  18.823  0.1572  0.4313 -0.2088
 1486POPC   GL217824   8.172   0.761  18.799  0.0853  0.0356 -0.0256
 1486POPC   C1A17825   8.611   0.466  18.659  0.1187  0.1668 -0.0431
 1486POPC   D2A17826   8.439   0.027  18.586  0.3036  0.0203  0.0549
 1486POPC   C3A17827   8.307  -0.076  18.154  0.0895  0.0476 -0.2017
 1486POPC   C4A17828   8.231  -0.251  17.781 -0.1482  0.1370 -0.1608
 1486POPC   C1B17829   8.187   0.434  18.405  0.0542  0.2375  0.0059
 1486POPC   C2B17830   7.963   0.306  18.028  0.0496 -0.2850 -0.0859
 1486POPC   C3B17831   7.930   0.378  17.568  0.3651  0.0892 -0.3014
 1486POPC   C4B17832   8.353   0.610  17.453  0.1922 -0.0939  0.0562
 1487POPC   NC317833  13.227   4.588  19.422  0.2536 -0.0887 -0.0915
 1487POPC   PO417834  13.594   4.625  19.288  0.2296  0.2378  0.0350
 1487POPC   GL117835  13.962   4.557  19.060 -0.2098 -0.1201 -0.0785
 1487POPC   GL217836  13.981   4.285  18.961 -0.0520  0.1899  0.2664
 1487POPC   C1A17837  14.156   4.754  18.729  0.0755  0.4343  0.1447
 1487POPC   D2A17838  14.132   4.823  18.249 -0.1475 -0.1297  0.0205
 1487POPC   C3A17839  14.252   5.254  18.121  0.2959  0.0377 -0.2327
 1487POPC   C4A17840  14.560   5.500  17.952  0.3605 -0.5433 -0.0250
 1487POPC   C1B17841  14.189   4.239  18.549 -0.0772  0.0158  0.1981
 1487POPC   C2B17842  14.284   4.334  18.161  0.1566  0.0549 -0.3029
 1487POPC   C3B17843  14.295   4.478  17.694 -0.1340 -0.3279 -0.1062
 1487POPC   C4B17844  14.234   4.751  17.336 -0.1389 -0.0689  0.1216
 1488POPC   NC317845   9.920   3.433  16.500  0.0718 -0.0552 -0.0051
 1488POPC   PO417846  10.252   3.444  16.295  0.3638  0.0334 -0.1660
 1488POPC   GL117847  10.340   3.047  16.090 -0.0592 -0.1761 -0.0994
 1488POPC   GL217848  10.177   3.072  15.820 -0.1534  0.0971 -0.2755
 1488POPC   C1A17849  10.549   2.649  15.941 -0.0980  0.3523 -0.2071
 1488POPC   D2A17850  10.830   2.236  15.840 -0.0115  0.0505  0.1972
 1488POPC   C3A17851  11.299   2.326  15.910 -0.0705 -0.0034  0.1119
 1488POPC   C4A17852  11.714   2.206  16.051 -0.2588 -0.0260  0.0642
 1488POPC   C1B17853  10.189   2.771  15.529 -0.1096  0.4840 -0.0289
 1488POPC   C2B17854  10.541   2.558  15.370 -0.0501 -0.0527 -0.2228
 1488POPC   C3B17855  10.649   2.323  14.995 -0.1298  0.0813 -0.0110
 1488POPC   C4B17856  10.377   2.290  14.652  0.1307  0.3143  0.2417
 1489POPC   NC317857   8.540   5.399  13.723 -0.0708  0.0864  0.1072
 1489POPC   PO417858   8.806   5.288  14.013 -0.0743  0.0818  0.4200
 1489POPC   GL117859   8.422   5.091  14.092 -0.3438  0.3551  0.3089
 1489POPC   GL217860   8.426   4.876  13.823  0.2767 -0.4286  0.0395
 1489POPC   C1A17861   7.978   5.027  13.918  0.1326 -0.0232 -0.1782
 1489POPC   D2A17862   7.560   5.038  13.710  0.0963 -0.1475 -0.2982
 1489POPC   C3A17863   7.156   4.828  13.781 -0.0193  0.3879  0.0292
 1489POPC   C4A17864   6.701   4.819  13.728 -0.0977  0.1066  0.0963
 1489POPC   C1B17865   8.226   4.554  13.986  0.4421  0.3489 -0.2140
 1489POPC   C2B17866   7.760   4.657  14.158  0.0996 -0.1447  0.1988
 1489POPC   C3B17867   7.333   4.683  14.348  0.0203 -0.0904 -0.4178
 1489POPC   C4B17868   7.068   4.901  14.632 -0.3380 -0.1976 -0.1276
 1490POPC   NC317869   2.504  15.417  20.579  0.2645  0.0707 -0.0097
 1490POPC   PO417870   2.857  15.422  20.695 -0.0173  0.0721 -0.0094
 1490POPC   GL117871   2.850  15.416  20.320 -0.5669 -0.1175  0.1773
 1490POPC   GL217872   3.166  15.374  20.281  0.2542 -0.0082 -0.0514
 1490POPC   C1A17873   2.877  15.690  19.986  0.2767 -0.1715  0.2252
 1490POPC   D2A17874   2.770  15.673  19.522  0.0792  0.2788 -0.6790
 1490POPC   C3A17875   2.431  15.531  19.208 -0.0396 -0.2926  0.3187
 1490POPC   C4A17876   2.170  15.630  18.816 -0.0371  0.0221  0.1543
 1490POPC   C1B17877   3.389  15.607  19.903  0.0192  0.2787 -0.0364
 1490POPC   C2B17878   3.584  15.730  19.458 -0.0054  0.0598  0.3082
 1490POPC   C3B17879   3.447  15.603  19.019 -0.4389 -0.1483 -0.0571
 1490POPC   C4B17880   3.515  15.575  18.566  0.0161  0.0375 -0.3407
 1491POPC   NC317881   9.579   6.762  15.395 -0.0728 -0.1527 -0.0029
 1491POPC   PO417882   9.174   6.753  15.458 -0.0382 -0.1578  0.1685
 1491POPC   GL117883   9.174   7.122  15.277  0.1704 -0.0209 -0.0678
 1491POPC   GL217884   9.377   7.243  15.467  0.0634 -0.2707 -0.0482
 1491POPC   C1A17885   9.031   7.592  15.265  0.0588 -0.1537 -0.1122
 1491POPC   D2A17886   8.842   7.940  15.010 -0.1565  0.1386  0.1024
 1491POPC   C3A17887   9.072   8.366  15.121  0.0935  0.1321  0.0459
 1491POPC   C4A17888   9.166   8.576  15.507 -0.1444  0.2916  0.0962
 1491POPC   C1B17889   9.604   7.633  15.482 -0.1617  0.3452  0.0665
 1491POPC   C2B17890   9.832   7.986  15.273  0.3574  0.2181  0.1852
 1491POPC   C3B17891   9.809   8.153  14.835  0.0821  0.2762 -0.0001
 1491POPC   C4B17892   9.842   8.238  14.409 -0.2929 -0.1001 -0.1066
 1492POPC   NC317893  13.898   1.237  20.069 -0.0297  0.1874  0.3295
 1492POPC   PO417894  13.559   1.041  20.038 -0.1290  0.3519  0.0658
 1492POPC   GL117895  13.395   0.920  19.575 -0.0783  0.3131  0.5308
 1492POPC   GL217896  13.611   0.711  19.435  0.0294  0.0548  0.3182
 1492POPC   C1A17897  13.471   1.161  19.176  0.3890  0.0408 -0.1906
 1492POPC   D2A17898  13.770   1.288  18.891 -0.0663  0.0712 -0.0053
 1492POPC   C3A17899  13.677   1.456  18.441  0.0297 -0.0600 -0.0986
 1492POPC   C4A17900  13.904   1.368  18.038  0.4960 -0.0295 -0.0429
 1492POPC   C1B17901  13.316   0.701  19.057  0.0528 -0.1738  0.1059
 1492POPC   C2B17902  13.254   1.066  18.751  0.1057 -0.0098  0.3017
 1492POPC   C3B17903  13.347   1.101  18.299  0.0874  0.0201  0.1836
 1492POPC   C4B17904  13.487   1.129  17.855 -0.1260 -0.0164  0.1105
 1493POPC   NC317905   7.402   3.813  16.943  0.0989  0.0552  0.2245
 1493POPC   PO417906   7.520   4.193  16.821 -0.1243  0.3769 -0.0446
 1493POPC   GL117907   7.336   4.074  16.498  0.1186 -0.3587 -0.1969
 1493POPC   GL217908   7.443   4.172  16.190 -0.0399  0.1817 -0.1141
 1493POPC   C1A17909   7.186   3.710  16.293  0.0907  0.0387 -0.0627
 1493POPC   D2A17910   7.159   3.508  15.869  0.0826  0.3189 -0.0220
 1493POPC   C3A17911   6.804   3.239  15.872  0.0148  0.2398  0.3164
 1493POPC   C4A17912   6.356   3.171  15.785  0.0634 -0.0293 -0.1431
 1493POPC   C1B17913   7.150   4.013  15.837  0.1886  0.1623  0.1860
 1493POPC   C2B17914   6.971   3.761  15.529 -0.0305 -0.4773 -0.0848
 1493POPC   C3B17915   6.619   3.559  15.370 -0.2422  0.0087 -0.0144
 1493POPC   C4B17916   6.183   3.409  15.359  0.3284  0.2827  0.1515
 1494POPC   NC317917  10.664   4.584  14.913  0.1913  0.1377  0.1256
 1494POPC   PO417918  10.695   4.906  14.688 -0.0299 -0.0225 -0.0692
 1494POPC   GL117919  11.046   4.798  14.599  0.3985 -0.0893 -0.0585
 1494POPC   GL217920  11.180   4.828  14.877  0.0426  0.0364  0.1696
 1494POPC   C1A17921  11.223   4.371  14.618  0.0125 -0.2423 -0.1171
 1494POPC   D2A17922  11.351   3.959  14.450  0.0707  0.2952 -0.1887
 1494POPC   C3A17923  11.727   3.721  14.405 -0.1425  0.3308 -0.3767
 1494POPC   C4A17924  11.781   3.259  14.289  0.2613 -0.1646  0.1436
 1494POPC   C1B17925  11.562   4.792  14.729  0.0050 -0.1907  0.3692
 1494POPC   C2B17926  11.691   4.696  14.347  0.0246 -0.0706  0.1347
 1494POPC   C3B17927  11.775   4.506  13.958  0.1696 -0.4425  0.0194
 1494POPC   C4B17928  11.679   4.794  13.590  0.2211  0.0912 -0.1354
 1495POPC   NC317929  13.987   5.611  19.356  0.2565 -0.0516  0.1560
 1495POPC   PO417930  14.107   5.450  19.038  0.1107  0.1878  0.3102
 1495POPC   GL117931  14.377   5.389  18.717  0.0121 -0.4115 -0.2665
 1495POPC   GL217932  14.418   5.143  18.767 -0.1766 -0.0904 -0.4514
 1495POPC   C1A17933  14.510   5.742  18.436  0.1764 -0.1245 -0.1096
 1495POPC   D2A17934  14.895   5.941  18.257  0.5052  0.0589  0.0110
 1495POPC   C3A17935  15.020   5.925  17.801  0.0436  0.0091 -0.2194
 1495POPC   C4A17936  15.060   5.538  17.559  0.2014 -0.1840 -0.0489
 1495POPC   C1B17937  14.564   4.935  18.414  0.0507  0.1987 -0.0143
 1495POPC   C2B17938  14.687   4.624  18.061  0.3516 -0.1904 -0.0150
 1495POPC   C3B17939  14.836   4.671  17.624  0.1933 -0.0404 -0.0258
 1495POPC   C4B17940  14.695   4.611  17.163 -0.2594 -0.0197 -0.0901
 1496POPC   NC317941   7.452   4.530  16.494 -0.1661  0.3411 -0.0833
 1496POPC   PO417942   7.676   4.642  16.236  0.0452  0.1628  0.0613
 1496POPC   GL117943   7.395   4.767  16.115 -0.1288 -0.0455  0.0856
 1496POPC   GL217944   7.159   4.625  16.061 -0.0941  0.0233  0.1696
 1496POPC   C1A17945   7.126   5.079  15.886 -0.4003  0.0873  0.0259
 1496POPC   D2A17946   6.972   5.490  15.738 -0.0061  0.0649 -0.0235
 1496POPC   C3A17947   6.857   5.393  15.322 -0.0318  0.0636 -0.3865
 1496POPC   C4A17948   6.604   5.170  14.997  0.1621 -0.1254 -0.2889
 1496POPC   C1B17949   6.662   4.687  15.921  0.1208  0.2489 -0.0438
 1496POPC   C2B17950   6.190   4.589  15.844 -0.2298 -0.0569 -0.0731
 1496POPC   C3B17951   5.892   4.864  16.108  0.2195  0.0190 -0.1512
 1496POPC   C4B17952   5.459   5.125  16.094  0.0166  0.0934  0.0130
 1497POPC   NC317953  15.352   0.280  20.177 -0.2012  0.1002  0.0077
 1497POPC   PO417954  15.006   0.475  20.163 -0.5322 -0.0582 -0.1672
 1497POPC   GL117955  15.174   0.567  19.884 -0.0326 -0.0915 -0.2769
 1497POPC   GL217956  15.081   0.810  19.710 -0.1598  0.0478  0.1174
 1497POPC   C1A17957  15.368   0.507  19.451 -0.0715  0.0143 -0.2230
 1497POPC   D2A17958  15.331   0.642  19.005  0.2554  0.0611 -0.0129
 1497POPC   C3A17959  15.275   0.420  18.612 -0.1543 -0.0228  0.2034
 1497POPC   C4A17960  15.236   0.462  18.146  0.1555 -0.2313  0.0811
 1497POPC   C1B17961  14.927   0.854  19.273  0.0159  0.0083 -0.0146
 1497POPC   C2B17962  14.950   0.922  18.783 -0.0362  0.0271  0.3859
 1497POPC   C3B17963  15.028   0.906  18.343 -0.0966  0.1917  0.4457
 1497POPC   C4B17964  14.711   0.913  18.026 -0.0303  0.2910 -0.0939
 1498POPC   NC317965  32.338  13.639  20.704 -0.3524 -0.1338  0.0024
 1498POPC   PO417966  32.415  13.974  20.495 -0.0751 -0.0986  0.0991
 1498POPC   GL117967  32.415  14.142  20.168  0.1528 -0.1309 -0.4937
 1498POPC   GL217968  32.724  14.308  20.228  0.2387 -0.3190  0.0996
 1498POPC   C1A17969  32.304  14.021  19.720 -0.1518  0.0731  0.0987
 1498POPC   D2A17970  32.250  14.022  19.248 -0.0602  0.0715  0.0971
 1498POPC   C3A17971  32.300  14.313  18.878 -0.2284 -0.0033 -0.0006
 1498POPC   C4A17972  32.370  14.183  18.443 -0.0348 -0.0293  0.1147
 1498POPC   C1B17973  32.731  14.398  19.754  0.1487  0.4012  0.0525
 1498POPC   C2B17974  32.854  14.786  19.551 -0.1529 -0.1459  0.1231
 1498POPC   C3B17975  32.719  15.132  19.152 -0.4407  0.2638 -0.1991
 1498POPC   C4B17976  32.725  15.279  18.713 -0.1006 -0.1363  0.4068
 1499POPC   NC317977   9.861  13.944  20.243 -0.2139  0.1305 -0.0376
 1499POPC   PO417978  10.113  13.980  20.591  0.2826  0.1369  0.0639
 1499POPC   GL117979  10.332  14.039  20.169  0.1724 -0.4737  0.0394
 1499POPC   GL217980  10.372  13.790  20.206  0.0650  0.3188 -0.0008
 1499POPC   C1A17981  10.519  14.080  19.664  0.1510 -0.1079 -0.2340
 1499POPC   D2A17982  10.448  13.840  19.309 -0.5409 -0.1027 -0.1199
 1499POPC   C3A17983  10.730  13.610  19.078  0.0942  0.2576 -0.0658
 1499POPC   C4A17984  10.931  13.410  18.710  0.0959 -0.0828  0.0797
 1499POPC   C1B17985  10.267  13.616  19.787 -0.1944  0.0418 -0.0237
 1499POPC   C2B17986  10.447  13.320  19.524 -0.0456  0.0135  0.0943
 1499POPC   C3B17987  10.454  13.231  19.080  0.1437  0.2852 -0.1959
 1499POPC   C4B17988  10.610  13.030  18.689  0.1398 -0.2725  0.2235
 1500POPC   NC317989  12.244   2.114  19.054 -0.0650 -0.3198  0.3329
 1500POPC   PO417990  12.448   2.203  18.721  0.0517 -0.2477 -0.0482
 1500POPC   GL117991  12.582   2.035  18.415 -0.2480 -0.2349  0.2287
 1500POPC   GL217992  12.871   2.027  18.550 -0.4508  0.1360  0.0453
 1500POPC   C1A17993  12.542   1.561  18.214  0.0483 -0.2582 -0.1403
 1500POPC   D2A17994  12.557   1.432  17.763  0.2202 -0.3202 -0.2778
 1500POPC   C3A17995  12.286   1.090  17.554  0.0109 -0.0119  0.1447
 1500POPC   C4A17996  11.862   0.921  17.414  0.0718  0.0316 -0.0414
 1500POPC   C1B17997  12.867   1.922  18.134 -0.0088 -0.3532  0.0692
 1500POPC   C2B17998  12.965   1.764  17.726  0.3497  0.0803 -0.0954
 1500POPC   C3B17999  12.795   1.555  17.327 -0.2217  0.0635  0.2316
 1500POPC   C4B18000  12.931   1.606  16.885  0.0615 -0.0416 -0.1866
 1501POPC   NC318001   4.221   4.520  18.984  0.0811 -0.1720 -0.2520
 1501POPC   PO418002   4.565   4.396  18.820 -0.0239 -0.1715  0.0479
 1501POPC   GL118003   4.333   4.444  18.481 -0.0644 -0.1372 -0.2690
 1501POPC   GL218004   4.118   4.683  18.538  0.0371 -0.2647 -0.2351
 1501POPC   C1A18005   3.931   4.270  18.347 -0.1260 -0.1682  0.2221
 1501POPC   D2A18006   3.483   4.078  18.157  0.0601  0.0532 -0.0821
 1501POPC   C3A18007   3.270   4.107  17.777 -0.4220 -0.2208 -0.0902
 1501POPC   C4A18008   3.293   4.226  17.319  0.1757  0.0105  0.2670
 1501POPC   C1B18009   4.327   4.826  18.158  0.1246  0.0404 -0.0492
 1501POPC   C2B18010   4.275   5.081  17.834 -0.1788  0.3584  0.4251
 1501POPC   C3B18011   4.128   5.370  17.540 -0.1885 -0.0592 -0.3329
 1501POPC   C4B18012   3.812   5.622  17.313 -0.0104  0.1099  0.4005
 1502POPC   NC318013   2.514  14.469  20.576 -0.0581 -0.2111 -0.3023
 1502POPC   PO418014   2.762  14.210  20.811  0.2984  0.3335  0.0487
 1502POPC   GL118015   2.985  14.287  20.567 -0.1388 -0.2519  0.2970
 1502POPC   GL218016   3.018  14.075  20.407 -0.2111 -0.3283  0.0491
 1502POPC   C1A18017   2.907  14.554  20.241 -0.0320 -0.1888  0.1114
 1502POPC   D2A18018   2.721  14.587  19.814  0.1743  0.1442 -0.0108
 1502POPC   C3A18019   2.976  14.299  19.487  0.3200 -0.1128  0.0523
 1502POPC   C4A18020   3.312  14.226  19.196 -0.2298  0.2658  0.4569
 1502POPC   C1B18021   3.346  14.185  20.127  0.4525  0.0553  0.0563
 1502POPC   C2B18022   3.371  14.491  19.767  0.1524  0.1809  0.1289
 1502POPC   C3B18023   3.518  14.657  19.377 -0.0644  0.1035 -0.2600
 1502POPC   C4B18024   3.803  14.845  19.055  0.1248  0.3982 -0.1271
 1503POPC   NC318025   1.190  12.413  20.722  0.1516  0.2538 -0.1266
 1503POPC   PO418026   1.485  12.540  20.919  0.1904  0.0123  0.4071
 1503POPC   GL118027   1.649  12.336  20.613  0.3527 -0.3546 -0.0143
 1503POPC   GL218028   1.562  12.439  20.410 -0.0056 -0.3296 -0.1616
 1503POPC   C1A18029   2.082  12.490  20.539 -0.0067  0.3677  0.1055
 1503POPC   D2A18030   2.501  12.516  20.432  0.3320  0.2498  0.1814
 1503POPC   C3A18031   2.739  12.300  20.140  0.2822 -0.1447 -0.0887
 1503POPC   C4A18032   3.042  12.050  19.934  0.0754 -0.3194 -0.0033
 1503POPC   C1B18033   1.826  12.535  20.084 -0.1558 -0.1939  0.2885
 1503POPC   C2B18034   2.009  12.421  19.689  0.1196 -0.1105 -0.1187
 1503POPC   C3B18035   1.935  12.498  19.254  0.1570  0.0081  0.0774
 1503POPC   C4B18036   1.717  12.398  18.842  0.0215  0.1511  0.0299
 1504POPC   NC318037  10.377   7.958  18.376 -0.1520 -0.1669 -0.0705
 1504POPC   PO418038  10.659   7.672  18.367 -0.3476  0.1650 -0.2052
 1504POPC   GL118039  10.796   8.025  18.219 -0.3631 -0.1076 -0.1889
 1504POPC   GL218040  11.115   8.036  18.294  0.1853 -0.0386 -0.3964
 1504POPC   C1A18041  10.666   8.342  17.944  0.0478  0.2575 -0.0527
 1504POPC   D2A18042  10.775   8.745  17.836  0.0732  0.1557  0.1221
 1504POPC   C3A18043  10.695   9.023  17.454  0.0993  0.0139 -0.1864
 1504POPC   C4A18044  10.535   9.366  17.167  0.1224  0.2595 -0.0603
 1504POPC   C1B18045  11.493   8.193  18.011 -0.0672  0.1963  0.3112
 1504POPC   C2B18046  11.790   8.349  17.681 -0.0797  0.3885  0.0109
 1504POPC   C3B18047  11.676   8.692  17.374  0.1350 -0.2808  0.0876
 1504POPC   C4B18048  11.735   9.098  17.135 -0.0670 -0.0275  0.0861
 1505POPC   NC318049   9.742   3.826  15.177  0.2441  0.6210 -0.2070
 1505POPC   PO418050   9.439   3.867  15.425 -0.0074 -0.1890  0.1889
 1505POPC   GL118051   9.503   3.505  15.393  0.0410 -0.1818 -0.1223
 1505POPC   GL218052   9.396   3.381  15.660  0.0384  0.0259  0.0056
 1505POPC   C1A18053   9.691   3.305  14.992 -0.1122 -0.0155  0.1651
 1505POPC   D2A18054   9.549   2.886  14.796  0.2083 -0.1946 -0.0940
 1505POPC   C3A18055   9.175   2.674  14.951 -0.1601 -0.5663 -0.2179
 1505POPC   C4A18056   9.040   2.523  15.350 -0.0321 -0.1822  0.2454
 1505POPC   C1B18057   9.587   3.017  15.388  0.0077  0.2433 -0.1292
 1505POPC   C2B18058   9.629   2.603  15.260  0.0458 -0.2092 -0.0680
 1505POPC   C3B18059   9.502   2.316  14.883  0.0042  0.1417  0.1289
 1505POPC   C4B18060   9.406   1.913  14.823 -0.0052  0.2201 -0.4235
 1506POPC   NC318061  13.961   9.093  19.917  0.1121 -0.2588 -0.0890
 1506POPC   PO418062  13.586   9.040  20.081  0.1419 -0.3041 -0.0342
 1506POPC   GL118063  13.562   9.111  19.711  0.1279  0.4045 -0.2306
 1506POPC   GL218064  13.517   9.393  19.688 -0.0921  0.0794 -0.1975
 1506POPC   C1A18065  13.536   8.837  19.280  0.1360 -0.2312 -0.2247
 1506POPC   D2A18066  13.865   8.826  18.929  0.1910  0.5079 -0.1216
 1506POPC   C3A18067  13.715   9.075  18.555 -0.3209  0.4633 -0.2308
 1506POPC   C4A18068  13.721   9.372  18.255 -0.2265 -0.1237  0.1693
 1506POPC   C1B18069  13.716   9.310  19.310 -0.1873  0.1631 -0.1698
 1506POPC   C2B18070  13.712   9.443  18.928  0.1877  0.0014 -0.1675
 1506POPC   C3B18071  13.579   9.686  18.596  0.2491 -0.0954  0.1436
 1506POPC   C4B18072  13.587   9.925  18.237  0.0240  0.0448 -0.1812
 1507POPC   NC318073  11.450  12.948  20.549  0.2513 -0.0276  0.2762
 1507POPC   PO418074  11.510  12.849  20.913  0.1282  0.2945  0.3122
 1507POPC   GL118075  11.602  12.487  20.576 -0.2903  0.2251 -0.2783
 1507POPC   GL218076  11.352  12.477  20.424  0.0088  0.1066 -0.1735
 1507POPC   C1A18077  11.899  12.513  20.196 -0.0214  0.2488 -0.1765
 1507POPC   D2A18078  12.347  12.503  20.064 -0.0463 -0.2998 -0.0505
 1507POPC   C3A18079  12.352  12.539  19.673 -0.0823  0.1988 -0.0772
 1507POPC   C4A18080  12.158  12.815  19.347  0.1319  0.2975 -0.2959
 1507POPC   C1B18081  11.284  12.521  19.994  0.1515 -0.2052  0.1391
 1507POPC   C2B18082  11.176  12.721  19.607  0.2462  0.3647 -0.2269
 1507POPC   C3B18083  11.418  12.947  19.328 -0.0379  0.0536 -0.0073
 1507POPC   C4B18084  11.811  13.161  19.215  0.1897  0.1816 -0.2358
 1508POPC   NC318085  11.612   6.616  18.170 -0.2465  0.1640  0.1607
 1508POPC   PO418086  11.236   6.786  18.097 -0.1250  0.3281 -0.0842
 1508POPC   GL118087  11.440   7.108  17.881  0.4066 -0.3973 -0.1020
 1508POPC   GL218088  11.661   7.112  18.109  0.1306 -0.0865 -0.1100
 1508POPC   C1A18089  11.449   7.453  17.552 -0.0930 -0.1531  0.0094
 1508POPC   D2A18090  11.562   7.697  17.127  0.2848 -0.3877 -0.0074
 1508POPC   C3A18091  11.942   7.834  16.943  0.1062  0.6137  0.0041
 1508POPC   C4A18092  12.279   7.565  16.744  0.0300  0.2502 -0.2142
 1508POPC   C1B18093  11.856   7.311  17.727  0.2295 -0.0121  0.1915
 1508POPC   C2B18094  12.171   7.337  17.433  0.0328 -0.0067  0.2210
 1508POPC   C3B18095  12.414   7.188  17.116  0.3043 -0.2143  0.0150
 1508POPC   C4B18096  12.881   7.120  17.082 -0.0384  0.1414 -0.1145
 1509POPC   NC318097  12.269   8.239  19.221 -0.1891  0.0492  0.1726
 1509POPC   PO418098  12.444   8.303  19.543 -0.2202 -0.0430 -0.3325
 1509POPC   GL118099  12.467   8.651  19.248  0.0263 -0.3889 -0.0080
 1509POPC   GL218100  12.741   8.497  19.178  0.1180  0.0823  0.0026
 1509POPC   C1A18101  12.191   8.783  18.876 -0.1545  0.1066 -0.1431
 1509POPC   D2A18102  12.032   8.981  18.449  0.0684  0.3752  0.1194
 1509POPC   C3A18103  12.221   9.360  18.216 -0.1623 -0.0864 -0.1833
 1509POPC   C4A18104  12.187   9.834  18.108 -0.0266 -0.0641 -0.0172
 1509POPC   C1B18105  12.640   8.686  18.743 -0.1657 -0.1784  0.0202
 1509POPC   C2B18106  12.751   9.085  18.494 -0.1823 -0.5045  0.3531
 1509POPC   C3B18107  12.698   9.180  18.041 -0.1824 -0.0598 -0.1834
 1509POPC   C4B18108  12.502   9.460  17.709  0.0642  0.0377  0.1271
 1510POPC   NC318109  11.208   3.504  17.368 -0.0404 -0.3391 -0.3543
 1510POPC   PO418110  11.561   3.692  17.486  0.0550 -0.0464  0.4250
 1510POPC   GL118111  11.697   3.458  17.177 -0.1193  0.1430 -0.3910
 1510POPC   GL218112  11.583   3.450  16.941 -0.1942  0.1294  0.0176
 1510POPC   C1A18113  12.012   3.221  17.360  0.0351  0.0266  0.0902
 1510POPC   D2A18114  12.313   2.935  17.525  0.2148  0.0371  0.0277
 1510POPC   C3A18115  12.729   2.828  17.417  0.4469 -0.1878 -0.1884
 1510POPC   C4A18116  13.092   2.932  17.184  0.2290 -0.0186  0.0089
 1510POPC   C1B18117  11.711   3.368  16.432 -0.0085 -0.0031  0.1741
 1510POPC   C2B18118  11.737   3.180  16.002  0.1590 -0.0261 -0.2546
 1510POPC   C3B18119  12.018   3.339  15.616  0.0465 -0.3511  0.2608
 1510POPC   C4B18120  12.397   3.222  15.470 -0.0626 -0.3158  0.0470
 1511POPC   NC318121  32.527  10.462  20.473 -0.1700  0.0875  0.2481
 1511POPC   PO418122  32.622  10.853  20.442 -0.0567  0.2746 -0.3415
 1511POPC   GL118123  32.779  10.918  20.115 -0.0725  0.1585 -0.0867
 1511POPC   GL218124  32.800  11.192  20.075  0.0434 -0.0236 -0.0926
 1511POPC   C1A18125  32.650  10.842  19.679 -0.1803 -0.0525  0.1043
 1511POPC   D2A18126  32.663  10.613  19.282  0.1383  0.0207  0.2758
 1511POPC   C3A18127  32.712  10.923  18.949 -0.0623 -0.0585 -0.0121
 1511POPC   C4A18128  32.649  11.117  18.535 -0.0875  0.0755 -0.0313
 1511POPC   C1B18129  33.028  11.263  19.692  0.0801  0.0062 -0.1514
 1511POPC   C2B18130  33.164  11.491  19.321  0.0623  0.0796 -0.2569
 1511POPC   C3B18131  32.958  11.445  18.966  0.0458 -0.1362 -0.0435
 1511POPC   C4B18132  32.803  11.626  18.579 -0.2463  0.0327  0.0580
 1512POPC   NC318133   5.513   1.374  19.300  0.2967  0.0458  0.1179
 1512POPC   PO418134   5.844   1.350  19.489  0.1352  0.2156  0.1010
 1512POPC   GL118135   5.881   1.287  19.056  0.1788  0.2746 -0.3233
 1512POPC   GL218136   6.154   1.128  19.185  0.0224 -0.0808 -0.1061
 1512POPC   C1A18137   5.719   1.083  18.660 -0.0337  0.0128 -0.0551
 1512POPC   D2A18138   5.322   1.102  18.389 -0.1625  0.0921 -0.1582
 1512POPC   C3A18139   5.179   1.387  18.020  0.0090  0.0790  0.1702
 1512POPC   C4A18140   5.313   1.806  17.932  0.1273 -0.1617 -0.4432
 1512POPC   C1B18141   6.119   0.826  18.825  0.2634  0.1285 -0.2026
 1512POPC   C2B18142   6.095   0.873  18.335  0.1079 -0.1351  0.2717
 1512POPC   C3B18143   5.754   1.082  18.139  0.4723 -0.0364 -0.2798
 1512POPC   C4B18144   5.373   0.949  17.890  0.0195 -0.0971 -0.1447
 1513POPC   NC318145  13.366   3.047  18.895  0.2987  0.0776 -0.0077
 1513POPC   PO418146  13.090   3.361  18.947  0.0022  0.0866 -0.3346
 1513POPC   GL118147  13.270   3.306  18.534 -0.0815  0.2929 -0.0830
 1513POPC   GL218148  13.309   3.582  18.516 -0.1315  0.0805  0.1275
 1513POPC   C1A18149  13.673   3.225  18.251  0.0486  0.2739  0.1006
 1513POPC   D2A18150  13.803   3.100  17.866 -0.2371 -0.2881  0.0254
 1513POPC   C3A18151  13.788   3.019  17.384 -0.0017 -0.0740  0.2450
 1513POPC   C4A18152  13.559   2.927  16.972 -0.4379  0.0592 -0.0124
 1513POPC   C1B18153  13.367   3.577  18.092 -0.0116 -0.0493 -0.2699
 1513POPC   C2B18154  13.738   3.553  17.812 -0.0337  0.4350  0.2112
 1513POPC   C3B18155  14.068   3.403  17.541  0.2183  0.3961 -0.1803
 1513POPC   C4B18156  14.196   3.233  17.131 -0.0766 -0.0352 -0.0171
 1514POPC   NC318157  10.902   5.627  14.438 -0.1592  0.2337  0.1723
 1514POPC   PO418158  10.579   5.659  14.180  0.1183 -0.0495  0.0803
 1514POPC   GL118159  10.960   5.558  13.990  0.0307  0.0089  0.1447
 1514POPC   GL218160  10.875   5.430  13.805 -0.0714 -0.1057 -0.0019
 1514POPC   C1A18161  11.404   5.552  14.000  0.1805 -0.0401 -0.0636
 1514POPC   D2A18162  11.790   5.571  13.826 -0.2177  0.2202  0.0057
 1514POPC   C3A18163  12.125   5.829  14.023  0.2014  0.1761  0.0725
 1514POPC   C4A18164  12.491   5.874  14.257  0.3578 -0.0282 -0.0755
 1514POPC   C1B18165  11.233   5.121  13.867 -0.1420  0.0491 -0.1252
 1514POPC   C2B18166  11.656   5.108  14.057 -0.0720 -0.0621 -0.1203
 1514POPC   C3B18167  12.080   4.898  14.035 -0.0837  0.0199  0.0168
 1514POPC   C4B18168  12.234   4.625  13.635  0.0024  0.0531  0.0009
 1515POPC   NC318169   6.571   6.585  17.351  0.0508 -0.0416 -0.2611
 1515POPC   PO418170   6.423   6.248  17.351  0.4856  0.1696  0.2337
 1515POPC   GL118171   6.180   6.119  17.063 -0.1440 -0.0845  0.3440
 1515POPC   GL218172   6.403   6.000  16.905  0.2555  0.0766  0.1151
 1515POPC   C1A18173   5.903   5.766  16.954 -0.0793  0.1163 -0.4452
 1515POPC   D2A18174   5.443   5.855  17.049 -0.1867 -0.0589 -0.1415
 1515POPC   C3A18175   5.464   5.700  16.640 -0.4267  0.0568  0.0714
 1515POPC   C4A18176   5.743   5.367  16.440  0.2278 -0.0856  0.1470
 1515POPC   C1B18177   6.450   6.109  16.485 -0.2220  0.3082  0.4421
 1515POPC   C2B18178   6.185   6.056  16.058 -0.0861  0.0878 -0.2060
 1515POPC   C3B18179   5.959   5.859  15.708  0.1220 -0.1633  0.1581
 1515POPC   C4B18180   5.849   5.633  15.366 -0.0473 -0.0449  0.2573
 1516POPC   NC318181  16.999   0.903  20.366  0.0479 -0.0777 -0.1029
 1516POPC   PO418182  16.617   0.865  20.373 -0.1129  0.1397  0.0908
 1516POPC   GL118183  16.681   0.773  19.968  0.0288  0.0652 -0.0765
 1516POPC   GL218184  16.948   0.627  19.982 -0.1926 -0.0168  0.1250
 1516POPC   C1A18185  16.902   0.964  19.596 -0.0265 -0.0729  0.1318
 1516POPC   D2A18186  17.100   0.869  19.202  0.1374 -0.0878 -0.1732
 1516POPC   C3A18187  17.398   1.226  19.198  0.0301  0.1902  0.1158
 1516POPC   C4A18188  17.409   1.690  19.155  0.0658 -0.1065 -0.2291
 1516POPC   C1B18189  16.947   0.471  19.487 -0.2902  0.1275 -0.0801
 1516POPC   C2B18190  17.037   0.144  19.238 -0.2894 -0.0860 -0.0072
 1516POPC   C3B18191  17.078  -0.053  18.841 -0.1152 -0.1479 -0.2550
 1516POPC   C4B18192  17.427  -0.143  18.594  0.1619 -0.1354  0.3306
 1517POPC   NC318193  13.096   9.968  20.069 -0.3737  0.3967  0.3396
 1517POPC   PO418194  13.437  10.202  20.010  0.3481 -0.2151 -0.0768
 1517POPC   GL118195  13.134  10.273  19.722  0.2042  0.0057 -0.1785
 1517POPC   GL218196  13.273  10.566  19.655  0.0255 -0.0586  0.1676
 1517POPC   C1A18197  12.822  10.570  19.553  0.2634  0.3449 -0.2639
 1517POPC   D2A18198  12.632  10.664  19.113  0.1315 -0.2166 -0.2437
 1517POPC   C3A18199  12.515  11.074  18.940  0.3517  0.0483  0.1458
 1517POPC   C4A18200  12.300  11.457  18.801 -0.1002  0.0853 -0.0073
 1517POPC   C1B18201  13.600  10.633  19.363 -0.1004 -0.3801 -0.1875
 1517POPC   C2B18202  13.899  10.808  19.054 -0.0303 -0.3147  0.1585
 1517POPC   C3B18203  14.191  10.804  18.734 -0.1595 -0.1379  0.1092
 1517POPC   C4B18204  14.350  10.780  18.349  0.2533 -0.0621  0.2970
 1518POPC   NC318205  10.200   4.006  15.982 -0.3249  0.0713 -0.0732
 1518POPC   PO418206  10.485   3.856  16.181  0.1860 -0.1148 -0.0720
 1518POPC   GL118207  10.760   3.489  16.410 -0.2016 -0.1274  0.0851
 1518POPC   GL218208  10.896   3.633  16.139 -0.2176  0.0647 -0.1938
 1518POPC   C1A18209  11.199   3.288  16.376 -0.2572 -0.0241 -0.3615
 1518POPC   D2A18210  11.445   2.898  16.297 -0.2301  0.1813  0.0180
 1518POPC   C3A18211  11.724   2.689  15.982  0.0273  0.1912  0.3912
 1518POPC   C4A18212  12.090   2.880  15.822 -0.0428 -0.2216  0.0677
 1518POPC   C1B18213  11.058   3.368  15.831 -0.2109  0.0350  0.0751
 1518POPC   C2B18214  11.155   3.270  15.405 -0.0169 -0.0320 -0.1604
 1518POPC   C3B18215  10.916   2.877  15.168 -0.1615 -0.0861 -0.0436
 1518POPC   C4B18216  10.457   2.797  14.940 -0.0833  0.1599 -0.1178
 1519POPC   NC318217   7.403   7.629  19.152  0.2826 -0.0286  0.0120
 1519POPC   PO418218   7.361   7.923  18.916  0.1333  0.1059  0.2620
 1519POPC   GL118219   7.263   8.154  18.626  0.1547 -0.0660  0.0566
 1519POPC   GL218220   7.463   8.366  18.583  0.0765  0.2024 -0.0540
 1519POPC   C1A18221   6.987   8.124  18.237 -0.0369  0.1911  0.2877
 1519POPC   D2A18222   6.654   8.285  18.029  0.1201  0.2456  0.1951
 1519POPC   C3A18223   6.321   7.985  18.019  0.3416  0.0431  0.0258
 1519POPC   C4A18224   5.894   7.806  17.889 -0.0482  0.0629 -0.0792
 1519POPC   C1B18225   7.465   8.458  18.107  0.2191 -0.1974  0.1159
 1519POPC   C2B18226   7.543   8.554  17.638  0.0471 -0.2277 -0.0741
 1519POPC   C3B18227   7.368   8.912  17.434  0.1804 -0.0893 -0.2569
 1519POPC   C4B18228   6.982   9.146  17.378  0.1234  0.2842  0.2833
 1520POPC   NC318229   8.505   6.692  14.361 -0.0269 -0.2033 -0.3527
 1520POPC   PO418230   8.772   6.817  14.579 -0.0703 -0.0975  0.0113
 1520POPC   GL118231   8.766   7.131  14.320  0.0384 -0.3675  0.1778
 1520POPC   GL218232   9.043   7.288  14.414  0.0749 -0.0602  0.1041
 1520POPC   C1A18233   8.403   7.186  14.045  0.1111  0.2994  0.0272
 1520POPC   D2A18234   8.088   7.374  13.789 -0.0405 -0.0144 -0.0438
 1520POPC   C3A18235   8.180   7.682  13.434  0.1132 -0.1285  0.0428
 1520POPC   C4A18236   7.877   7.748  13.076  0.1585  0.1901 -0.0730
 1520POPC   C1B18237   8.963   7.703  14.216 -0.3274  0.1083 -0.0260
 1520POPC   C2B18238   8.949   8.076  13.900 -0.7994  0.3201  0.0771
 1520POPC   C3B18239   9.020   8.505  13.698 -0.2187  0.2790 -0.1682
 1520POPC   C4B18240   9.406   8.806  13.849  0.1952  0.1278 -0.1575
 1521POPC   NC318241  15.508   0.871  19.979 -0.4501  0.2457  0.2617
 1521POPC   PO418242  15.605   1.047  19.641 -0.1098 -0.1318 -0.0615
 1521POPC   GL118243  15.700   1.153  19.252 -0.5431  0.0451 -0.1732
 1521POPC   GL218244  15.633   1.463  19.300 -0.3883 -0.1091 -0.5793
 1521POPC   C1A18245  15.732   0.970  18.853  0.2465 -0.2343  0.1195
 1521POPC   D2A18246  15.536   0.841  18.420  0.0001  0.1177 -0.1428
 1521POPC   C3A18247  15.813   0.493  18.405  0.0707  0.2490 -0.1742
 1521POPC   C4A18248  16.164   0.253  18.288 -0.0380  0.3697 -0.3122
 1521POPC   C1B18249  15.761   1.515  18.854 -0.0806 -0.0597 -0.1692
 1521POPC   C2B18250  15.748   1.681  18.413  0.0317 -0.0780 -0.2601
 1521POPC   C3B18251  15.828   1.696  17.953  0.1169 -0.1094 -0.2489
 1521POPC   C4B18252  15.701   1.650  17.543  0.0883  0.1360  0.0926
 1522POPC   NC318253   8.314   9.393  19.550  0.1041  0.0266  0.0169
 1522POPC   PO418254   8.018   9.629  19.378  0.0634  0.2594 -0.2673
 1522POPC   GL118255   7.800   9.813  19.089  0.5269  0.0967 -0.1853
 1522POPC   GL218256   7.971   9.764  18.871 -0.0868  0.2265 -0.0291
 1522POPC   C1A18257   7.365   9.938  19.146  0.1056  0.3251  0.0039
 1522POPC   D2A18258   7.197  10.292  18.908  0.0904  0.0663 -0.0881
 1522POPC   C3A18259   7.355  10.300  18.467  0.3860 -0.1894  0.1733
 1522POPC   C4A18260   7.477  10.318  18.035 -0.1482  0.0995  0.2099
 1522POPC   C1B18261   7.719   9.908  18.530 -0.2085 -0.1965  0.1543
 1522POPC   C2B18262   7.471   9.816  18.150 -0.0359  0.1125 -0.1781
 1522POPC   C3B18263   7.197  10.014  17.757  0.0453 -0.0646 -0.1789
 1522POPC   C4B18264   6.724  10.128  17.789  0.1521 -0.1525 -0.1622
 1523POPC   NC318265   1.448   7.473  20.240  0.2574  0.4190 -0.0195
 1523POPC   PO418266   1.746   7.719  20.127  0.2375  0.0082  0.1844
 1523POPC   GL118267   1.773   7.821  19.803 -0.0720 -0.1890  0.2433
 1523POPC   GL218268   2.019   7.635  19.749  0.2893  0.1171  0.1023
 1523POPC   C1A18269   1.947   8.239  19.615 -0.1270  0.0382  0.2770
 1523POPC   D2A18270   2.174   8.618  19.528  0.0365  0.2276  0.4765
 1523POPC   C3A18271   2.478   8.570  19.159 -0.1851  0.3688 -0.2459
 1523POPC   C4A18272   2.437   8.524  18.646 -0.2372 -0.0689 -0.3158
 1523POPC   C1B18273   1.690   7.514  19.364 -0.1928 -0.2694 -0.0750
 1523POPC   C2B18274   1.739   7.182  19.056 -0.0493  0.2383 -0.0876
 1523POPC   C3B18275   2.015   7.146  18.677 -0.2311 -0.2134  0.3579
 1523POPC   C4B18276   1.999   7.066  18.257 -0.0355 -0.0226  0.1726
 1524POPC   NC318277  11.075  12.554  20.843  0.1015  0.0115 -0.1394
 1524POPC   PO418278  10.741  12.338  20.861  0.0306  0.0383  0.3119
 1524POPC   GL118279  10.877  12.396  20.411  0.0373 -0.0681  0.2276
 1524POPC   GL218280  10.895  12.181  20.266 -0.1974  0.2005  0.2755
 1524POPC   C1A18281  10.472  12.351  20.112  0.2392 -0.1213 -0.0665
 1524POPC   D2A18282  10.201  12.417  19.702 -0.1830 -0.1294 -0.1856
 1524POPC   C3A18283   9.932  12.709  19.481  0.3538  0.2818  0.0189
 1524POPC   C4A18284  10.005  13.134  19.371  0.0883 -0.1825 -0.0589
 1524POPC   C1B18285  10.722  12.169  19.798  0.1819  0.1367 -0.1037
 1524POPC   C2B18286  10.760  12.495  19.425  0.0603 -0.0722 -0.0480
 1524POPC   C3B18287  10.411  12.808  19.356  0.0395 -0.1773  0.0284
 1524POPC   C4B18288  10.107  12.828  18.991  0.0676  0.2023 -0.0930
 1525POPC   NC318289   2.867  15.057  21.071  0.2155  0.2871  0.1541
 1525POPC   PO418290   2.521  14.986  20.902  0.2141 -0.1364 -0.0776
 1525POPC   GL118291   2.784  14.948  20.588 -0.0464  0.0791  0.2607
 1525POPC   GL218292   2.939  14.693  20.772  0.0050  0.0954 -0.1190
 1525POPC   C1A18293   2.808  14.966  20.109 -0.0533  0.0710 -0.0260
 1525POPC   D2A18294   2.957  15.252  19.780 -0.0665  0.1930  0.3036
 1525POPC   C3A18295   3.183  15.472  19.500  0.3014 -0.1255  0.0657
 1525POPC   C4A18296   2.964  15.463  19.018 -0.0308 -0.0175  0.4117
 1525POPC   C1B18297   3.307  14.633  20.537 -0.1994  0.1713  0.1657
 1525POPC   C2B18298   3.687  14.538  20.249 -0.1505 -0.3135 -0.3534
 1525POPC   C3B18299   3.851  14.590  19.812 -0.1182 -0.0894  0.3148
 1525POPC   C4B18300   3.889  14.928  19.559 -0.1982  0.0784 -0.0198
 1526POPC   NC318301   7.485  15.290  20.670 -0.1164 -0.2300  0.0223
 1526POPC   PO418302   7.409  15.364  20.324 -0.0463  0.2650  0.1457
 1526POPC   GL118303   7.409  15.093  20.053  0.3744 -0.1978 -0.2886
 1526POPC   GL218304   7.345  14.799  20.121  0.0813  0.2686  0.1253
 1526POPC   C1A18305   7.556  14.998  19.607 -0.0614 -0.1845 -0.2096
 1526POPC   D2A18306   7.921  14.865  19.362 -0.1193  0.1492 -0.2097
 1526POPC   C3A18307   7.779  14.675  18.898  0.2038 -0.1265  0.0123
 1526POPC   C4A18308   7.821  14.572  18.449  0.1131  0.1508  0.0658
 1526POPC   C1B18309   7.107  14.525  19.815 -0.1972 -0.0552  0.0161
 1526POPC   C2B18310   6.861  14.192  19.664 -0.2734 -0.2376  0.1700
 1526POPC   C3B18311   6.984  13.760  19.525 -0.1381  0.4397  0.0328
 1526POPC   C4B18312   7.109  13.443  19.179  0.0741 -0.3530  0.0538
 1527POPC   NC318313   0.269  10.880  20.513  0.0693  0.3864  0.1921
 1527POPC   PO418314   0.589  10.647  20.578 -0.0685 -0.0691  0.1369
 1527POPC   GL118315   0.653  10.724  20.269  0.2005 -0.1780  0.0988
 1527POPC   GL218316   0.583  10.996  20.118 -0.0211  0.0479  0.0701
 1527POPC   C1A18317   0.808  10.578  19.821 -0.0908 -0.0007  0.0508
 1527POPC   D2A18318   1.139  10.873  19.642  0.3237  0.1161 -0.4046
 1527POPC   C3A18319   1.249  11.204  19.349  0.2146  0.2886 -0.0149
 1527POPC   C4A18320   1.496  11.361  18.970 -0.1470  0.0191 -0.0177
 1527POPC   C1B18321   0.675  11.032  19.636  0.0869  0.0192 -0.2226
 1527POPC   C2B18322   0.802  10.896  19.228 -0.1609 -0.2121  0.2244
 1527POPC   C3B18323   0.853  10.788  18.795  0.2701 -0.0162 -0.0404
 1527POPC   C4B18324   1.136  10.582  18.410  0.2495 -0.0768 -0.2949
 1528POPC   NC318325   6.263   9.811  19.563 -0.0011  0.0597 -0.1531
 1528POPC   PO418326   6.611   9.799  19.732 -0.1349  0.1006 -0.1017
 1528POPC   GL118327   6.745   9.885  19.403 -0.1470  0.1176 -0.0460
 1528POPC   GL218328   6.989  10.099  19.461 -0.2051  0.0555 -0.4553
 1528POPC   C1A18329   6.958   9.786  18.989  0.0402  0.0301 -0.2317
 1528POPC   D2A18330   7.203   9.644  18.596 -0.2769  0.0698 -0.2056
 1528POPC   C3A18331   7.597   9.507  18.750  0.1055  0.1098 -0.0766
 1528POPC   C4A18332   7.799   9.140  18.604 -0.1154  0.1395  0.3055
 1528POPC   C1B18333   6.638  10.350  19.200  0.1653  0.1389  0.0135
 1528POPC   C2B18334   6.307  10.459  18.887  0.2491  0.2823 -0.1371
 1528POPC   C3B18335   6.180  10.301  18.488  0.0165  0.2759  0.0822
 1528POPC   C4B18336   6.330  10.092  18.124  0.2721  0.1688 -0.3258
 1529POPC   NC318337  10.846   5.983  16.076 -0.0514  0.0197 -0.1382
 1529POPC   PO418338  10.673   5.969  15.714  0.4461  0.2092 -0.1955
 1529POPC   GL118339  11.074   5.850  15.621  0.1576 -0.1190 -0.3258
 1529POPC   GL218340  11.105   5.580  15.364 -0.1851 -0.0772  0.3506
 1529POPC   C1A18341  11.510   5.890  15.647  0.0139 -0.1216 -0.1848
 1529POPC   D2A18342  11.864   6.018  15.345 -0.1592 -0.1305  0.1471
 1529POPC   C3A18343  11.898   5.852  14.924  0.0624  0.2955 -0.1307
 1529POPC   C4A18344  12.125   5.621  14.611 -0.1523 -0.3672  0.1623
 1529POPC   C1B18345  11.498   5.512  15.166  0.1670 -0.2105  0.3241
 1529POPC   C2B18346  11.773   5.120  15.016 -0.0806 -0.1462 -0.4169
 1529POPC   C3B18347  11.954   4.712  15.013  0.2406  0.1175 -0.4007
 1529POPC   C4B18348  12.034   4.314  15.134  0.4682  0.0515  0.2689
 1530POPC   NC318349   8.694  10.570  20.013  0.0669  0.1730  0.1680
 1530POPC   PO418350   8.315  10.636  19.902 -0.4938 -0.1706  0.0929
 1530POPC   GL118351   8.278  10.528  19.471  0.5078  0.2686  0.0627
 1530POPC   GL218352   8.500  10.626  19.251  0.3381 -0.2025 -0.1756
 1530POPC   C1A18353   8.037  10.709  19.095  0.0031  0.0079 -0.0986
 1530POPC   D2A18354   7.898  11.162  18.980 -0.2023 -0.3480  0.1244
 1530POPC   C3A18355   7.970  11.477  19.255 -0.0212 -0.0999  0.0562
 1530POPC   C4A18356   7.929  11.739  19.627 -0.0064  0.0724  0.1873
 1530POPC   C1B18357   8.716  10.747  18.877 -0.0580 -0.0199 -0.0127
 1530POPC   C2B18358   8.636  10.926  18.445  0.1595 -0.0279 -0.2043
 1530POPC   C3B18359   8.427  11.267  18.160 -0.2474  0.2162  0.1248
 1530POPC   C4B18360   8.177  11.707  18.167 -0.1335 -0.1009  0.2972
 1531POPC   NC318361   7.884   7.235  17.794 -0.4424 -0.2047  0.0839
 1531POPC   PO418362   8.101   7.477  17.567 -0.1927  0.1478 -0.2410
 1531POPC   GL118363   8.123   7.820  17.621  0.3024  0.0405 -0.1042
 1531POPC   GL218364   7.863   7.842  17.701 -0.0512 -0.0682 -0.1517
 1531POPC   C1A18365   8.282   8.113  17.259  0.2906 -0.1153  0.3665
 1531POPC   D2A18366   8.359   8.430  16.920  0.1608 -0.2286  0.1990
 1531POPC   C3A18367   8.732   8.627  16.707  0.0261  0.1013 -0.2964
 1531POPC   C4A18368   8.832   8.995  16.495  0.1239  0.1261  0.1110
 1531POPC   C1B18369   7.744   8.038  17.302 -0.1638  0.3214  0.1163
 1531POPC   C2B18370   7.762   8.391  17.053 -0.2626 -0.1503  0.1039
 1531POPC   C3B18371   7.786   8.862  16.975  0.2016  0.2098  0.3592
 1531POPC   C4B18372   7.962   9.280  16.814 -0.0904  0.1793 -0.4303
 1532POPC   NC318373   4.866  15.783  20.322 -0.0245  0.2926  0.2438
 1532POPC   PO418374   4.614  15.493  20.410 -0.0767 -0.3026 -0.0554
 1532POPC   GL118375   4.803  15.381  20.066 -0.1224  0.2254 -0.1107
 1532POPC   GL218376   5.078  15.202  20.156  0.0539  0.0098 -0.0098
 1532POPC   C1A18377   4.793  15.095  19.708  0.2843 -0.2958 -0.0493
 1532POPC   D2A18378   4.728  14.709  19.441  0.2910 -0.3963  0.0100
 1532POPC   C3A18379   4.729  14.763  18.971  0.1812 -0.4017  0.0641
 1532POPC   C4A18380   4.790  14.641  18.528 -0.3007 -0.2137  0.3110
 1532POPC   C1B18381   5.175  15.378  19.744 -0.1574  0.2835 -0.1053
 1532POPC   C2B18382   5.319  15.482  19.298  0.0628  0.1031  0.0594
 1532POPC   C3B18383   5.314  15.407  18.869  0.1608 -0.3357 -0.2933
 1532POPC   C4B18384   5.419  15.585  18.400  0.0670  0.2261  0.1328
 1533POPC   NC318385   7.646   5.870  15.404 -0.2843  0.0948 -0.1953
 1533POPC   PO418386   7.486   6.140  15.665 -0.0669 -0.0950  0.1221
 1533POPC   GL118387   7.058   6.144  15.711 -0.2212  0.3255  0.1734
 1533POPC   GL218388   6.993   6.017  15.927 -0.0904  0.2157 -0.0426
 1533POPC   C1A18389   6.866   6.370  15.293 -0.2090 -0.2653 -0.2388
 1533POPC   D2A18390   6.610   6.479  14.932 -0.0780  0.2167 -0.1725
 1533POPC   C3A18391   6.590   6.161  14.543 -0.0646 -0.0409 -0.3438
 1533POPC   C4A18392   6.570   6.080  14.071 -0.4104  0.1048  0.0015
 1533POPC   C1B18393   6.569   6.201  15.828  0.0483 -0.0909 -0.1090
 1533POPC   C2B18394   6.265   6.257  15.488  0.2706 -0.2463  0.2279
 1533POPC   C3B18395   5.830   6.270  15.409  0.1826 -0.0510 -0.2667
 1533POPC   C4B18396   5.614   6.417  15.036 -0.0001 -0.2211  0.0036
 1534POPC   NC318397  10.298   6.016  14.372  0.0351  0.4816 -0.2084
 1534POPC   PO418398  10.681   6.045  14.494 -0.0787 -0.2261  0.1057
 1534POPC   GL118399  10.791   6.408  14.539 -0.2510 -0.2036 -0.3186
 1534POPC   GL218400  10.959   6.415  14.333 -0.1886  0.2573 -0.0456
 1534POPC   C1A18401  10.840   6.911  14.546 -0.2041  0.0201  0.0437
 1534POPC   D2A18402  11.026   7.280  14.757  0.5061  0.1624  0.0032
 1534POPC   C3A18403  11.214   7.700  14.675  0.0815 -0.0487 -0.0626
 1534POPC   C4A18404  11.220   8.031  14.349 -0.0681  0.0861  0.1164
 1534POPC   C1B18405  11.262   6.450  13.962  0.1706  0.0252  0.0786
 1534POPC   C2B18406  11.252   6.561  13.524  0.1393 -0.0970 -0.0405
 1534POPC   C3B18407  11.400   6.789  13.097  0.0087  0.1175 -0.1086
 1534POPC   C4B18408  11.395   6.939  12.666  0.5071  0.0001  0.0506
 1535POPC   NC318409  10.742   6.355  16.785  0.2352  0.0711 -0.2839
 1535POPC   PO418410  10.811   6.328  16.424  0.1467  0.1206 -0.0743
 1535POPC   GL118411  10.990   6.629  16.198  0.1966  0.2182  0.1432
 1535POPC   GL218412  11.076   6.513  15.918 -0.2663  0.0714  0.4765
 1535POPC   C1A18413  10.771   6.925  15.845 -0.2646 -0.1092  0.2871
 1535POPC   D2A18414  10.936   7.170  15.475 -0.0967 -0.4242  0.4498
 1535POPC   C3A18415  11.192   7.516  15.659  0.1615  0.0131  0.0306
 1535POPC   C4A18416  11.212   7.937  15.804 -0.3705 -0.1393  0.0615
 1535POPC   C1B18417  11.366   6.827  15.814  0.0421  0.4259  0.0432
 1535POPC   C2B18418  11.523   7.094  15.479 -0.3640 -0.1249 -0.1475
 1535POPC   C3B18419  11.824   7.464  15.444 -0.0806  0.0758 -0.0884
 1535POPC   C4B18420  12.194   7.497  15.688 -0.3772 -0.3371  0.0664
 1536POPC   NC318421  15.590   8.266  20.645  0.0766 -0.1227  0.1466
 1536POPC   PO418422  15.414   8.329  20.288  0.2094 -0.0145 -0.2104
 1536POPC   GL118423  15.368   8.297  19.939  0.4383  0.3289  0.0574
 1536POPC   GL218424  15.425   7.975  19.922  0.0153 -0.3111  0.1889
 1536POPC   C1A18425  15.385   8.598  19.659 -0.0277  0.0293 -0.4669
 1536POPC   D2A18426  15.196   8.885  19.447  0.0008 -0.0576 -0.0408
 1536POPC   C3A18427  15.245   9.178  19.086  0.1860  0.3130 -0.2060
 1536POPC   C4A18428  15.456   9.615  18.994  0.1234  0.1298  0.0471
 1536POPC   C1B18429  15.207   8.102  19.567  0.1654  0.3380 -0.3117
 1536POPC   C2B18430  15.372   8.157  19.137 -0.1302  0.3270  0.2877
 1536POPC   C3B18431  15.530   8.353  18.769 -0.0298  0.0319 -0.2686
 1536POPC   C4B18432  15.876   8.596  18.529 -0.0088 -0.3500  0.1286
 1537POPC   NC318433   2.397   4.368  19.879 -0.1141 -0.0724 -0.1294
 1537POPC   PO418434   2.781   4.284  19.904  0.2020 -0.0455 -0.3972
 1537POPC   GL118435   2.676   4.260  19.448 -0.3277  0.2965 -0.1188
 1537POPC   GL218436   2.522   4.437  19.265  0.0315 -0.0411 -0.1578
 1537POPC   C1A18437   2.300   4.028  19.315  0.2044 -0.2629  0.4162
 1537POPC   D2A18438   2.037   3.687  19.442  0.0138 -0.1050 -0.1032
 1537POPC   C3A18439   2.101   3.375  19.074  0.2899 -0.0543  0.0637
 1537POPC   C4A18440   1.886   3.034  18.833 -0.0136 -0.0198  0.1282
 1537POPC   C1B18441   2.249   4.498  18.883  0.1285  0.0883  0.1356
 1537POPC   C2B18442   2.388   4.547  18.432 -0.2121 -0.1118  0.0644
 1537POPC   C3B18443   2.223   4.729  17.989  0.1688 -0.2725 -0.3065
 1537POPC   C4B18444   1.887   4.897  17.752 -0.2909 -0.0559  0.3227
 1538POPC   NC318445  15.969   5.456  19.353 -0.0638 -0.1033 -0.0742
 1538POPC   PO418446  16.304   5.210  19.482  0.3372  0.1607  0.0948
 1538POPC   GL118447  16.265   5.079  19.114 -0.2517 -0.0397  0.1316
 1538POPC   GL218448  16.470   5.006  18.979  0.0515  0.0395  0.1719
 1538POPC   C1A18449  16.105   4.697  18.977  0.3547  0.0178 -0.0388
 1538POPC   D2A18450  16.089   4.341  18.670  0.1648  0.1171 -0.1330
 1538POPC   C3A18451  16.122   4.483  18.229 -0.1725 -0.1193  0.2526
 1538POPC   C4A18452  16.305   4.546  17.822 -0.3054  0.1958 -0.0828
 1538POPC   C1B18453  16.700   5.381  18.854  0.0371  0.2639 -0.0554
 1538POPC   C2B18454  16.796   5.774  18.643  0.1428  0.0787 -0.1524
 1538POPC   C3B18455  16.771   5.736  18.180  0.3238  0.2109  0.0956
 1538POPC   C4B18456  17.138   5.728  17.844  0.0596 -0.1269 -0.1560
 1539POPC   NC318457   7.026   3.303  18.804  0.0388 -0.1640 -0.2870
 1539POPC   PO418458   6.987   3.379  18.424  0.2651 -0.1136  0.2080
 1539POPC   GL118459   6.728   3.098  18.241 -0.0346 -0.3157 -0.2180
 1539POPC   GL218460   6.831   3.005  17.980  0.0689 -0.1734  0.0108
 1539POPC   C1A18461   6.378   2.823  18.160  0.1044 -0.0297  0.0141
 1539POPC   D2A18462   6.194   2.574  17.795  0.1316 -0.1034 -0.0568
 1539POPC   C3A18463   6.290   2.117  17.783  0.0351 -0.3749  0.1469
 1539POPC   C4A18464   6.334   1.624  17.736 -0.0821  0.0503 -0.2118
 1539POPC   C1B18465   6.644   2.820  17.570  0.1626 -0.5892 -0.2394
 1539POPC   C2B18466   6.729   2.450  17.328 -0.2199  0.0062 -0.0861
 1539POPC   C3B18467   6.773   2.215  16.972 -0.0294  0.1196  0.0853
 1539POPC   C4B18468   6.664   2.324  16.506  0.0503  0.1204  0.1624
 1540POPC   NC318469  10.842  11.226  19.986 -0.0492 -0.2542  0.2940
 1540POPC   PO418470  10.564  10.985  19.977  0.0907  0.3080  0.1008
 1540POPC   GL118471  10.510  11.141  19.612  0.1737  0.2804 -0.0043
 1540POPC   GL218472  10.614  10.975  19.394 -0.0860 -0.2377 -0.1472
 1540POPC   C1A18473  10.217  11.483  19.471 -0.2061  0.1880 -0.1178
 1540POPC   D2A18474   9.894  11.643  19.267 -0.1266  0.0639  0.0709
 1540POPC   C3A18475   9.898  11.874  18.845  0.1016 -0.0784 -0.1929
 1540POPC   C4A18476   9.625  12.217  18.612  0.1141 -0.0485 -0.4224
 1540POPC   C1B18477  10.696  11.377  19.203 -0.1379 -0.1160  0.1491
 1540POPC   C2B18478  10.903  11.787  19.226  0.3376 -0.2588 -0.0849
 1540POPC   C3B18479  10.807  12.175  18.974 -0.0721 -0.1932  0.3051
 1540POPC   C4B18480  10.610  12.509  18.773  0.2811 -0.2010 -0.2292
 1541POPC   NC318481   0.666   2.593  19.871 -0.1325  0.0705  0.1177
 1541POPC   PO418482   0.649   2.907  20.014 -0.1855  0.0224 -0.2725
 1541POPC   GL118483   0.803   2.994  19.633 -0.0993 -0.0145  0.1549
 1541POPC   GL218484   1.101   2.887  19.799 -0.0474 -0.2189  0.0809
 1541POPC   C1A18485   1.010   3.302  19.345 -0.1762 -0.2177  0.0343
 1541POPC   D2A18486   0.923   3.410  18.931 -0.0052 -0.4222 -0.1310
 1541POPC   C3A18487   1.013   3.298  18.489  0.1292 -0.0011  0.0988
 1541POPC   C4A18488   1.041   3.335  18.004  0.0994 -0.1959 -0.1936
 1541POPC   C1B18489   0.993   2.758  19.335  0.0305 -0.1921  0.4020
 1541POPC   C2B18490   0.850   2.472  18.979 -0.2364  0.0923  0.1955
 1541POPC   C3B18491   0.538   2.544  18.685  0.0047  0.0996  0.0295
 1541POPC   C4B18492   0.330   2.455  18.278  0.0610 -0.2104 -0.2514
 1542POPC   NC318493   5.288  12.071  20.787  0.1444  0.3007  0.1543
 1542POPC   PO418494   5.504  12.240  20.526 -0.0136  0.2198  0.0140
 1542POPC   GL118495   5.564  12.139  20.119  0.0615  0.1407  0.1982
 1542POPC   GL218496   5.779  11.953  20.136 -0.6052  0.0542 -0.0047
 1542POPC   C1A18497   5.531  12.284  19.681 -0.0434  0.2647  0.1186
 1542POPC   D2A18498   5.188  12.447  19.427  0.2741 -0.2587  0.2352
 1542POPC   C3A18499   4.776  12.249  19.245 -0.0181 -0.3189 -0.0392
 1542POPC   C4A18500   4.520  12.130  18.851  0.0291 -0.1456 -0.0554
 1542POPC   C1B18501   5.608  11.798  19.743 -0.1143  0.0410 -0.2284
 1542POPC   C2B18502   5.356  11.553  19.434 -0.0042  0.0658 -0.0380
 1542POPC   C3B18503   5.329  11.497  18.987 -0.0202 -0.2005 -0.0147
 1542POPC   C4B18504   5.464  11.737  18.643  0.1716 -0.0326  0.0659
 1543POPC   NC318505  10.855   6.003  15.242  0.0394  0.0196 -0.0943
 1543POPC   PO418506  10.640   5.790  14.972  0.0163 -0.0892  0.1794
 1543POPC   GL118507  10.998   5.893  14.815 -0.1806  0.0985  0.2008
 1543POPC   GL218508  11.049   6.200  14.831 -0.0394  0.3042 -0.0545
 1543POPC   C1A18509  11.434   5.773  14.651 -0.3851 -0.1384 -0.6838
 1543POPC   D2A18510  11.731   5.792  14.300 -0.0676  0.0840 -0.1925
 1543POPC   C3A18511  11.664   6.073  13.944 -0.0362  0.0229  0.2574
 1543POPC   C4A18512  11.750   6.490  13.670  0.2757  0.1248  0.1906
 1543POPC   C1B18513  11.219   6.591  14.724 -0.0203  0.0179 -0.0562
 1543POPC   C2B18514  11.338   6.860  14.358 -0.0735 -0.0239 -0.1718
 1543POPC   C3B18515  11.075   7.251  14.220 -0.0275 -0.1672  0.1127
 1543POPC   C4B18516  10.742   7.509  14.396 -0.1158  0.1883  0.4109
 1544POPC   NC318517   5.792   7.889  19.014  0.0719  0.2975 -0.1969
 1544POPC   PO418518   6.156   8.046  18.970  0.1367 -0.2476 -0.0954
 1544POPC   GL118519   5.813   8.117  18.640  0.2706  0.1671 -0.0663
 1544POPC   GL218520   5.829   8.363  18.506 -0.0410 -0.0766  0.2831
 1544POPC   C1A18521   5.342   8.265  18.684 -0.4385  0.3183  0.1909
 1544POPC   D2A18522   5.064   8.117  18.345 -0.0545 -0.0221 -0.0750
 1544POPC   C3A18523   4.954   8.350  17.954 -0.0342  0.0534 -0.0610
 1544POPC   C4A18524   5.218   8.523  17.636 -0.4379 -0.1106  0.1682
 1544POPC   C1B18525   5.802   8.523  18.074  0.3067  0.0612 -0.0304
 1544POPC   C2B18526   5.798   8.774  17.676 -0.0974 -0.0196 -0.0542
 1544POPC   C3B18527   5.512   8.690  17.282  0.1702  0.0359  0.0822
 1544POPC   C4B18528   5.161   8.864  16.986  0.0286  0.1692  0.2826
 1545POPC   NC318529   8.847   6.850  13.946  0.2151  0.0052  0.1136
 1545POPC   PO418530   9.154   6.847  14.195 -0.2599 -0.0152 -0.1810
 1545POPC   GL118531   9.231   7.197  13.988 -0.2213 -0.3488 -0.2573
 1545POPC   GL218532   9.055   7.401  13.831 -0.1830  0.3071  0.1291
 1545POPC   C1A18533   9.517   7.367  13.608  0.0554 -0.1369 -0.0101
 1545POPC   D2A18534   9.507   7.756  13.309 -0.1837 -0.0164  0.1312
 1545POPC   C3A18535   9.437   8.080  13.591  0.1782 -0.1851  0.1587
 1545POPC   C4A18536   9.702   8.443  13.605 -0.0634 -0.0273  0.3614
 1545POPC   C1B18537   9.064   7.776  13.542  0.0516  0.2704 -0.1027
 1545POPC   C2B18538   8.935   8.142  13.363  0.1431  0.1441  0.0682
 1545POPC   C3B18539   8.520   8.383  13.146  0.3038  0.0339 -0.3361
 1545POPC   C4B18540   8.063   8.386  12.996  0.0507 -0.0101  0.3225
 1546POPC   NC318541   1.978   9.479  19.821  0.1670 -0.0952 -0.0257
 1546POPC   PO418542   2.078   9.628  20.209  0.0546  0.2548 -0.0917
 1546POPC   GL118543   1.920   9.896  19.967  0.2043 -0.0204 -0.1420
 1546POPC   GL218544   2.193   9.879  19.830 -0.0391  0.0041  0.2667
 1546POPC   C1A18545   1.494  10.068  19.800  0.1454  0.0227 -0.0007
 1546POPC   D2A18546   1.431  10.503  19.772 -0.1777 -0.1246  0.0196
 1546POPC   C3A18547   1.493  10.688  19.380 -0.0639  0.0556  0.0176
 1546POPC   C4A18548   1.640  10.792  18.993 -0.4448  0.0711  0.2082
 1546POPC   C1B18549   2.028   9.808  19.385 -0.0169  0.3949  0.1539
 1546POPC   C2B18550   1.796   9.682  19.014 -0.1694  0.2743  0.2477
 1546POPC   C3B18551   1.667   9.763  18.606  0.2500 -0.1431  0.0823
 1546POPC   C4B18552   1.790   9.685  18.213 -0.4464  0.0289  0.1312
 1547POPC   NC318553  32.627   2.400  20.384 -0.0340 -0.4013 -0.0369
 1547POPC   PO418554  32.530   2.550  20.026 -0.1682  0.0538 -0.1500
 1547POPC   GL118555  32.657   2.270  19.787 -0.1706  0.2503  0.3181
 1547POPC   GL218556  32.551   2.070  19.619 -0.0080  0.0536 -0.0466
 1547POPC   C1A18557  33.087   2.212  19.562 -0.2362  0.1069  0.1025
 1547POPC   D2A18558  33.184   2.241  19.064 -0.0761  0.0029  0.0556
 1547POPC   C3A18559  32.811   2.426  18.832 -0.0085  0.2212 -0.0625
 1547POPC   C4A18560  32.604   2.430  18.395 -0.0640  0.1929  0.0674
 1547POPC   C1B18561  32.766   2.024  19.229 -0.0329  0.0139  0.3576
 1547POPC   C2B18562  32.919   1.720  18.829  0.2510  0.0192  0.0821
 1547POPC   C3B18563  33.034   1.449  18.521  0.0186  0.4459 -0.3741
 1547POPC   C4B18564  32.807   1.027  18.504 -0.1215  0.3931 -0.1971
 1548POPC   NC318565  13.891  10.140  20.104 -0.4315  0.2126  0.0033
 1548POPC   PO418566  14.251   9.996  20.213  0.0179 -0.1248 -0.0794
 1548POPC   GL118567  14.330  10.029  19.851 -0.3459 -0.0637 -0.0162
 1548POPC   GL218568  14.520   9.883  19.788  0.2071  0.1424  0.0111
 1548POPC   C1A18569  14.245   9.906  19.380  0.1331  0.0872  0.4601
 1548POPC   D2A18570  14.500   9.765  19.007 -0.0620  0.2954 -0.0067
 1548POPC   C3A18571  14.637   9.308  18.989  0.1809 -0.2700 -0.0508
 1548POPC   C4A18572  14.826   9.142  19.332  0.1107 -0.1225 -0.0796
 1548POPC   C1B18573  14.666   9.600  19.480  0.0866  0.2540 -0.1688
 1548POPC   C2B18574  14.997   9.642  19.224 -0.0848  0.2690 -0.0902
 1548POPC   C3B18575  14.911   9.718  18.769 -0.1022 -0.4481 -0.2029
 1548POPC   C4B18576  14.627   9.527  18.488  0.0924  0.2171 -0.0238
 1549POPC   NC318577  31.993   7.609  19.661 -0.1140 -0.0005 -0.3104
 1549POPC   PO418578  32.252   7.347  19.780 -0.2909 -0.1716 -0.3008
 1549POPC   GL118579  32.492   7.363  19.455 -0.2318 -0.1021  0.2374
 1549POPC   GL218580  32.286   7.318  19.272  0.1364  0.1796 -0.1993
 1549POPC   C1A18581  32.574   7.731  19.112 -0.1221  0.0070  0.0077
 1549POPC   D2A18582  32.721   7.863  18.714  0.0862  0.0244 -0.0895
 1549POPC   C3A18583  32.373   7.835  18.388  0.2987  0.4054  0.1291
 1549POPC   C4A18584  32.238   7.808  17.970  0.1377  0.1494 -0.1822
 1549POPC   C1B18585  32.378   7.387  18.863  0.2540 -0.2204 -0.0163
 1549POPC   C2B18586  32.609   7.421  18.472 -0.1414 -0.1906 -0.2253
 1549POPC   C3B18587  32.744   7.680  18.098  0.0668  0.3189  0.0449
 1549POPC   C4B18588  33.156   7.958  18.045 -0.0740 -0.2053 -0.0027
 1550POPC   NC318589  13.794   9.521  20.154  0.2017 -0.0883  0.2432
 1550POPC   PO418590  13.415   9.675  20.087  0.0358 -0.1531 -0.2344
 1550POPC   GL118591  13.523   9.924  19.667  0.0795  0.4185 -0.1337
 1550POPC   GL218592  13.295   9.889  19.505 -0.1361  0.2983  0.1533
 1550POPC   C1A18593  13.879  10.188  19.549  0.0925  0.1132  0.1241
 1550POPC   D2A18594  14.083  10.369  19.135  0.0690 -0.3000 -0.1033
 1550POPC   C3A18595  13.908  10.391  18.704  0.1266  0.0634 -0.0182
 1550POPC   C4A18596  14.050  10.334  18.247  0.0666 -0.2924 -0.0132
 1550POPC   C1B18597  13.250   9.481  19.209  0.0326  0.0126 -0.1309
 1550POPC   C2B18598  13.177   9.369  18.827 -0.1162 -0.1122  0.2549
 1550POPC   C3B18599  13.245   9.287  18.425 -0.0372  0.2015 -0.2959
 1550POPC   C4B18600  13.199   9.453  17.991  0.2573 -0.0905  0.0270
 1551POPC   NC318601   8.814   4.175  14.899 -0.0260 -0.1569 -0.3122
 1551POPC   PO418602   9.136   4.169  14.677 -0.2120  0.1115  0.1973
 1551POPC   GL118603   9.029   4.026  14.282  0.3103 -0.2473 -0.1044
 1551POPC   GL218604   9.067   3.762  14.334  0.1004 -0.0028 -0.0089
 1551POPC   C1A18605   9.239   3.972  13.849  0.0155  0.0802  0.2445
 1551POPC   D2A18606   9.584   3.873  13.608 -0.2190 -0.1295  0.1717
 1551POPC   C3A18607   9.755   3.524  13.354 -0.0261  0.1881 -0.0236
 1551POPC   C4A18608   9.962   3.599  12.915 -0.6653  0.0463 -0.0501
 1551POPC   C1B18609   8.873   3.643  13.932  0.0555 -0.0556  0.1070
 1551POPC   C2B18610   8.581   3.716  13.555  0.2084  0.0325 -0.0797
 1551POPC   C3B18611   8.603   3.689  13.080  0.0166 -0.4227 -0.0629
 1551POPC   C4B18612   8.733   3.909  12.700 -0.0179  0.0488  0.1308
 1552POPC   NC318613   4.216   8.155  19.708 -0.2895  0.2906 -0.2316
 1552POPC   PO418614   4.004   8.369  19.953 -0.1278  0.1522 -0.2181
 1552POPC   GL118615   3.934   8.605  19.661 -0.2123  0.0900 -0.0187
 1552POPC   GL218616   3.961   8.852  19.553 -0.0867 -0.0199  0.3219
 1552POPC   C1A18617   3.602   8.626  19.337 -0.2855  0.0831 -0.0033
 1552POPC   D2A18618   3.306   8.748  19.036  0.2394 -0.2206  0.0559
 1552POPC   C3A18619   3.247   9.211  19.067  0.1030  0.0074  0.2014
 1552POPC   C4A18620   3.303   9.488  18.719  0.1394  0.1300  0.2142
 1552POPC   C1B18621   3.702   9.083  19.178 -0.0879 -0.0349 -0.0572
 1552POPC   C2B18622   3.589   9.061  18.747  0.0330  0.1011 -0.0074
 1552POPC   C3B18623   3.480   9.220  18.324 -0.1851  0.0266  0.2121
 1552POPC   C4B18624   3.257   9.612  18.234  0.0749  0.1039 -0.0738
 1553POPC   NC318625  11.374   8.621  19.143  0.1080 -0.2550 -0.1280
 1553POPC   PO418626  11.037   8.523  18.984 -0.1290  0.0749  0.0353
 1553POPC   GL118627  11.228   8.732  18.705  0.1432 -0.1956  0.0826
 1553POPC   GL218628  11.199   9.012  18.811 -0.0396 -0.1643  0.0374
 1553POPC   C1A18629  11.570   8.878  18.421  0.4041 -0.1021 -0.1447
 1553POPC   D2A18630  11.713   9.222  18.102 -0.1360  0.0292 -0.2982
 1553POPC   C3A18631  11.503   9.585  17.928 -0.2234  0.2696 -0.0719
 1553POPC   C4A18632  11.713   9.997  17.893  0.0393 -0.2028  0.0706
 1553POPC   C1B18633  11.187   9.444  18.606  0.0973  0.2578  0.2664
 1553POPC   C2B18634  11.064   9.653  18.217  0.0537  0.1277  0.0741
 1553POPC   C3B18635  11.093   9.617  17.744  0.1546  0.0274  0.0240
 1553POPC   C4B18636  11.078   9.458  17.300  0.1145 -0.1135 -0.0409
 1554POPC   NC318637  11.659  15.002  20.154  0.2806 -0.2127  0.2792
 1554POPC   PO418638  11.308  15.208  20.169 -0.2050 -0.0017  0.2400
 1554POPC   GL118639  11.441  15.379  19.830  0.1969  0.0847 -0.1619
 1554POPC   GL218640  11.695  15.350  19.802  0.1016 -0.1809  0.2340
 1554POPC   C1A18641  11.351  15.174  19.410 -0.1300  0.1064  0.0489
 1554POPC   D2A18642  11.198  14.796  19.223 -0.0043 -0.0307  0.1204
 1554POPC   C3A18643  11.504  14.573  18.927  0.0146  0.0431  0.1479
 1554POPC   C4A18644  11.583  14.193  18.734 -0.0953  0.1501  0.1482
 1554POPC   C1B18645  12.028  15.194  19.452  0.2997  0.0182  0.0603
 1554POPC   C2B18646  12.275  15.262  19.095  0.6155  0.0112  0.3327
 1554POPC   C3B18647  12.219  15.369  18.631 -0.1687  0.1176  0.1961
 1554POPC   C4B18648  11.922  15.422  18.280 -0.0368  0.0491  0.0459
 1555POPC   NC318649  11.671  10.671  20.333 -0.1384  0.0614 -0.1044
 1555POPC   PO418650  12.024  10.861  20.355 -0.0736  0.0100 -0.0329
 1555POPC   GL118651  12.051  11.242  20.086  0.2378  0.4749 -0.2299
 1555POPC   GL218652  11.959  11.491  19.990  0.0078  0.3021  0.0485
 1555POPC   C1A18653  11.998  11.170  19.598  0.0047 -0.0847 -0.1316
 1555POPC   D2A18654  12.103  11.040  19.197 -0.0882 -0.1105  0.3305
 1555POPC   C3A18655  11.920  11.084  18.768  0.1832 -0.0598 -0.0093
 1555POPC   C4A18656  11.930  11.307  18.377  0.3914 -0.1728 -0.2037
 1555POPC   C1B18657  11.715  11.659  19.659  0.0981  0.3458 -0.3863
 1555POPC   C2B18658  11.359  11.724  19.334 -0.3630 -0.3354  0.1159
 1555POPC   C3B18659  11.331  11.763  18.884  0.2942 -0.4207  0.2624
 1555POPC   C4B18660  10.907  11.695  18.703 -0.0364  0.2679 -0.0285
 1556POPC   NC318661  13.299   1.866  18.785 -0.1810 -0.0495 -0.0125
 1556POPC   PO418662  13.089   1.697  19.130 -0.2784 -0.2136  0.2426
 1556POPC   GL118663  12.966   1.421  18.885 -0.0291 -0.0029 -0.5197
 1556POPC   GL218664  12.702   1.334  19.052 -0.2093  0.2321 -0.0580
 1556POPC   C1A18665  13.020   1.433  18.436  0.0348 -0.0158 -0.5032
 1556POPC   D2A18666  13.048   1.326  17.964 -0.0570 -0.1708  0.1730
 1556POPC   C3A18667  12.844   1.064  17.634 -0.3314 -0.1962  0.2534
 1556POPC   C4A18668  12.706   1.098  17.153 -0.1219  0.1482 -0.1033
 1556POPC   C1B18669  12.503   1.211  18.665 -0.1865  0.2431 -0.3136
 1556POPC   C2B18670  12.713   1.080  18.265  0.1952 -0.1546  0.2631
 1556POPC   C3B18671  13.040   0.756  18.125 -0.0981  0.2240  0.0255
 1556POPC   C4B18672  13.189   0.731  17.653  0.0398 -0.1233  0.0074
 1557POPC   NC318673  11.852   5.780  17.666 -0.1611 -0.1072 -0.0470
 1557POPC   PO418674  11.460   5.787  17.587 -0.3456  0.0523  0.0621
 1557POPC   GL118675  11.573   6.052  17.289  0.0205 -0.0995  0.0087
 1557POPC   GL218676  11.660   6.202  17.503 -0.0021 -0.3118 -0.0945
 1557POPC   C1A18677  11.977   6.204  17.038 -0.2484  0.0329  0.0542
 1557POPC   D2A18678  12.325   6.388  16.813 -0.1408 -0.3110  0.0365
 1557POPC   C3A18679  12.115   6.679  16.534 -0.3859  0.1677  0.3506
 1557POPC   C4A18680  12.216   6.801  16.084 -0.0405 -0.1735  0.1547
 1557POPC   C1B18681  11.616   6.568  17.178 -0.0432 -0.2894  0.1968
 1557POPC   C2B18682  11.723   6.734  16.792 -0.0554 -0.0484  0.0789
 1557POPC   C3B18683  11.803   7.046  16.418 -0.0318 -0.0745  0.3325
 1557POPC   C4B18684  11.819   7.051  15.977  0.0943  0.1591  0.0315
 1558POPC   NC318685  11.017   0.173  19.909 -0.2655 -0.2136 -0.3760
 1558POPC   PO418686  10.897   0.068  19.585  0.0739  0.0421  0.0559
 1558POPC   GL118687  10.884  -0.010  19.234  0.1305 -0.1510 -0.0884
 1558POPC   GL218688  11.093  -0.249  19.152  0.1832  0.1384  0.4289
 1558POPC   C1A18689  11.194   0.151  18.869 -0.0026  0.0561  0.1125
 1558POPC   D2A18690  11.609  -0.027  18.721 -0.1030  0.3316  0.2370
 1558POPC   C3A18691  11.713  -0.159  18.304  0.1831 -0.1521  0.2615
 1558POPC   C4A18692  11.685  -0.325  17.892  0.1174 -0.1267  0.1833
 1558POPC   C1B18693  11.257  -0.382  18.719 -0.0597 -0.0909  0.2891
 1558POPC   C2B18694  11.305  -0.423  18.240 -0.2208 -0.0176  0.1840
 1558POPC   C3B18695  11.211  -0.178  17.857 -0.2100  0.0842  0.0813
 1558POPC   C4B18696  11.091  -0.068  17.431  0.3060 -0.1120 -0.1156
 1559POPC   NC318697   1.018  14.280  21.003 -0.1202 -0.1850  0.1335
 1559POPC   PO418698   1.186  14.210  20.636 -0.3059  0.4168  0.0325
 1559POPC   GL118699   1.268  14.015  20.338 -0.2522 -0.2789 -0.3991
 1559POPC   GL218700   1.165  14.145  20.124 -0.1241 -0.0649  0.1624
 1559POPC   C1A18701   1.639  13.823  20.192 -0.0710  0.0894 -0.0006
 1559POPC   D2A18702   1.892  13.842  19.786  0.0666  0.0235 -0.1084
 1559POPC   C3A18703   1.705  13.905  19.354 -0.1724 -0.1379  0.0405
 1559POPC   C4A18704   1.489  13.877  18.953  0.0123 -0.1531 -0.2755
 1559POPC   C1B18705   1.198  14.647  19.993  0.1216  0.1601  0.2253
 1559POPC   C2B18706   1.155  14.910  19.613  0.0964  0.0387  0.3961
 1559POPC   C3B18707   0.862  15.110  19.284 -0.1646  0.0387  0.1961
 1559POPC   C4B18708   0.845  15.093  18.839  0.2774 -0.1602 -0.2244
 1560POPC   NC318709   6.999  11.022  19.871  0.3158  0.0773 -0.1283
 1560POPC   PO418710   7.362  10.872  19.833  0.3161  0.1508 -0.0557
 1560POPC   GL118711   7.188  10.850  19.446 -0.2027 -0.4272  0.1106
 1560POPC   GL218712   7.059  10.614  19.489 -0.2025 -0.0959  0.2449
 1560POPC   C1A18713   7.032  11.230  19.193  0.1337  0.3480 -0.0090
 1560POPC   D2A18714   6.973  11.461  18.827 -0.1542  0.0642  0.0627
 1560POPC   C3A18715   6.978  11.067  18.544  0.1467  0.1470  0.1380
 1560POPC   C4A18716   6.893  10.994  18.096  0.0753 -0.1370 -0.1680
 1560POPC   C1B18717   6.928  10.719  19.038  0.0175 -0.1742  0.1503
 1560POPC   C2B18718   6.833  10.551  18.618 -0.2517  0.0469  0.2612
 1560POPC   C3B18719   6.929  10.519  18.168  0.0503  0.2790  0.1363
 1560POPC   C4B18720   6.990  10.570  17.696  0.0040 -0.2345  0.0647
 1561POPC   NC318721   6.660   1.758  19.193 -0.2033 -0.1822 -0.1701
 1561POPC   PO418722   6.871   2.090  19.229  0.1595  0.3090  0.0202
 1561POPC   GL118723   6.766   2.031  18.848 -0.1793  0.4635  0.0261
 1561POPC   GL218724   6.546   2.222  18.826 -0.1469 -0.0028  0.0188
 1561POPC   C1A18725   6.645   2.115  18.382  0.0535 -0.0267  0.3774
 1561POPC   D2A18726   6.801   2.131  17.958  0.0180 -0.0214  0.3848
 1561POPC   C3A18727   6.653   1.958  17.525  0.0235 -0.4323 -0.1417
 1561POPC   C4A18728   6.595   1.787  17.120  0.2444 -0.1376  0.0680
 1561POPC   C1B18729   6.395   1.829  18.680 -0.1063  0.0757  0.1741
 1561POPC   C2B18730   6.491   1.556  18.309 -0.1248 -0.0631  0.2904
 1561POPC   C3B18731   6.724   1.370  18.023 -0.1007  0.0241  0.2103
 1561POPC   C4B18732   6.825   1.255  17.591 -0.1944  0.1234 -0.1847
 1562POPC   NC318733   4.342   8.674  19.834 -0.1940 -0.4485 -0.0613
 1562POPC   PO418734   4.700   8.526  19.796 -0.1364  0.2179  0.0608
 1562POPC   GL118735   4.509   8.475  19.448  0.0303 -0.2319 -0.0234
 1562POPC   GL218736   4.602   8.216  19.377 -0.1326  0.2661 -0.0851
 1562POPC   C1A18737   4.109   8.502  19.237 -0.1085  0.0643 -0.0486
 1562POPC   D2A18738   3.916   8.747  18.915  0.2547 -0.1363  0.0895
 1562POPC   C3A18739   3.808   8.702  18.524 -0.1117 -0.3382  0.3470
 1562POPC   C4A18740   3.633   8.858  18.066  0.2329  0.1078 -0.3799
 1562POPC   C1B18741   4.461   8.272  18.884  0.2071 -0.3973 -0.2333
 1562POPC   C2B18742   4.124   8.231  18.634  0.2245 -0.0961  0.1240
 1562POPC   C3B18743   3.901   8.221  18.196 -0.0167 -0.2131 -0.0806
 1562POPC   C4B18744   4.023   8.172  17.733  0.1204  0.3559 -0.0696
 1563POPC   NC318745   7.000   8.473  19.933 -0.0884  0.0051  0.0559
 1563POPC   PO418746   6.893   8.791  19.808  0.1229  0.1997 -0.1024
 1563POPC   GL118747   6.777   8.916  19.396  0.0476 -0.0213 -0.3059
 1563POPC   GL218748   6.915   9.143  19.397  0.0842  0.1027 -0.0957
 1563POPC   C1A18749   6.836   8.851  18.963  0.0970  0.3156 -0.2037
 1563POPC   D2A18750   6.775   8.618  18.573  0.1962 -0.0488  0.0233
 1563POPC   C3A18751   6.987   8.660  18.186 -0.1919  0.1198  0.0505
 1563POPC   C4A18752   7.206   8.934  17.923  0.1224 -0.2648  0.0791
 1563POPC   C1B18753   6.718   9.334  18.991 -0.0687 -0.1402 -0.1118
 1563POPC   C2B18754   6.561   9.552  18.611 -0.3288 -0.0695 -0.0397
 1563POPC   C3B18755   6.471   9.604  18.178  0.2303 -0.0086 -0.1426
 1563POPC   C4B18756   6.208   9.743  17.785 -0.2702 -0.2071  0.0316
 1564POPC   NC318757  12.415   3.015  18.389  0.1966 -0.0637  0.1785
 1564POPC   PO418758  12.449   2.699  18.556  0.3770  0.1759  0.1037
 1564POPC   GL118759  12.567   2.567  18.225  0.0663 -0.0908  0.0081
 1564POPC   GL218760  12.891   2.601  18.318 -0.1465 -0.4504  0.0339
 1564POPC   C1A18761  12.676   2.358  17.827  0.3129 -0.1944 -0.0650
 1564POPC   D2A18762  12.955   2.393  17.498  0.2482 -0.1477 -0.0580
 1564POPC   C3A18763  13.045   2.335  17.045 -0.1138  0.0691 -0.1831
 1564POPC   C4A18764  13.453   2.260  16.784 -0.0696  0.1298 -0.0097
 1564POPC   C1B18765  13.154   2.360  18.054  0.2010  0.1952 -0.1052
 1564POPC   C2B18766  13.340   2.123  17.700  0.4058  0.0241 -0.1618
 1564POPC   C3B18767  13.522   2.313  17.337  0.0791  0.2448 -0.0315
 1564POPC   C4B18768  13.863   2.547  17.169 -0.0320  0.0086  0.0724
 1565POPC   NC318769  11.703   0.304  19.735  0.1967  0.3983  0.0256
 1565POPC   PO418770  11.358   0.355  19.586  0.3501 -0.1361  0.1714
 1565POPC   GL118771  11.536   0.178  19.336  0.2083  0.2623  0.1503
 1565POPC   GL218772  11.778   0.247  19.112 -0.1076  0.1296 -0.0447
 1565POPC   C1A18773  11.562  -0.297  19.261  0.1237  0.2694  0.0575
 1565POPC   D2A18774  11.585  -0.638  18.991  0.0826 -0.2884 -0.1939
 1565POPC   C3A18775  11.681  -0.654  18.483 -0.0848 -0.1988  0.1377
 1565POPC   C4A18776  11.943  -0.816  18.177 -0.4113 -0.0215 -0.1449
 1565POPC   C1B18777  12.079   0.160  18.760 -0.3008  0.2234  0.1310
 1565POPC   C2B18778  12.440   0.057  18.431 -0.0597  0.0540 -0.0655
 1565POPC   C3B18779  12.647  -0.009  18.062 -0.0353  0.2893 -0.0543
 1565POPC   C4B18780  13.052  -0.262  18.102  0.0291 -0.1452  0.1168
 1566POPC   NC318781   7.920   4.197  16.292 -0.2068 -0.2772  0.1972
 1566POPC   PO418782   8.275   4.144  16.130 -0.0901  0.2188  0.1163
 1566POPC   GL118783   8.106   3.798  16.121  0.0124  0.0206  0.0180
 1566POPC   GL218784   8.026   3.661  16.318 -0.2491  0.0788  0.0250
 1566POPC   C1A18785   8.002   3.509  15.768 -0.2254  0.2000  0.0038
 1566POPC   D2A18786   7.869   3.295  15.376 -0.3520  0.1146  0.2230
 1566POPC   C3A18787   7.501   3.137  15.066 -0.1255  0.0927 -0.0804
 1566POPC   C4A18788   7.115   3.273  14.838  0.2144 -0.2236 -0.1245
 1566POPC   C1B18789   7.648   3.762  16.027 -0.1409  0.0760  0.4306
 1566POPC   C2B18790   7.506   3.649  15.603  0.0578 -0.0194  0.0950
 1566POPC   C3B18791   7.448   3.594  15.130  0.1703 -0.1717  0.2109
 1566POPC   C4B18792   7.480   3.495  14.638  0.0464 -0.2049 -0.0729
 1567POPC   NC318793  11.464   6.254  10.916 -0.2143  0.0493  0.0919
 1567POPC   PO418794  11.116   6.137  11.018 -0.0210  0.0967 -0.1755
 1567POPC   GL118795  11.289   6.518  11.296 -0.1512 -0.4157 -0.0273
 1567POPC   GL218796  11.269   6.326  11.534 -0.1233 -0.0285  0.2464
 1567POPC   C1A18797  11.391   6.915  11.430  0.0085  0.2604 -0.3601
 1567POPC   D2A18798  11.727   7.233  11.579 -0.4123 -0.0281  0.1228
 1567POPC   C3A18799  11.965   7.338  11.177 -0.0444  0.0575 -0.4441
 1567POPC   C4A18800  12.145   7.773  11.060 -0.0908  0.1128 -0.2039
 1567POPC   C1B18801  11.690   6.440  11.639  0.3780  0.0906 -0.0660
 1567POPC   C2B18802  11.987   6.781  11.639  0.0580 -0.0104 -0.1872
 1567POPC   C3B18803  12.322   6.956  11.385 -0.2168  0.0560  0.2142
 1567POPC   C4B18804  12.460   7.077  10.957  0.2403 -0.0887  0.0068
 1568POPC   NC318805   5.285  14.385  20.516 -0.0541 -0.1292  0.0711
 1568POPC   PO418806   5.663  14.319  20.576 -0.0799 -0.0083  0.0063
 1568POPC   GL118807   5.670  14.205  20.275 -0.0597  0.2727 -0.0811
 1568POPC   GL218808   5.926  14.210  20.054  0.0271  0.2926  0.3015
 1568POPC   C1A18809   5.260  14.231  20.033  0.0772  0.2061  0.2806
 1568POPC   D2A18810   4.884  14.044  19.927  0.0318 -0.0559 -0.2383
 1568POPC   C3A18811   4.601  14.317  19.751 -0.0785  0.0722  0.2652
 1568POPC   C4A18812   4.286  14.501  19.531  0.1253  0.3343  0.2234
 1568POPC   C1B18813   5.667  14.491  19.789 -0.4222 -0.1273 -0.0067
 1568POPC   C2B18814   5.674  14.778  19.435  0.0333  0.3002  0.1261
 1568POPC   C3B18815   5.560  15.017  19.051  0.0226 -0.0766 -0.1859
 1568POPC   C4B18816   5.775  15.167  18.665 -0.1721 -0.0502  0.0785
 1569POPC   NC318817  10.835   6.027  13.402 -0.1647 -0.0747 -0.1795
 1569POPC   PO418818  10.630   5.815  13.693 -0.1070 -0.1474  0.2721
 1569POPC   GL118819  10.780   6.020  14.014  0.0135 -0.0568 -0.1892
 1569POPC   GL218820  10.864   6.233  13.880  0.5651  0.0749  0.1169
 1569POPC   C1A18821  11.230   5.969  14.219  0.1005 -0.1983 -0.0119
 1569POPC   D2A18822  11.505   6.276  14.407 -0.2796 -0.1764 -0.0474
 1569POPC   C3A18823  11.577   6.282  14.834  0.1808  0.0675 -0.1928
 1569POPC   C4A18824  11.381   6.027  15.175  0.0069 -0.3575  0.2105
 1569POPC   C1B18825  11.226   5.963  13.711 -0.0227 -0.0820  0.1347
 1569POPC   C2B18826  11.408   5.575  13.500 -0.2669  0.2279  0.3848
 1569POPC   C3B18827  11.458   5.188  13.238  0.3063 -0.1418  0.1826
 1569POPC   C4B18828  11.780   4.917  13.008 -0.1354 -0.1371 -0.2009
 1570POPC   NC318829   3.567  17.778  19.963 -0.1458 -0.0376 -0.1147
 1570POPC   PO418830   3.851  18.035  19.990  0.0388  0.1938 -0.0538
 1570POPC   GL118831   3.758  17.983  19.597 -0.3682 -0.0734  0.2846
 1570POPC   GL218832   3.444  18.044  19.567  0.1765  0.0468  0.3088
 1570POPC   C1A18833   3.844  17.773  19.193 -0.1789 -0.0025  0.0052
 1570POPC   D2A18834   3.656  17.592  18.796  0.2232  0.1593  0.1229
 1570POPC   C3A18835   3.526  17.487  18.394 -0.5156 -0.3319  0.1285
 1570POPC   C4A18836   3.259  17.172  18.215 -0.2129 -0.2643 -0.0265
 1570POPC   C1B18837   3.312  17.896  19.170  0.0869 -0.0657  0.1323
 1570POPC   C2B18838   3.188  17.770  18.652  0.3052  0.2389 -0.2557
 1570POPC   C3B18839   2.944  17.566  18.331 -0.2088  0.2899  0.0514
 1570POPC   C4B18840   2.618  17.716  18.101 -0.1320 -0.1931  0.2592
 1571POPC   NC318841  11.054   9.629  19.789 -0.1224 -0.1054 -0.1878
 1571POPC   PO418842  11.375   9.414  19.766  0.1281  0.2077 -0.1207
 1571POPC   GL118843  11.457   9.606  19.380  0.0018 -0.1292 -0.4848
 1571POPC   GL218844  11.639   9.462  19.222 -0.1722  0.2027 -0.2634
 1571POPC   C1A18845  11.776   9.922  19.216 -0.0319 -0.2158 -0.0643
 1571POPC   D2A18846  11.965  10.067  18.878 -0.2826  0.1328 -0.0857
 1571POPC   C3A18847  12.150  10.204  18.538  0.1980  0.1586  0.2953
 1571POPC   C4A18848  11.934  10.338  18.128 -0.1835  0.0808 -0.6170
 1571POPC   C1B18849  11.979   9.558  18.989  0.2007 -0.0688 -0.1215
 1571POPC   C2B18850  12.180   9.712  18.580  0.0549 -0.0071 -0.2639
 1571POPC   C3B18851  12.583   9.966  18.473  0.0919  0.0010  0.0922
 1571POPC   C4B18852  12.946  10.218  18.236  0.0070 -0.0041 -0.0981
 1572POPC   NC318853   3.593   3.914  19.476 -0.3606 -0.1610 -0.1196
 1572POPC   PO418854   3.966   3.944  19.417 -0.1500  0.1333  0.1854
 1572POPC   GL118855   4.035   4.120  19.088  0.3955 -0.0777  0.0785
 1572POPC   GL218856   4.121   4.064  18.789 -0.3541 -0.0070 -0.0325
 1572POPC   C1A18857   3.731   4.367  18.881 -0.0951  0.2678 -0.0978
 1572POPC   D2A18858   3.557   4.610  18.472 -0.1502  0.1264 -0.0558
 1572POPC   C3A18859   3.577   4.564  18.022  0.0896  0.2122 -0.1467
 1572POPC   C4A18860   3.529   4.644  17.589  0.4142 -0.0746  0.1227
 1572POPC   C1B18861   3.696   3.944  18.611  0.3443 -0.1481  0.0350
 1572POPC   C2B18862   3.257   3.767  18.449  0.2991  0.2558 -0.0044
 1572POPC   C3B18863   2.954   3.851  18.052 -0.1326  0.0029  0.2400
 1572POPC   C4B18864   2.633   3.676  17.713  0.0077  0.3049 -0.0479
 1573POPC   NC318865   1.705  11.844  20.344 -0.2820  0.0278  0.1295
 1573POPC   PO418866   1.430  11.620  20.381  0.1907  0.0961  0.0107
 1573POPC   GL118867   1.342  11.715  20.061  0.0158  0.3444  0.1136
 1573POPC   GL218868   1.471  11.951  19.941  0.4167 -0.0284 -0.1300
 1573POPC   C1A18869   1.318  11.638  19.569 -0.0404 -0.0589 -0.1244
 1573POPC   D2A18870   1.324  11.810  19.154 -0.0810  0.0068 -0.3690
 1573POPC   C3A18871   0.953  11.865  18.928 -0.1859  0.1152  0.0797
 1573POPC   C4A18872   0.622  11.547  18.782  0.3164  0.0147  0.2052
 1573POPC   C1B18873   1.634  12.062  19.483 -0.0518  0.0848  0.1459
 1573POPC   C2B18874   1.816  11.979  19.047 -0.1010 -0.0702 -0.3487
 1573POPC   C3B18875   2.177  12.151  18.822  0.0546  0.0957  0.0606
 1573POPC   C4B18876   2.517  12.278  18.537 -0.1422 -0.1115  0.1828
 1574POPC   NC318877   6.314  11.277  20.190 -0.0133 -0.0979 -0.0738
 1574POPC   PO418878   6.560  10.966  20.051 -0.0501 -0.3181  0.1887
 1574POPC   GL118879   6.413  11.133  19.693  0.2901  0.0080  0.1510
 1574POPC   GL218880   6.177  11.165  19.562 -0.0394  0.1058  0.0328
 1574POPC   C1A18881   6.609  11.455  19.424 -0.1627  0.0303  0.0769
 1574POPC   D2A18882   6.956  11.745  19.245  0.0227  0.1124  0.2357
 1574POPC   C3A18883   6.992  11.959  18.809  0.1718  0.1623  0.0707
 1574POPC   C4A18884   6.984  12.118  18.405  0.1071  0.3330  0.1889
 1574POPC   C1B18885   6.200  11.366  19.149  0.2784 -0.2147  0.1728
 1574POPC   C2B18886   6.521  11.572  18.871  0.2784  0.0193 -0.0563
 1574POPC   C3B18887   6.561  11.831  18.477  0.0981  0.1913  0.1429
 1574POPC   C4B18888   6.362  12.038  18.099  0.2566 -0.0921 -0.1527
 1575POPC   NC318889  12.007  13.933  20.054  0.1996  0.3176  0.3008
 1575POPC   PO418890  12.226  14.055  20.315  0.1795 -0.2817  0.1641
 1575POPC   GL118891  12.378  14.273  20.056 -0.2586 -0.0394 -0.0931
 1575POPC   GL218892  12.331  14.566  20.083 -0.3297 -0.4507 -0.0241
 1575POPC   C1A18893  12.504  14.019  19.697 -0.0443 -0.1337  0.4606
 1575POPC   D2A18894  12.864  14.001  19.356 -0.2653 -0.1343  0.1045
 1575POPC   C3A18895  13.180  13.872  19.093 -0.2437 -0.0468 -0.0736
 1575POPC   C4A18896  13.240  13.586  18.709  0.1832 -0.1205 -0.4322
 1575POPC   C1B18897  12.218  14.434  19.674  0.1467  0.0385 -0.1182
 1575POPC   C2B18898  12.297  14.266  19.223  0.0375 -0.0191 -0.3768
 1575POPC   C3B18899  12.588  14.117  18.902 -0.1741 -0.0203 -0.1838
 1575POPC   C4B18900  12.862  14.020  18.597  0.0647  0.0297 -0.2014
 1576POPC   NC318901   4.141  15.534  20.650 -0.0631  0.5217 -0.0730
 1576POPC   PO418902   4.160  15.249  20.399 -0.0049 -0.4152 -0.1925
 1576POPC   GL118903   4.222  15.420  20.141 -0.1026 -0.3622 -0.0870
 1576POPC   GL218904   4.070  15.750  20.175 -0.0821  0.0601 -0.1130
 1576POPC   C1A18905   4.349  15.433  19.728 -0.4791  0.3072 -0.2280
 1576POPC   D2A18906   4.275  15.419  19.293 -0.1682 -0.0221  0.1257
 1576POPC   C3A18907   3.791  15.295  19.237  0.0185 -0.2637 -0.0131
 1576POPC   C4A18908   3.349  15.127  19.212 -0.3273  0.1590 -0.0903
 1576POPC   C1B18909   3.722  15.982  19.942 -0.0703  0.2971 -0.0483
 1576POPC   C2B18910   3.511  16.343  19.718  0.2164  0.2913  0.0540
 1576POPC   C3B18911   3.392  16.621  19.368 -0.2403 -0.0169  0.2581
 1576POPC   C4B18912   3.362  16.846  18.985  0.0272  0.1818 -0.1185
 1577POPC   NC318913   8.169  12.936  20.331  0.0724  0.1467  0.1066
 1577POPC   PO418914   8.069  13.291  20.224 -0.3175  0.0576 -0.0613
 1577POPC   GL118915   8.138  13.454  19.832 -0.3524  0.0489  0.0188
 1577POPC   GL218916   8.211  13.197  19.779  0.2144 -0.1820  0.1331
 1577POPC   C1A18917   8.498  13.524  19.536 -0.1732 -0.3095  0.0014
 1577POPC   D2A18918   8.544  13.307  19.094 -0.3282 -0.1765 -0.1233
 1577POPC   C3A18919   8.980  13.103  19.086  0.0560 -0.1414  0.2493
 1577POPC   C4A18920   9.218  13.170  18.693 -0.1606 -0.5630 -0.0166
 1577POPC   C1B18921   7.986  13.222  19.392 -0.0314  0.1178 -0.0870
 1577POPC   C2B18922   7.584  13.327  19.112 -0.0811 -0.2743 -0.1341
 1577POPC   C3B18923   7.311  13.173  18.813  0.0109 -0.0641  0.3385
 1577POPC   C4B18924   7.025  13.264  18.385 -0.3228 -0.2551  0.0112
 1578POPC   NC318925   1.016   3.791  19.894  0.1237  0.1369 -0.2247
 1578POPC   PO418926   1.250   3.581  20.078 -0.2716 -0.1734 -0.1122
 1578POPC   GL118927   1.302   3.458  19.741  0.0493  0.0820  0.0916
 1578POPC   GL218928   1.643   3.457  19.730 -0.1350  0.2516  0.1115
 1578POPC   C1A18929   1.297   3.803  19.443  0.1835  0.1419  0.4408
 1578POPC   D2A18930   1.311   3.888  18.953  0.3027 -0.0444  0.1333
 1578POPC   C3A18931   1.193   3.791  18.521 -0.1176 -0.0340  0.0359
 1578POPC   C4A18932   1.410   3.650  18.145 -0.2893 -0.0272 -0.1686
 1578POPC   C1B18933   1.645   3.431  19.286 -0.0578  0.1519 -0.1364
 1578POPC   C2B18934   1.507   3.433  18.874  0.4138 -0.1263 -0.2239
 1578POPC   C3B18935   1.556   3.187  18.451  0.2926 -0.0578  0.1505
 1578POPC   C4B18936   1.563   3.047  18.025  0.1603 -0.0235  0.1622
 1579POPC   NC318937  13.474  14.105  19.921  0.2567 -0.0383 -0.2456
 1579POPC   PO418938  13.619  13.867  20.200 -0.3305  0.1274 -0.0385
 1579POPC   GL118939  13.890  13.596  19.950  0.3884  0.1049  0.1440
 1579POPC   GL218940  13.843  13.760  19.671  0.1895 -0.3117 -0.0658
 1579POPC   C1A18941  13.859  13.192  19.767  0.4433  0.2688 -0.0721
 1579POPC   D2A18942  14.011  12.984  19.429  0.0531 -0.1256  0.0506
 1579POPC   C3A18943  13.816  12.591  19.171 -0.1868  0.0177 -0.2957
 1579POPC   C4A18944  13.839  12.135  19.148  0.0429  0.0836  0.0109
 1579POPC   C1B18945  14.077  13.609  19.331  0.2654 -0.3505 -0.1882
 1579POPC   C2B18946  14.307  13.596  19.001 -0.4379 -0.0448  0.2839
 1579POPC   C3B18947  14.600  13.473  18.599 -0.1980 -0.3066 -0.1420
 1579POPC   C4B18948  14.939  13.184  18.468 -0.0894  0.0980  0.0101
 1580POPC   NC318949   2.949   0.899  20.603 -0.2721  0.0022 -0.3952
 1580POPC   PO418950   3.311   0.945  20.454 -0.1356  0.1734 -0.1729
 1580POPC   GL118951   3.440   0.893  20.048  0.0061 -0.0777 -0.2264
 1580POPC   GL218952   3.702   0.828  20.053  0.0094 -0.2004 -0.1840
 1580POPC   C1A18953   3.400   1.148  19.657 -0.1161  0.0614  0.1161
 1580POPC   D2A18954   3.687   1.287  19.295  0.1108 -0.2362 -0.2769
 1580POPC   C3A18955   3.555   1.049  18.909 -0.0656  0.1257  0.0293
 1580POPC   C4A18956   3.537   1.050  18.435 -0.1772  0.1317  0.0110
 1580POPC   C1B18957   3.802   0.744  19.639 -0.1218 -0.1829  0.0827
 1580POPC   C2B18958   3.989   0.400  19.301 -0.1436 -0.0234 -0.5661
 1580POPC   C3B18959   3.893   0.134  18.907  0.0177  0.3259 -0.1212
 1580POPC   C4B18960   3.668   0.103  18.593  0.0442  0.0875  0.3210
 1581POPC   NC318961  11.184  13.833  20.464  0.0787 -0.1367  0.0341
 1581POPC   PO418962  11.183  14.245  20.403  0.0540  0.1530  0.4260
 1581POPC   GL118963  10.903  14.338  20.053  0.1942  0.1696  0.1372
 1581POPC   GL218964  10.771  14.055  20.046  0.5209  0.0896 -0.0276
 1581POPC   C1A18965  11.031  14.451  19.633 -0.0367  0.0437 -0.1631
 1581POPC   D2A18966  11.343  14.301  19.286 -0.0597  0.0281  0.2329
 1581POPC   C3A18967  11.067  14.300  18.885  0.3134  0.1233  0.1394
 1581POPC   C4A18968  10.983  14.594  18.503 -0.4357 -0.0694 -0.0691
 1581POPC   C1B18969  10.778  13.676  19.743 -0.1954  0.1938 -0.0050
 1581POPC   C2B18970  11.142  13.488  19.432  0.0372  0.1528  0.3368
 1581POPC   C3B18971  11.313  13.271  18.997  0.0856  0.2102  0.1745
 1581POPC   C4B18972  11.459  13.345  18.566 -0.0641 -0.0337 -0.0155
 1582POPC   NC318973  12.410   0.976  19.936 -0.0398 -0.0815 -0.0468
 1582POPC   PO418974  12.664   1.179  19.765  0.2478 -0.0620  0.2980
 1582POPC   GL118975  12.524   0.978  19.412  0.2386  0.0709 -0.3721
 1582POPC   GL218976  12.428   0.729  19.507 -0.1751 -0.3184  0.2488
 1582POPC   C1A18977  12.747   0.781  19.105  0.1429  0.2161 -0.0675
 1582POPC   D2A18978  12.915   0.733  18.627 -0.0406 -0.1041 -0.1108
 1582POPC   C3A18979  13.350   0.612  18.533 -0.1671 -0.1690  0.0996
 1582POPC   C4A18980  13.718   0.872  18.594 -0.0409  0.0417  0.0541
 1582POPC   C1B18981  12.611   0.364  19.322 -0.5954  0.1304 -0.3880
 1582POPC   C2B18982  12.735   0.197  18.908 -0.2155  0.0611 -0.2048
 1582POPC   C3B18983  12.924   0.259  18.522  0.0940  0.1793  0.0528
 1582POPC   C4B18984  13.229   0.313  18.145  0.0969  0.1655  0.0280
 1583POPC   NC318985   4.940  32.625  20.581  0.0186 -0.0654  0.2208
 1583POPC   PO418986   4.714  32.579  20.260 -0.0495 -0.1073  0.1401
 1583POPC   GL118987   4.713  32.328  19.977 -0.4430 -0.1703  0.1877
 1583POPC   GL218988   4.636  32.466  19.691 -0.4372 -0.0188  0.0880
 1583POPC   C1A18989   5.074  32.218  19.697 -0.1195 -0.1909  0.1915
 1583POPC   D2A18990   5.085  32.131  19.253 -0.0351  0.1437  0.0855
 1583POPC   C3A18991   5.298  32.023  18.807  0.0258 -0.0883  0.4467
 1583POPC   C4A18992   5.283  31.816  18.392  0.1085 -0.0787  0.0257
 1583POPC   C1B18993   4.354  32.772  19.426  0.0855  0.1756  0.0996
 1583POPC   C2B18994   4.415  32.884  19.012 -0.0089  0.3414  0.2548
 1583POPC   C3B18995   4.371  32.918  18.561  0.2328 -0.1217  0.1230
 1583POPC   C4B18996   4.208  32.969  18.141  0.1991  0.1415 -0.0616
 1584POPC   NC318997  13.326   5.994  19.343  0.1315 -0.1356  0.0919
 1584POPC   PO418998  13.681   5.975  19.455  0.0542 -0.1576  0.0595
 1584POPC   GL118999  13.734   6.049  19.143 -0.1113 -0.1715 -0.4705
 1584POPC   GL219000  13.787   5.826  18.945 -0.3807  0.5148  0.2351
 1584POPC   C1A19001  13.601   6.201  18.713 -0.1376 -0.3063  0.1505
 1584POPC   D2A19002  13.430   6.279  18.268 -0.2821  0.0223  0.1199
 1584POPC   C3A19003  13.579   6.733  18.154 -0.0611  0.4298 -0.0164
 1584POPC   C4A19004  13.437   7.083  17.829  0.1159  0.0223 -0.1586
 1584POPC   C1B19005  14.130   6.001  18.642  0.1631  0.1210  0.3919
 1584POPC   C2B19006  14.429   6.245  18.427  0.1731 -0.1153  0.3923
 1584POPC   C3B19007  14.501   6.458  18.050 -0.0038 -0.0179  0.2349
 1584POPC   C4B19008  14.601   6.664  17.648 -0.0888  0.3296  0.1139
 1585POPC   NC319009   5.774   3.511  18.387 -0.1415 -0.1261  0.4535
 1585POPC   PO419010   5.563   3.368  18.667  0.1960 -0.0387 -0.3160
 1585POPC   GL119011   5.389   3.152  18.450  0.3833 -0.0639  0.0048
 1585POPC   GL219012   5.144   3.116  18.510 -0.0423 -0.1235 -0.2184
 1585POPC   C1A19013   5.548   3.175  18.031 -0.1051  0.1144 -0.0440
 1585POPC   D2A19014   5.821   2.887  17.780  0.0296  0.4347  0.2712
 1585POPC   C3A19015   6.176   3.025  17.419  0.1024  0.3666 -0.0916
 1585POPC   C4A19016   6.339   2.740  17.053 -0.3029 -0.0363  0.2039
 1585POPC   C1B19017   5.019   3.095  18.077 -0.2546 -0.0328  0.2400
 1585POPC   C2B19018   5.071   2.803  17.674 -0.2465  0.2491  0.1005
 1585POPC   C3B19019   5.228   2.625  17.297 -0.1928 -0.1272  0.2930
 1585POPC   C4B19020   5.554   2.344  17.118 -0.1564 -0.0237  0.0570
 1586POPC   NC319021   2.952   6.973  19.744  0.1629 -0.0956 -0.2194
 1586POPC   PO419022   2.862   7.362  19.858  0.0275  0.2504 -0.0495
 1586POPC   GL119023   2.812   7.347  19.454 -0.3343  0.1876 -0.1172
 1586POPC   GL219024   2.807   7.622  19.422 -0.1782  0.2060 -0.2468
 1586POPC   C1A19025   2.683   7.363  18.995 -0.0110  0.0608  0.0551
 1586POPC   D2A19026   2.501   7.392  18.561  0.2219  0.5027  0.2610
 1586POPC   C3A19027   2.152   7.603  18.301 -0.0503  0.1448  0.5146
 1586POPC   C4A19028   1.765   7.666  18.054  0.2593  0.1392  0.1851
 1586POPC   C1B19029   3.157   7.768  19.219 -0.1650  0.1290  0.0143
 1586POPC   C2B19030   3.246   7.949  18.805 -0.2088 -0.0767  0.2225
 1586POPC   C3B19031   3.352   8.133  18.397 -0.2015 -0.0424 -0.2540
 1586POPC   C4B19032   3.274   8.566  18.233 -0.1173  0.0976  0.3763
 1587POPC   NC319033   3.616   0.074  20.267 -0.1043 -0.3168 -0.1665
 1587POPC   PO419034   3.868   0.351  20.172 -0.0424 -0.1439 -0.1006
 1587POPC   GL119035   3.683   0.356  19.812 -0.1127 -0.0638 -0.1704
 1587POPC   GL219036   3.419   0.382  19.902  0.0697  0.3484  0.3691
 1587POPC   C1A19037   3.488   0.208  19.371 -0.0892  0.2013  0.2262
 1587POPC   D2A19038   3.237  -0.060  19.116 -0.0115 -0.0642 -0.0563
 1587POPC   C3A19039   2.924   0.142  18.749 -0.0124 -0.4708  0.3669
 1587POPC   C4A19040   2.618   0.500  18.563 -0.2569  0.1376  0.0698
 1587POPC   C1B19041   3.051   0.367  19.578 -0.3755 -0.1361  0.1573
 1587POPC   C2B19042   2.877   0.614  19.205  0.4068 -0.1653  0.0591
 1587POPC   C3B19043   3.004   0.763  18.759  0.0447  0.0363  0.2391
 1587POPC   C4B19044   3.084   0.819  18.325  0.0331 -0.1083 -0.0866
 1588POPC   NC319045   9.610   7.416  10.862  0.0456 -0.0006 -0.0109
 1588POPC   PO419046   9.556   7.065  11.065 -0.1509  0.1478 -0.1453
 1588POPC   GL119047   9.294   7.318  11.151 -0.1150 -0.2040 -0.0337
 1588POPC   GL219048   9.383   7.541  11.366  0.2539  0.3382 -0.1182
 1588POPC   C1A19049   8.909   7.514  11.304 -0.2171 -0.2220  0.1888
 1588POPC   D2A19050   8.705   7.876  11.111 -0.1031  0.1843  0.3114
 1588POPC   C3A19051   8.962   8.270  11.028 -0.0470  0.0769  0.3860
 1588POPC   C4A19052   9.047   8.633  11.347  0.2296 -0.4357 -0.0808
 1588POPC   C1B19053   9.106   7.861  11.654 -0.3501 -0.1373 -0.0339
 1588POPC   C2B19054   8.710   8.176  11.679 -0.3161 -0.1710 -0.1978
 1588POPC   C3B19055   8.544   8.408  11.343 -0.0301  0.0868 -0.1310
 1588POPC   C4B19056   8.147   8.382  11.083 -0.1899  0.0714  0.1799
 1589POPC   NC319057  14.188   3.572  19.632  0.0519  0.0759 -0.0028
 1589POPC   PO419058  13.839   3.325  19.648 -0.1004  0.0301 -0.0330
 1589POPC   GL119059  13.987   3.140  19.413 -0.1750 -0.1584  0.4964
 1589POPC   GL219060  14.071   3.286  19.200 -0.1534  0.1026 -0.0090
 1589POPC   C1A19061  14.219   2.804  19.145  0.2309 -0.3686  0.1287
 1589POPC   D2A19062  14.372   2.597  18.758  0.0971  0.0038 -0.2182
 1589POPC   C3A19063  14.679   2.273  18.698  0.4437  0.0344 -0.3260
 1589POPC   C4A19064  14.656   1.852  18.536 -0.0605 -0.3539 -0.0222
 1589POPC   C1B19065  14.206   3.261  18.797 -0.2911  0.0372 -0.0188
 1589POPC   C2B19066  14.520   3.391  18.516  0.1527  0.1126  0.1908
 1589POPC   C3B19067  14.893   3.619  18.325 -0.0316 -0.1026 -0.0934
 1589POPC   C4B19068  15.137   3.573  17.982 -0.1100  0.3645 -0.0120
 1590POPC   NC319069   3.777   3.648  20.073  0.0969  0.3056 -0.1774
 1590POPC   PO419070   3.649   3.481  19.744 -0.2117  0.1847 -0.2354
 1590POPC   GL119071   3.500   3.426  19.384  0.4497  0.1369 -0.1182
 1590POPC   GL219072   3.173   3.420  19.380 -0.0712  0.0741 -0.1067
 1590POPC   C1A19073   3.442   3.687  18.997 -0.3538  0.2437  0.1436
 1590POPC   D2A19074   3.282   4.065  18.864 -0.0849 -0.4371  0.0751
 1590POPC   C3A19075   3.102   4.257  18.406 -0.1526  0.2181 -0.2945
 1590POPC   C4A19076   2.902   4.402  18.058  0.0226 -0.0658 -0.5043
 1590POPC   C1B19077   2.968   3.511  18.972 -0.2644  0.3769  0.1723
 1590POPC   C2B19078   2.812   3.572  18.547  0.0482 -0.1509  0.0791
 1590POPC   C3B19079   2.552   3.517  18.166 -0.0063 -0.0397  0.3820
 1590POPC   C4B19080   2.304   3.313  17.843 -0.0860  0.1929 -0.0641
 1591POPC   NC319081  14.463   7.018  19.751 -0.2265 -0.0157 -0.2096
 1591POPC   PO419082  14.821   6.905  19.679  0.1385  0.0481 -0.0117
 1591POPC   GL119083  15.125   7.126  19.415 -0.1322 -0.2340 -0.0992
 1591POPC   GL219084  15.241   6.840  19.399  0.3559 -0.2230  0.2972
 1591POPC   C1A19085  15.136   7.240  18.973 -0.1508 -0.2998  0.3609
 1591POPC   D2A19086  15.508   7.349  18.673 -0.0963 -0.2865 -0.1910
 1591POPC   C3A19087  15.765   7.724  18.600  0.0872 -0.0738 -0.1056
 1591POPC   C4A19088  16.058   7.947  18.353 -0.0075  0.0301  0.4083
 1591POPC   C1B19089  15.549   7.162  19.242  0.0465 -0.1926 -0.2945
 1591POPC   C2B19090  15.917   7.329  19.002 -0.0672  0.1928 -0.3515
 1591POPC   C3B19091  16.345   7.423  18.934  0.0410 -0.0630  0.0717
 1591POPC   C4B19092  16.665   7.408  18.586 -0.1561  0.1509 -0.0322
 1592POPC   NC319093   5.808  10.336  20.038 -0.2023  0.1357  0.3071
 1592POPC   PO419094   6.155  10.171  19.931  0.2372  0.2171  0.0473
 1592POPC   GL119095   5.993  10.295  19.503  0.1187 -0.2313 -0.1228
 1592POPC   GL219096   5.851  10.543  19.561  0.0234 -0.1625 -0.0473
 1592POPC   C1A19097   6.141  10.103  19.153  0.0672 -0.0705  0.0713
 1592POPC   D2A19098   6.481   9.951  18.927 -0.1508  0.1381  0.5726
 1592POPC   C3A19099   6.746  10.068  18.552  0.1841  0.0940 -0.0465
 1592POPC   C4A19100   6.992   9.913  18.236  0.3609 -0.0693 -0.2481
 1592POPC   C1B19101   5.713  10.391  19.166  0.1286 -0.0856  0.0843
 1592POPC   C2B19102   5.737  10.124  18.783  0.0481 -0.0237  0.3064
 1592POPC   C3B19103   5.789  10.055  18.321 -0.3910 -0.1332 -0.1326
 1592POPC   C4B19104   5.816  10.062  17.846  0.0470  0.0604 -0.2606
 1593POPC   NC319105  13.027   8.581  20.097 -0.3222 -0.0263  0.1152
 1593POPC   PO419106  13.390   8.554  19.915 -0.1313 -0.0709  0.1036
 1593POPC   GL119107  13.405   8.515  19.512  0.1347  0.2332 -0.0778
 1593POPC   GL219108  13.330   8.212  19.509 -0.1398 -0.0118  0.1462
 1593POPC   C1A19109  13.354   8.447  19.044 -0.0226  0.0182 -0.1165
 1593POPC   D2A19110  13.560   8.301  18.701  0.2702  0.3169  0.2715
 1593POPC   C3A19111  13.515   8.491  18.307  0.1551  0.1619  0.0653
 1593POPC   C4A19112  13.391   8.534  17.847  0.1684  0.2008  0.2387
 1593POPC   C1B19113  13.479   7.983  19.211  0.2250  0.0377  0.1006
 1593POPC   C2B19114  13.815   7.851  18.920  0.1186  0.0005 -0.1138
 1593POPC   C3B19115  14.109   7.840  18.577 -0.0045  0.1118 -0.1589
 1593POPC   C4B19116  14.250   7.900  18.136 -0.0184 -0.0694 -0.0899
 1594POPC   NC319117  13.163  13.890  20.312  0.2437 -0.0536  0.0865
 1594POPC   PO419118  13.164  13.488  20.394  0.0005 -0.2859 -0.0486
 1594POPC   GL119119  13.290  13.602  19.986  0.0950  0.0726  0.1223
 1594POPC   GL219120  13.390  13.366  19.786 -0.0493  0.1830  0.0209
 1594POPC   C1A19121  13.334  13.791  19.537  0.3360 -0.0930  0.0462
 1594POPC   D2A19122  13.637  14.005  19.222  0.2150  0.1040 -0.0657
 1594POPC   C3A19123  13.699  13.809  18.820  0.3647 -0.1756 -0.4345
 1594POPC   C4A19124  13.669  13.713  18.380 -0.0630 -0.5274  0.2702
 1594POPC   C1B19125  13.613  13.437  19.358  0.1979 -0.2608 -0.2141
 1594POPC   C2B19126  13.858  13.332  19.009 -0.3137  0.3038  0.1364
 1594POPC   C3B19127  14.021  13.351  18.607 -0.2148 -0.2874  0.3286
 1594POPC   C4B19128  14.189  13.455  18.159 -0.2134 -0.3701  0.0097
 1595POPC   NC319129  10.715   6.738  18.025 -0.0343  0.3108  0.0092
 1595POPC   PO419130  10.828   6.545  17.685  0.0659 -0.1051 -0.1758
 1595POPC   GL119131  11.116   6.696  17.411 -0.5030  0.1878 -0.0713
 1595POPC   GL219132  11.108   6.944  17.616 -0.2690 -0.2780 -0.1394
 1595POPC   C1A19133  11.174   6.653  16.957 -0.0144 -0.0040 -0.1661
 1595POPC   D2A19134  11.325   6.566  16.533  0.1187  0.0118 -0.1373
 1595POPC   C3A19135  11.321   6.994  16.275 -0.1288 -0.2953  0.0928
 1595POPC   C4A19136  11.311   7.452  16.200  0.0627  0.2415  0.1784
 1595POPC   C1B19137  11.532   6.844  17.559  0.0428 -0.1554 -0.1560
 1595POPC   C2B19138  11.975   6.878  17.717 -0.0046  0.5718  0.0443
 1595POPC   C3B19139  12.436   6.804  17.656  0.0029 -0.1266 -0.1894
 1595POPC   C4B19140  12.876   6.937  17.553  0.2033 -0.0368 -0.0508
 1596POPC   NC319141   3.735   6.631  19.594  0.0545 -0.1199  0.1421
 1596POPC   PO419142   4.101   6.661  19.359 -0.1277  0.0870  0.1885
 1596POPC   GL119143   3.870   6.830  19.114  0.0119  0.1608  0.1593
 1596POPC   GL219144   3.752   7.049  19.222  0.0998  0.5091 -0.1271
 1596POPC   C1A19145   3.898   6.854  18.647  0.1720 -0.0774  0.0194
 1596POPC   D2A19146   3.971   7.188  18.378  0.0415 -0.0431 -0.0474
 1596POPC   C3A19147   4.139   7.211  17.914  0.4265  0.2268 -0.2321
 1596POPC   C4A19148   4.035   7.358  17.519  0.2840 -0.1085  0.2224
 1596POPC   C1B19149   3.448   6.889  18.840 -0.0869  0.0615  0.4979
 1596POPC   C2B19150   3.517   6.930  18.375  0.3276  0.0624 -0.1476
 1596POPC   C3B19151   3.343   6.779  17.960 -0.0267 -0.0396  0.0706
 1596POPC   C4B19152   3.170   6.340  17.892 -0.0121  0.0770 -0.1349
 1597POPC   NC319153   6.418   2.236  19.340  0.3897 -0.0298 -0.0653
 1597POPC   PO419154   6.064   2.173  19.164 -0.0131 -0.0451  0.1455
 1597POPC   GL119155   6.033   2.063  18.796 -0.4086  0.1753  0.1932
 1597POPC   GL219156   6.122   2.293  18.540  0.0860 -0.2865  0.1021
 1597POPC   C1A19157   5.646   2.076  18.543 -0.0207  0.1576  0.0240
 1597POPC   D2A19158   5.361   2.190  18.247 -0.0170 -0.2146 -0.1643
 1597POPC   C3A19159   4.904   2.129  18.124  0.0136  0.1387 -0.1133
 1597POPC   C4A19160   4.622   2.133  17.795  0.0793 -0.4525  0.3037
 1597POPC   C1B19161   6.094   1.942  18.276  0.1119  0.0961 -0.1633
 1597POPC   C2B19162   5.896   1.846  17.863 -0.0812 -0.0464 -0.0500
 1597POPC   C3B19163   5.910   1.754  17.375  0.1949  0.0749  0.0611
 1597POPC   C4B19164   6.059   1.704  16.948 -0.2149  0.1412  0.1258
 1598POPC   NC319165  16.615  14.975  20.238 -0.0467  0.0146  0.1079
 1598POPC   PO419166  16.298  15.124  20.430 -0.1197  0.0619 -0.0250
 1598POPC   GL119167  16.248  15.138  20.025 -0.0240 -0.0393 -0.1364
 1598POPC   GL219168  16.321  15.296  19.814 -0.2661  0.1238 -0.2836
 1598POPC   C1A19169  16.220  14.841  19.640  0.3716  0.1740  0.1113
 1598POPC   D2A19170  16.424  14.533  19.363  0.1493 -0.1386 -0.0682
 1598POPC   C3A19171  16.904  14.531  19.355  0.1766 -0.2463 -0.0744
 1598POPC   C4A19172  17.309  14.379  19.062 -0.0531  0.1807 -0.0892
 1598POPC   C1B19173  16.267  15.276  19.383  0.2610  0.0112 -0.1500
 1598POPC   C2B19174  16.276  14.941  19.109  0.1201  0.1914  0.0594
 1598POPC   C3B19175  16.084  14.714  18.777 -0.2488  0.1295  0.1113
 1598POPC   C4B19176  15.719  14.559  18.590 -0.0030  0.0234 -0.1902
 1599POPC   NC319177   1.249  16.265  20.826 -0.1166 -0.1830  0.0521
 1599POPC   PO419178   1.520  16.264  20.544 -0.2781  0.1305 -0.1003
 1599POPC   GL119179   1.446  16.040  20.230  0.1114  0.1699  0.1791
 1599POPC   GL219180   1.584  16.114  20.030 -0.0156 -0.1712 -0.2391
 1599POPC   C1A19181   1.457  15.628  20.247  0.3316  0.0213  0.0088
 1599POPC   D2A19182   1.672  15.292  20.050 -0.0837 -0.2003 -0.3403
 1599POPC   C3A19183   1.639  14.926  19.775 -0.0656  0.3464  0.0956
 1599POPC   C4A19184   1.507  14.593  19.505  0.2144  0.3136  0.3646
 1599POPC   C1B19185   1.719  15.751  19.777 -0.3485 -0.1940  0.1586
 1599POPC   C2B19186   1.812  15.350  19.543 -0.0093 -0.0289 -0.3531
 1599POPC   C3B19187   2.020  15.228  19.133  0.1627 -0.3363 -0.1426
 1599POPC   C4B19188   1.975  15.219  18.659  0.0432 -0.0296  0.5283
 1600POPC   NC319189   4.648   0.114  19.812 -0.1086 -0.1063  0.0976
 1600POPC   PO419190   4.979  -0.025  19.913  0.2127 -0.1118  0.2497
 1600POPC   GL119191   4.994  -0.152  19.483 -0.0397 -0.4849 -0.2648
 1600POPC   GL219192   5.262  -0.116  19.471 -0.1541  0.2099  0.0639
 1600POPC   C1A19193   4.739  -0.349  19.165 -0.0057  0.1315  0.3400
 1600POPC   D2A19194   4.686  -0.734  18.875  0.1235  0.1900 -0.0224
 1600POPC   C3A19195   4.922  -0.655  18.523  0.0691  0.2071  0.0004
 1600POPC   C4A19196   5.012  -0.733  18.080 -0.2483  0.0665  0.4230
 1600POPC   C1B19197   5.306  -0.314  19.024  0.2861  0.1580  0.0660
 1600POPC   C2B19198   5.228  -0.281  18.554 -0.1566  0.0342  0.2570
 1600POPC   C3B19199   5.428  -0.325  18.111 -0.1969  0.0196 -0.0734
 1600POPC   C4B19200   5.548  -0.039  17.758 -0.2072  0.0505 -0.1130
 1601POPC   NC319201  31.921   9.965  19.928  0.1471 -0.2347 -0.0161
 1601POPC   PO419202  32.196  10.220  20.140  0.0664  0.1884 -0.0444
 1601POPC   GL119203  32.274  10.172  19.700  0.0364  0.0616 -0.1818
 1601POPC   GL219204  32.321  10.445  19.667  0.0613 -0.1238  0.3440
 1601POPC   C1A19205  32.587  10.117  19.384  0.1530 -0.2423 -0.3140
 1601POPC   D2A19206  32.825  10.132  18.996 -0.0106 -0.0313 -0.1840
 1601POPC   C3A19207  33.178  10.515  18.955 -0.0063  0.2957  0.0816
 1601POPC   C4A19208  33.198  10.995  18.994  0.5559  0.1385 -0.3464
 1601POPC   C1B19209  32.206  10.830  19.441  0.0716 -0.2394  0.0471
 1601POPC   C2B19210  32.122  10.877  19.023 -0.5220 -0.0581  0.0180
 1601POPC   C3B19211  31.959  10.588  18.743 -0.0903 -0.0792  0.0813
 1601POPC   C4B19212  32.030  10.222  18.502  0.2327  0.1418  0.1014
 1602POPC   NC319213   3.770  10.993  20.962 -0.2563 -0.0186  0.1417
 1602POPC   PO419214   3.703  11.103  20.574  0.1906 -0.1396 -0.1940
 1602POPC   GL119215   3.665  10.872  20.209 -0.0075 -0.0803  0.1944
 1602POPC   GL219216   3.498  10.899  19.963 -0.1469 -0.2448 -0.0825
 1602POPC   C1A19217   4.033  10.874  19.900  0.0659 -0.0487  0.0315
 1602POPC   D2A19218   4.454  10.769  19.727 -0.2017  0.0109  0.0796
 1602POPC   C3A19219   4.465  10.858  19.263  0.3859  0.0106 -0.0995
 1602POPC   C4A19220   4.289  11.240  19.068 -0.1025 -0.3990 -0.1344
 1602POPC   C1B19221   3.091  10.910  19.688 -0.1216 -0.1438  0.2751
 1602POPC   C2B19222   3.094  10.970  19.254 -0.1451  0.2208 -0.0898
 1602POPC   C3B19223   3.015  11.315  18.953  0.0604  0.2696  0.2087
 1602POPC   C4B19224   2.648  11.523  19.107  0.0027 -0.3028  0.1408
 1603POPC   NC319225   2.385   3.791  19.796 -0.1745 -0.1589  0.0583
 1603POPC   PO419226   2.730   3.750  19.935  0.2165 -0.1200  0.2280
 1603POPC   GL119227   2.796   3.829  19.581 -0.0695  0.3822 -0.0235
 1603POPC   GL219228   3.088   3.930  19.473  0.3898  0.2207  0.0785
 1603POPC   C1A19229   2.598   3.532  19.310  0.1669  0.2427  0.0434
 1603POPC   D2A19230   2.525   3.129  19.036  0.1607  0.1450  0.0791
 1603POPC   C3A19231   2.380   3.127  18.650  0.0478  0.1052  0.1820
 1603POPC   C4A19232   2.102   3.346  18.310 -0.1782  0.0496 -0.3692
 1603POPC   C1B19233   2.801   4.004  19.143 -0.0006 -0.1822  0.1613
 1603POPC   C2B19234   2.423   3.919  18.844  0.1704  0.3027 -0.0151
 1603POPC   C3B19235   2.091   4.142  18.595 -0.1642 -0.0585  0.3434
 1603POPC   C4B19236   1.838   4.522  18.386  0.1903 -0.0124  0.0840
 1604POPC   NC319237   8.625   6.031  14.032 -0.0120 -0.0248 -0.1275
 1604POPC   PO419238   8.576   6.395  13.909  0.0560 -0.0027 -0.1615
 1604POPC   GL119239   8.383   6.758  13.909 -0.1443 -0.1852  0.0555
 1604POPC   GL219240   8.401   6.832  13.611 -0.1175 -0.1802  0.0753
 1604POPC   C1A19241   7.954   6.930  13.853 -0.0412 -0.4717  0.1293
 1604POPC   D2A19242   7.589   7.247  13.854  0.0538  0.1175  0.0976
 1604POPC   C3A19243   7.147   7.112  13.916 -0.0711  0.0705  0.0748
 1604POPC   C4A19244   6.681   7.066  13.864 -0.0745 -0.0220  0.3571
 1604POPC   C1B19245   8.186   7.156  13.360  0.0034  0.1375  0.0099
 1604POPC   C2B19246   7.785   7.367  13.421  0.1989  0.0906 -0.1934
 1604POPC   C3B19247   7.700   7.708  13.751 -0.1892  0.4534  0.0894
 1604POPC   C4B19248   7.733   7.760  14.186 -0.1996  0.2403 -0.1451
 1605POPC   NC319249   8.051   7.040  15.900  0.1818  0.2201 -0.1037
 1605POPC   PO419250   8.102   6.662  15.699  0.1068  0.0913  0.0391
 1605POPC   GL119251   7.847   6.834  15.477  0.2133  0.0656  0.0677
 1605POPC   GL219252   7.929   7.028  15.404  0.0218 -0.1534  0.0669
 1605POPC   C1A19253   7.389   6.826  15.321  0.0964 -0.0922 -0.1922
 1605POPC   D2A19254   6.970   6.902  15.342 -0.1325 -0.4222  0.0902
 1605POPC   C3A19255   6.767   7.308  15.388  0.0068 -0.2091  0.2855
 1605POPC   C4A19256   6.757   7.762  15.411 -0.3982  0.1949  0.0391
 1605POPC   C1B19257   7.856   7.481  15.342 -0.0216 -0.2842 -0.0123
 1605POPC   C2B19258   7.647   7.846  15.142  0.2695 -0.0182  0.0886
 1605POPC   C3B19259   7.436   8.156  15.352 -0.1041 -0.0215 -0.1095
 1605POPC   C4B19260   7.493   8.455  15.778  0.0845  0.2005  0.0492
 1606POPC   NC319261  13.143   7.818  19.767  0.0015  0.0452  0.3343
 1606POPC   PO419262  13.062   7.422  19.631 -0.1501 -0.0199  0.0689
 1606POPC   GL119263  13.257   7.393  19.261 -0.0508 -0.3315 -0.1512
 1606POPC   GL219264  13.071   7.520  19.057  0.0565 -0.3203 -0.0689
 1606POPC   C1A19265  13.262   7.059  18.927  0.0826  0.0940  0.0115
 1606POPC   D2A19266  13.561   6.790  18.682 -0.0437  0.2090 -0.0872
 1606POPC   C3A19267  14.002   6.920  18.626 -0.0223  0.2026 -0.0384
 1606POPC   C4A19268  14.217   6.850  18.249 -0.2956 -0.1292 -0.0033
 1606POPC   C1B19269  13.166   7.527  18.625 -0.1682 -0.0071  0.0006
 1606POPC   C2B19270  13.298   7.511  18.147 -0.0434  0.1009  0.2995
 1606POPC   C3B19271  13.023   7.574  17.778 -0.1693 -0.2040  0.0050
 1606POPC   C4B19272  12.725   7.390  17.528 -0.3056  0.0051 -0.3113
 1607POPC   NC319273   6.669   9.226  19.843  0.1109 -0.1592 -0.1156
 1607POPC   PO419274   6.259   9.261  19.788 -0.0589 -0.3444  0.1180
 1607POPC   GL119275   6.110   9.159  19.384  0.2266  0.0551  0.0644
 1607POPC   GL219276   6.264   8.964  19.193 -0.2108  0.0476  0.1570
 1607POPC   C1A19277   6.182   9.469  19.018 -0.1435 -0.0198 -0.0095
 1607POPC   D2A19278   6.093   9.761  18.659 -0.1116  0.0685  0.2529
 1607POPC   C3A19279   5.995   9.559  18.230  0.1035 -0.1392  0.1604
 1607POPC   C4A19280   5.710   9.538  17.871 -0.0221 -0.0632  0.0779
 1607POPC   C1B19281   6.333   9.031  18.736  0.1483 -0.0374  0.3013
 1607POPC   C2B19282   6.412   9.081  18.288  0.0871  0.2813 -0.4174
 1607POPC   C3B19283   6.178   9.109  17.907 -0.1484  0.3052  0.0574
 1607POPC   C4B19284   5.977   9.228  17.505  0.4642 -0.0531 -0.0274
 1608POPC   NC319285   9.206   7.491  16.545 -0.1111 -0.2935  0.0035
 1608POPC   PO419286   9.277   7.317  16.203 -0.2441 -0.1881 -0.2264
 1608POPC   GL119287   9.408   7.774  16.188  0.3534  0.3005 -0.3954
 1608POPC   GL219288   9.112   7.927  16.174  0.0047  0.0083  0.1399
 1608POPC   C1A19289   9.689   8.012  15.919 -0.1152  0.1286  0.3101
 1608POPC   D2A19290   9.683   8.396  15.663 -0.0873 -0.2642 -0.1619
 1608POPC   C3A19291   9.715   8.473  15.192 -0.3551 -0.0215  0.1718
 1608POPC   C4A19292   9.922   8.776  14.859  0.2669  0.1051 -0.1070
 1608POPC   C1B19293   8.771   8.189  16.030  0.1541  0.2986 -0.0559
 1608POPC   C2B19294   8.818   8.643  15.861  0.1714  0.1492 -0.0886
 1608POPC   C3B19295   8.843   9.066  15.672  0.2262  0.1145 -0.2592
 1608POPC   C4B19296   9.147   9.339  15.467 -0.0202  0.3894 -0.0749
 1609POPC   NC319297   4.170  13.479  20.929 -0.0517  0.5247  0.1637
 1609POPC   PO419298   3.936  13.664  20.669  0.2840 -0.3410  0.3400
 1609POPC   GL119299   4.154  13.766  20.343 -0.0155 -0.1203  0.1409
 1609POPC   GL219300   4.121  13.521  20.252 -0.1239 -0.1194  0.3528
 1609POPC   C1A19301   4.423  13.813  19.919  0.4546  0.0786  0.2424
 1609POPC   D2A19302   4.692  13.788  19.551 -0.0082 -0.3218 -0.1106
 1609POPC   C3A19303   4.671  13.675  19.121 -0.2481 -0.0696 -0.0484
 1609POPC   C4A19304   4.668  13.488  18.690  0.1917 -0.0936 -0.0325
 1609POPC   C1B19305   4.136  13.371  19.830 -0.0552 -0.1108 -0.0253
 1609POPC   C2B19306   4.247  13.493  19.389  0.0662  0.1443  0.0759
 1609POPC   C3B19307   4.077  13.455  18.963  0.0748  0.1779  0.0840
 1609POPC   C4B19308   3.735  13.464  18.652 -0.1798 -0.0420  0.2956
 1610POPC   NC319309  15.982   4.450  19.871 -0.0186 -0.2667  0.2856
 1610POPC   PO419310  16.359   4.454  19.951 -0.0125  0.1248  0.0834
 1610POPC   GL119311  16.557   4.449  19.645 -0.1598  0.2379  0.0382
 1610POPC   GL219312  16.419   4.716  19.480 -0.0331 -0.0323  0.1215
 1610POPC   C1A19313  16.594   4.124  19.332 -0.0037 -0.2248  0.2468
 1610POPC   D2A19314  16.718   4.031  18.939  0.4451  0.1226 -0.0380
 1610POPC   C3A19315  17.001   4.191  18.672 -0.0789 -0.3053 -0.2130
 1610POPC   C4A19316  17.229   4.134  18.254 -0.1030 -0.3077  0.4094
 1610POPC   C1B19317  16.159   4.384  19.334 -0.3441 -0.1067  0.2418
 1610POPC   C2B19318  16.135   4.033  19.022  0.0290 -0.1209 -0.0269
 1610POPC   C3B19319  15.957   3.610  19.014 -0.0142 -0.1339 -0.1888
 1610POPC   C4B19320  16.123   3.218  18.884 -0.3719  0.0984 -0.0552
 1611POPC   NC319321   9.094   8.758  18.078 -0.1326  0.1033 -0.2333
 1611POPC   PO419322   9.232   8.369  18.105 -0.2048 -0.0107  0.1242
 1611POPC   GL119323   9.133   8.370  17.702  0.3762  0.0627  0.1681
 1611POPC   GL219324   8.918   8.570  17.643 -0.2305  0.1040  0.1261
 1611POPC   C1A19325   9.336   8.495  17.275  0.1065 -0.1600 -0.1055
 1611POPC   D2A19326   9.300   8.556  16.801  0.2907 -0.3455  0.0977
 1611POPC   C3A19327   9.644   8.709  16.572  0.1199 -0.0981  0.0046
 1611POPC   C4A19328  10.073   8.851  16.329  0.2553  0.0982  0.2932
 1611POPC   C1B19329   8.824   8.679  17.224  0.0167 -0.0579 -0.1559
 1611POPC   C2B19330   8.982   9.060  16.934 -0.1362 -0.2314  0.0943
 1611POPC   C3B19331   8.944   9.465  16.690  0.2800 -0.2686  0.0652
 1611POPC   C4B19332   8.714   9.599  16.327  0.1218  0.0567  0.0874
 1612POPC   NC319333   3.052  12.760  20.590 -0.1341 -0.3102 -0.0862
 1612POPC   PO419334   3.118  12.406  20.670  0.2861  0.0013  0.0114
 1612POPC   GL119335   3.256  12.346  20.247  0.2776  0.2864 -0.1047
 1612POPC   GL219336   3.411  12.559  20.216  0.1502 -0.0116 -0.0604
 1612POPC   C1A19337   3.659  12.186  20.014  0.2554 -0.0233  0.0223
 1612POPC   D2A19338   3.717  11.964  19.613 -0.1428 -0.1128 -0.1562
 1612POPC   C3A19339   3.728  12.088  19.182  0.0374  0.2499  0.0168
 1612POPC   C4A19340   4.028  11.857  18.852 -0.0780 -0.2324 -0.0305
 1612POPC   C1B19341   3.154  12.550  19.833  0.0918  0.3392  0.0240
 1612POPC   C2B19342   3.038  12.421  19.401 -0.2732 -0.1760  0.1491
 1612POPC   C3B19343   2.929  12.246  18.952  0.1221  0.0446 -0.3617
 1612POPC   C4B19344   2.687  11.866  18.799 -0.1615  0.2585  0.4201
 1613POPC   NC319345   6.295   8.412  19.351 -0.0124 -0.1947 -0.1762
 1613POPC   PO419346   6.548   8.307  19.061 -0.1486 -0.2270 -0.0848
 1613POPC   GL119347   6.319   8.467  18.773 -0.2128  0.2235  0.2338
 1613POPC   GL219348   6.091   8.561  18.855 -0.1946 -0.0115 -0.1338
 1613POPC   C1A19349   6.242   8.552  18.321 -0.1337  0.0009  0.3760
 1613POPC   D2A19350   6.506   8.732  17.958  0.0905 -0.2169  0.1788
 1613POPC   C3A19351   6.700   9.134  17.881 -0.1768 -0.3353  0.0717
 1613POPC   C4A19352   6.925   9.565  17.902 -0.1399 -0.3258  0.2230
 1613POPC   C1B19353   5.759   8.793  18.649 -0.0288  0.0063  0.4974
 1613POPC   C2B19354   5.432   9.086  18.674  0.0064  0.2798  0.1530
 1613POPC   C3B19355   5.120   9.227  18.469  0.1925  0.0877  0.1267
 1613POPC   C4B19356   4.662   9.235  18.433  0.1721  0.0838  0.1299
 1614POPC   NC319357  15.471  12.414  20.492  0.3076 -0.0222  0.1073
 1614POPC   PO419358  15.165  12.507  20.742 -0.0998 -0.2362 -0.0485
 1614POPC   GL119359  14.948  12.546  20.453 -0.3479 -0.1822  0.2741
 1614POPC   GL219360  14.675  12.511  20.382  0.0380 -0.3526 -0.1582
 1614POPC   C1A19361  15.139  12.383  20.070 -0.1922  0.0188 -0.1827
 1614POPC   D2A19362  14.980  12.268  19.671  0.0861 -0.2263  0.1739
 1614POPC   C3A19363  14.716  12.509  19.390 -0.2298  0.2250  0.1302
 1614POPC   C4A19364  14.394  12.579  19.034  0.5006 -0.0223  0.2759
 1614POPC   C1B19365  14.571  12.399  19.967 -0.0987 -0.0732  0.1618
 1614POPC   C2B19366  14.548  12.070  19.633  0.1421  0.0239  0.0131
 1614POPC   C3B19367  14.777  11.817  19.257  0.0183  0.1458  0.2781
 1614POPC   C4B19368  14.755  11.474  18.928 -0.1314 -0.1416 -0.0497
 1615POPC   NC319369   2.196  10.746  20.626  0.1584 -0.0628  0.0258
 1615POPC   PO419370   1.925  10.441  20.606  0.0489  0.0089 -0.1558
 1615POPC   GL119371   1.932  10.579  20.134 -0.0231 -0.0205 -0.0561
 1615POPC   GL219372   1.901  10.351  20.022  0.0653  0.1414  0.0684
 1615POPC   C1A19373   1.792  10.824  19.712 -0.1265  0.1213  0.0394
 1615POPC   D2A19374   1.728  11.125  19.379 -0.1612  0.4796 -0.2335
 1615POPC   C3A19375   1.959  11.488  19.189  0.4419  0.2747  0.0766
 1615POPC   C4A19376   2.155  11.639  18.774  0.2374  0.1527 -0.1217
 1615POPC   C1B19377   1.862  10.301  19.514 -0.2215 -0.1462 -0.1799
 1615POPC   C2B19378   2.105  10.396  19.119  0.0872 -0.1384  0.2342
 1615POPC   C3B19379   2.132  10.677  18.758  0.0916 -0.1571  0.2264
 1615POPC   C4B19380   2.221  10.936  18.359  0.0628 -0.4456  0.2847
 1616POPC   NC319381   9.841   4.813  14.771  0.1747  0.0746 -0.3180
 1616POPC   PO419382  10.141   4.570  14.730  0.3580  0.3812  0.3727
 1616POPC   GL119383  10.501   4.412  14.547  0.6211 -0.1561  0.1787
 1616POPC   GL219384  10.772   4.430  14.378  0.2363 -0.0799  0.1278
 1616POPC   C1A19385  10.657   3.961  14.495  0.1760 -0.3488 -0.0178
 1616POPC   D2A19386  10.977   3.661  14.279  0.2850 -0.1988  0.1335
 1616POPC   C3A19387  10.706   3.292  14.285 -0.2250 -0.0899  0.2714
 1616POPC   C4A19388  10.551   2.965  14.526  0.0904 -0.1468  0.2376
 1616POPC   C1B19389  10.933   4.112  14.081 -0.4635 -0.2056 -0.1202
 1616POPC   C2B19390  11.015   3.887  13.720 -0.1159 -0.0381 -0.3459
 1616POPC   C3B19391  11.336   3.568  13.622 -0.0919 -0.2917  0.1939
 1616POPC   C4B19392  11.694   3.445  13.345  0.0601 -0.0596  0.1089
 1617POPC   NC319393  12.790  12.901  20.912  0.0667  0.1227 -0.1635
 1617POPC   PO419394  12.497  13.164  20.973 -0.1289 -0.0701 -0.0528
 1617POPC   GL119395  12.393  12.999  20.503 -0.1162  0.0224  0.2382
 1617POPC   GL219396  12.592  12.761  20.445  0.0324  0.1313 -0.2773
 1617POPC   C1A19397  11.954  13.036  20.272  0.0468 -0.2522  0.0134
 1617POPC   D2A19398  11.639  12.900  19.948 -0.0172  0.3524 -0.0054
 1617POPC   C3A19399  11.805  12.580  19.650  0.2336  0.4426  0.0099
 1617POPC   C4A19400  11.761  12.538  19.224 -0.0672 -0.0038  0.1865
 1617POPC   C1B19401  12.628  12.950  20.040 -0.1718  0.1773  0.0362
 1617POPC   C2B19402  12.650  13.108  19.621 -0.1840 -0.1318 -0.1104
 1617POPC   C3B19403  12.649  13.059  19.175 -0.1839  0.1189  0.0076
 1617POPC   C4B19404  12.561  13.230  18.716  0.2074 -0.3083  0.1027
 1618POPC   NC319405   5.540   0.929  19.560  0.0737  0.3140 -0.0753
 1618POPC   PO419406   5.790   0.665  19.655  0.0343  0.1010 -0.1294
 1618POPC   GL119407   5.949   0.764  19.359 -0.2482 -0.2712  0.3937
 1618POPC   GL219408   6.013   0.550  19.212 -0.0539  0.0363 -0.1684
 1618POPC   C1A19409   5.584   0.800  19.065 -0.1008 -0.1301  0.2561
 1618POPC   D2A19410   5.211   1.089  19.049  0.1453 -0.0367  0.1197
 1618POPC   C3A19411   4.947   1.010  18.689 -0.3066 -0.1160 -0.0263
 1618POPC   C4A19412   5.026   0.658  18.391 -0.0315 -0.0251  0.1546
 1618POPC   C1B19413   5.810   0.353  18.916  0.1965  0.0446  0.1849
 1618POPC   C2B19414   5.579   0.081  18.702  0.0953 -0.3799  0.0780
 1618POPC   C3B19415   5.393   0.121  18.262  0.0103  0.1397  0.0158
 1618POPC   C4B19416   5.384   0.419  17.922  0.2022 -0.1492  0.1322
 1619POPC   NC319417   6.188   9.660  20.077  0.1391  0.0449 -0.0215
 1619POPC   PO419418   5.887   9.575  19.830  0.1064 -0.0694 -0.1121
 1619POPC   GL119419   5.785   9.887  19.623  0.1441 -0.1910 -0.1402
 1619POPC   GL219420   5.552  10.052  19.740 -0.1297 -0.2344  0.0871
 1619POPC   C1A19421   5.693   9.847  19.169  0.2581 -0.0766 -0.0756
 1619POPC   D2A19422   5.611   9.533  18.871 -0.0382  0.0653 -0.1249
 1619POPC   C3A19423   5.490   9.522  18.391 -0.0557 -0.0277  0.0827
 1619POPC   C4A19424   5.212   9.460  17.972  0.1435 -0.1429 -0.3435
 1619POPC   C1B19425   5.278  10.238  19.448  0.1150 -0.2609  0.0392
 1619POPC   C2B19426   5.124  10.265  19.035  0.4320  0.0113  0.0966
 1619POPC   C3B19427   4.797  10.211  18.703 -0.1889 -0.0028 -0.2843
 1619POPC   C4B19428   4.398  10.146  18.404 -0.2010  0.1908 -0.0383
 1620POPC   NC319429   2.495   6.085  19.903 -0.1194 -0.0913 -0.1126
 1620POPC   PO419430   2.145   6.150  20.039  0.1978 -0.0214 -0.2431
 1620POPC   GL119431   2.222   6.429  19.754  0.1011 -0.1720  0.3491
 1620POPC   GL219432   2.003   6.515  19.574  0.0736 -0.1074  0.0581
 1620POPC   C1A19433   2.414   6.639  19.394 -0.2176  0.1561  0.2935
 1620POPC   D2A19434   2.687   6.957  19.321 -0.1145 -0.3332  0.0607
 1620POPC   C3A19435   2.895   6.867  18.891  0.0022 -0.1489 -0.1290
 1620POPC   C4A19436   2.884   7.029  18.466  0.1778  0.0348  0.2789
 1620POPC   C1B19437   1.975   6.626  19.124  0.1154 -0.2492 -0.0552
 1620POPC   C2B19438   1.796   6.635  18.674 -0.0337 -0.0945  0.1155
 1620POPC   C3B19439   1.667   6.547  18.248 -0.1144 -0.1979  0.0624
 1620POPC   C4B19440   1.875   6.485  17.837  0.0438  0.0124 -0.0833
 1621POPC   NC319441   8.496   0.572  19.182 -0.2584  0.2543 -0.1572
 1621POPC   PO419442   8.155   0.679  19.345  0.0670  0.0771  0.0577
 1621POPC   GL119443   8.037   0.443  19.107  0.3877 -0.0308  0.1264
 1621POPC   GL219444   8.129   0.276  18.890  0.1075 -0.0250 -0.4814
 1621POPC   C1A19445   7.806   0.024  19.180 -0.5763 -0.3340  0.2757
 1621POPC   D2A19446   7.505  -0.301  19.091 -0.1314 -0.1657  0.0040
 1621POPC   C3A19447   7.401  -0.381  18.662 -0.0892 -0.0251 -0.0079
 1621POPC   C4A19448   7.394  -0.569  18.194  0.3754  0.2529 -0.2978
 1621POPC   C1B19449   8.006  -0.104  18.694 -0.0026  0.0613 -0.0774
 1621POPC   C2B19450   7.783  -0.198  18.262 -0.0733  0.0571 -0.1648
 1621POPC   C3B19451   7.756  -0.167  17.794  0.0069 -0.1011  0.0130
 1621POPC   C4B19452   7.544  -0.250  17.354 -0.1445  0.0180 -0.2528
 1622POPC   NC319453   9.771   1.387  18.729 -0.0769 -0.1464  0.1419
 1622POPC   PO419454  10.054   1.680  18.664  0.0352  0.0999  0.0165
 1622POPC   GL119455  10.229   1.587  18.335  0.5982  0.1522 -0.1524
 1622POPC   GL219456  10.054   1.346  18.269  0.0592 -0.0563 -0.2154
 1622POPC   C1A19457  10.489   1.207  18.252 -0.0249  0.0386  0.2711
 1622POPC   D2A19458  10.878   1.035  18.234 -0.3161  0.0122  0.1055
 1622POPC   C3A19459  10.945   0.797  17.835 -0.1079 -0.0052 -0.2300
 1622POPC   C4A19460  11.073   0.451  17.605  0.1303  0.2216  0.0403
 1622POPC   C1B19461   9.836   0.973  18.101  0.0914 -0.0583  0.1701
 1622POPC   C2B19462   9.867   0.587  17.797  0.4043  0.0960 -0.2881
 1622POPC   C3B19463   9.663   0.312  17.472 -0.1298  0.0998 -0.2498
 1622POPC   C4B19464   9.738   0.263  17.022 -0.2843 -0.2246  0.1822
 1623POPC   NC319465   8.362   2.922  17.052 -0.1619  0.0077 -0.1145
 1623POPC   PO419466   7.988   3.043  17.033  0.0186 -0.0319  0.0292
 1623POPC   GL119467   8.100   2.962  16.635  0.0107  0.1017  0.4377
 1623POPC   GL219468   8.426   2.845  16.556  0.1622 -0.2368  0.1439
 1623POPC   C1A19469   7.915   3.175  16.242 -0.0970 -0.3475 -0.1827
 1623POPC   D2A19470   7.592   3.222  15.913  0.0427 -0.1083  0.2417
 1623POPC   C3A19471   7.355   3.176  15.559  0.3775  0.2054 -0.2192
 1623POPC   C4A19472   6.960   3.158  15.383 -0.2168  0.0916 -0.0170
 1623POPC   C1B19473   8.100   2.682  16.250  0.1469  0.1076  0.0215
 1623POPC   C2B19474   7.715   2.688  16.028  0.0075  0.1178  0.3154
 1623POPC   C3B19475   7.282   2.816  16.047 -0.1124  0.2834  0.0434
 1623POPC   C4B19476   6.990   2.800  15.679 -0.2128 -0.2171  0.1492
 1624POPC   NC319477  13.380  16.129  19.707  0.1004 -0.0559 -0.5132
 1624POPC   PO419478  13.034  16.126  19.867  0.0090 -0.3395  0.0592
 1624POPC   GL119479  12.781  16.044  19.545  0.1454 -0.1505 -0.1184
 1624POPC   GL219480  12.526  15.914  19.490  0.0225  0.0551 -0.1720
 1624POPC   C1A19481  12.698  16.353  19.162  0.0224  0.0834  0.2664
 1624POPC   D2A19482  12.568  16.623  18.791  0.0630  0.1346  0.3276
 1624POPC   C3A19483  12.794  16.600  18.356 -0.1172  0.0878  0.2481
 1624POPC   C4A19484  13.142  16.513  18.090 -0.5725 -0.3259  0.3965
 1624POPC   C1B19485  12.497  15.802  19.029 -0.0749  0.0696  0.3799
 1624POPC   C2B19486  12.597  15.699  18.623 -0.0234 -0.0560  0.1225
 1624POPC   C3B19487  12.748  15.694  18.178  0.2895  0.0049 -0.0158
 1624POPC   C4B19488  12.902  15.810  17.763 -0.0398  0.0860  0.0607
 1625POPC   NC319489   5.671   5.700  17.528 -0.1515  0.0401 -0.0675
 1625POPC   PO419490   5.908   5.380  17.628  0.0477  0.1641 -0.1115
 1625POPC   GL119491   5.853   5.259  17.259  0.1779  0.1008  0.0539
 1625POPC   GL219492   5.596   5.369  17.160 -0.1218 -0.3365 -0.1081
 1625POPC   C1A19493   5.598   4.868  17.243  0.0493 -0.0009 -0.1641
 1625POPC   D2A19494   5.260   4.728  17.020 -0.2193  0.0820 -0.1803
 1625POPC   C3A19495   4.979   4.842  16.645 -0.1425  0.5040  0.2189
 1625POPC   C4A19496   4.675   5.168  16.402  0.0837  0.1233  0.2579
 1625POPC   C1B19497   5.912   5.092  16.877 -0.3409 -0.0692  0.1486
 1625POPC   C2B19498   5.917   4.687  16.608  0.1365 -0.1354 -0.0107
 1625POPC   C3B19499   5.476   4.679  16.407 -0.0310  0.1563  0.1112
 1625POPC   C4B19500   5.094   4.794  16.184  0.2362  0.0038 -0.1020
 1626POPC   NC319501  10.004   6.626  12.657  0.0954 -0.0486  0.2004
 1626POPC   PO419502  10.163   6.318  12.849 -0.2171 -0.2589 -0.4517
 1626POPC   GL119503  10.414   6.648  12.920 -0.0009  0.2478 -0.0536
 1626POPC   GL219504  10.475   6.765  12.669 -0.0401 -0.0022 -0.2256
 1626POPC   C1A19505  10.471   6.993  13.255 -0.0914  0.2558 -0.0386
 1626POPC   D2A19506  10.444   7.306  13.607 -0.1828  0.1099 -0.1674
 1626POPC   C3A19507  10.850   7.434  13.815 -0.1329 -0.2590  0.2430
 1626POPC   C4A19508  10.899   7.851  14.051 -0.2880 -0.0025 -0.0502
 1626POPC   C1B19509  10.300   7.201  12.789  0.1622  0.1314 -0.2130
 1626POPC   C2B19510  10.312   7.611  12.956 -0.3961  0.1769  0.1515
 1626POPC   C3B19511  10.499   7.997  12.858 -0.0283  0.2860  0.0721
 1626POPC   C4B19512  10.555   8.420  12.887  0.1455  0.1036 -0.3147
 1627POPC   NC319513  15.985  10.738  20.759 -0.0932 -0.0559 -0.1268
 1627POPC   PO419514  15.714  10.988  20.553  0.0470  0.0044  0.1900
 1627POPC   GL119515  15.777  11.067  20.189 -0.0827  0.0203 -0.3173
 1627POPC   GL219516  15.847  10.804  20.081 -0.2183 -0.2941  0.0324
 1627POPC   C1A19517  15.901  11.523  19.971  0.0682  0.1290  0.1815
 1627POPC   D2A19518  15.927  11.981  19.888  0.0747  0.3580 -0.0778
 1627POPC   C3A19519  15.813  12.041  19.468  0.0486  0.1522 -0.1483
 1627POPC   C4A19520  15.713  12.253  19.067 -0.1732  0.0333 -0.0247
 1627POPC   C1B19521  16.157  10.559  19.814  0.2141 -0.3692  0.1404
 1627POPC   C2B19522  16.403  10.701  19.448  0.0970 -0.3450  0.0973
 1627POPC   C3B19523  16.647  10.848  19.025 -0.0481 -0.3099 -0.1468
 1627POPC   C4B19524  17.049  11.036  18.824  0.1336  0.1070 -0.1005
 1628POPC   NC319525  13.793   7.119  20.530  0.1565  0.0615  0.3016
 1628POPC   PO419526  13.897   7.355  20.248  0.1925 -0.0192  0.0887
 1628POPC   GL119527  13.762   7.583  19.849 -0.3464  0.0760  0.1311
 1628POPC   GL219528  13.572   7.583  19.634 -0.0568 -0.2813  0.0706
 1628POPC   C1A19529  14.077   7.632  19.472  0.0824  0.0971 -0.2443
 1628POPC   D2A19530  14.258   7.893  19.150  0.1100  0.1008 -0.2114
 1628POPC   C3A19531  14.525   7.938  18.815  0.1760 -0.0814  0.2374
 1628POPC   C4A19532  14.529   8.213  18.441  0.1828 -0.0168 -0.0320
 1628POPC   C1B19533  13.680   7.506  19.201 -0.0417 -0.1193 -0.0205
 1628POPC   C2B19534  13.725   7.333  18.800  0.2869  0.5005 -0.0084
 1628POPC   C3B19535  13.627   7.608  18.489  0.0956  0.0296 -0.1371
 1628POPC   C4B19536  13.713   7.996  18.318  0.1057 -0.0953 -0.3080
 1629POPC   NC319537  10.419   6.608  14.715  0.2561  0.1381 -0.3880
 1629POPC   PO419538  10.598   6.352  14.970 -0.1772 -0.1888  0.1115
 1629POPC   GL119539  10.847   6.699  14.979 -0.0262  0.3031 -0.0226
 1629POPC   GL219540  10.695   6.920  15.015 -0.0471 -0.0014 -0.2613
 1629POPC   C1A19541  11.219   6.942  15.099  0.0180 -0.4257  0.1612
 1629POPC   D2A19542  11.489   6.630  15.246  0.1104  0.0589 -0.0803
 1629POPC   C3A19543  11.941   6.459  15.196  0.1329  0.1765 -0.3491
 1629POPC   C4A19544  12.286   6.553  15.474 -0.0191  0.1774 -0.2260
 1629POPC   C1B19545  10.491   7.179  14.706 -0.1076  0.1154 -0.0086
 1629POPC   C2B19546  10.201   7.441  14.386 -0.1339 -0.1371 -0.1098
 1629POPC   C3B19547  10.066   7.631  14.001  0.1274 -0.0442  0.5253
 1629POPC   C4B19548   9.885   8.030  13.877 -0.0204 -0.0373 -0.0540
 1630POPC   NC319549  14.332  13.247  20.194 -0.2452  0.0202 -0.0697
 1630POPC   PO419550  14.143  13.587  20.321 -0.2248 -0.2188  0.0765
 1630POPC   GL119551  14.411  13.668  20.038 -0.1899  0.3718 -0.3372
 1630POPC   GL219552  14.628  13.937  20.131  0.2207 -0.1276 -0.0574
 1630POPC   C1A19553  14.371  13.313  19.696 -0.0797  0.0238 -0.1469
 1630POPC   D2A19554  14.574  12.956  19.451 -0.0700 -0.0870  0.2234
 1630POPC   C3A19555  14.617  13.134  19.027  0.0479 -0.0145 -0.4862
 1630POPC   C4A19556  14.674  12.803  18.713 -0.1996  0.2963  0.3404
 1630POPC   C1B19557  14.753  13.737  19.763 -0.1296 -0.0221  0.1028
 1630POPC   C2B19558  14.824  13.387  19.428  0.1269  0.1017 -0.0660
 1630POPC   C3B19559  14.952  13.485  19.000 -0.1509 -0.2474  0.0204
 1630POPC   C4B19560  15.358  13.617  18.895 -0.0743  0.1175 -0.1653
 1631POPC   NC319561   7.699   6.032  16.370  0.0176 -0.1614 -0.2273
 1631POPC   PO419562   7.730   5.640  16.349 -0.3117 -0.0719  0.1410
 1631POPC   GL119563   7.432   5.685  16.165 -0.1451 -0.0674  0.0248
 1631POPC   GL219564   7.399   5.653  15.896 -0.0185 -0.1765 -0.0100
 1631POPC   C1A19565   7.040   5.669  16.293  0.1185  0.2124 -0.1977
 1631POPC   D2A19566   6.604   5.775  16.167 -0.1068 -0.3146 -0.2680
 1631POPC   C3A19567   6.431   5.692  15.763  0.2161 -0.1354  0.0173
 1631POPC   C4A19568   6.708   5.911  15.432 -0.0989 -0.0217  0.0782
 1631POPC   C1B19569   7.363   5.412  15.492 -0.3428  0.2265 -0.5772
 1631POPC   C2B19570   7.352   5.477  15.061  0.2482 -0.0735 -0.1478
 1631POPC   C3B19571   7.026   5.520  14.720 -0.2672  0.0126  0.1513
 1631POPC   C4B19572   6.831   5.688  14.314  0.3751 -0.1890 -0.0277
 1632POPC   NC319573  12.565  11.507  20.637 -0.1384 -0.1984  0.1795
 1632POPC   PO419574  12.387  11.318  20.376 -0.1107 -0.2858  0.1060
 1632POPC   GL119575  12.393  11.607  20.054  0.2983  0.2288 -0.0153
 1632POPC   GL219576  12.638  11.405  19.981  0.0008 -0.0811  0.5149
 1632POPC   C1A19577  12.260  11.712  19.639 -0.0407 -0.1431  0.2141
 1632POPC   D2A19578  12.114  11.688  19.218  0.0471  0.1381  0.0007
 1632POPC   C3A19579  12.219  11.918  18.885 -0.3111 -0.2346  0.1671
 1632POPC   C4A19580  12.521  12.231  18.827  0.0814 -0.2301 -0.0859
 1632POPC   C1B19581  12.794  11.653  19.647 -0.1740  0.2039  0.3867
 1632POPC   C2B19582  13.065  11.620  19.290  0.2517  0.0828 -0.1526
 1632POPC   C3B19583  13.368  11.653  18.981 -0.2317 -0.0267  0.0642
 1632POPC   C4B19584  13.605  11.753  18.578 -0.0220 -0.0012 -0.1568
 1633POPC   NC319585   9.207   7.602  15.821  0.4078 -0.0729 -0.1366
 1633POPC   PO419586   8.876   7.500  15.980  0.0796  0.0269 -0.1673
 1633POPC   GL119587   8.756   7.800  15.781 -0.1665 -0.0591 -0.3815
 1633POPC   GL219588   8.633   7.632  15.565  0.3572  0.1412 -0.0083
 1633POPC   C1A19589   8.780   8.100  15.472  0.1479  0.0021  0.2181
 1633POPC   D2A19590   8.527   8.409  15.233  0.0765 -0.1979  0.1476
 1633POPC   C3A19591   8.693   8.851  15.159  0.1554  0.1172  0.0208
 1633POPC   C4A19592   8.856   9.264  15.030  0.0001 -0.1139  0.2156
 1633POPC   C1B19593   8.282   7.794  15.305  0.1291 -0.2776  0.1539
 1633POPC   C2B19594   8.351   8.069  14.950 -0.2097  0.1138  0.2240
 1633POPC   C3B19595   8.275   8.289  14.556  0.0185 -0.0022 -0.2635
 1633POPC   C4B19596   8.482   8.562  14.186 -0.2005 -0.0129  0.3845
 1634POPC   NC319597   8.417  12.212  20.169  0.1889  0.0843  0.0213
 1634POPC   PO419598   8.772  12.043  20.279  0.1197 -0.4427 -0.1670
 1634POPC   GL119599   8.834  12.128  19.894  0.0354  0.0460 -0.2213
 1634POPC   GL219600   8.968  12.026  19.674  0.1890  0.0037  0.3503
 1634POPC   C1A19601   8.662  12.442  19.594 -0.1640 -0.0475  0.0925
 1634POPC   D2A19602   8.411  12.493  19.210 -0.0332 -0.2624 -0.2572
 1634POPC   C3A19603   8.154  12.849  18.973 -0.0350  0.0752 -0.1771
 1634POPC   C4A19604   7.920  13.147  18.752  0.0397 -0.1665 -0.1542
 1634POPC   C1B19605   9.023  12.239  19.341  0.0033 -0.0157  0.1603
 1634POPC   C2B19606   8.873  12.548  19.098  0.0805  0.1002 -0.1676
 1634POPC   C3B19607   8.682  12.833  18.855 -0.0757 -0.2270  0.0572
 1634POPC   C4B19608   8.366  12.988  18.509  0.0757  0.3104  0.3575
 1635POPC   NC319609  14.815   6.917  20.152  0.0894  0.0486  0.1668
 1635POPC   PO419610  14.864   7.279  20.025  0.1646  0.3271  0.1588
 1635POPC   GL119611  14.882   7.474  19.652 -0.1235 -0.0835 -0.2364
 1635POPC   GL219612  14.583   7.545  19.554  0.0151  0.4209  0.0761
 1635POPC   C1A19613  15.196   7.663  19.351  0.1209  0.1721 -0.1311
 1635POPC   D2A19614  15.594   7.633  19.128 -0.1299 -0.0999  0.1640
 1635POPC   C3A19615  15.811   7.985  19.004  0.1122 -0.0307  0.1475
 1635POPC   C4A19616  16.107   8.327  19.085  0.1792  0.1101  0.0499
 1635POPC   C1B19617  14.753   7.640  19.146 -0.0560 -0.1890 -0.2168
 1635POPC   C2B19618  15.088   7.773  18.852  0.1116  0.0906 -0.2475
 1635POPC   C3B19619  15.264   7.764  18.432  0.3728 -0.0699 -0.1462
 1635POPC   C4B19620  15.206   7.804  17.988  0.0304 -0.0217 -0.0418
 1636POPC   NC319621   9.316  15.327  20.151 -0.0399  0.1562  0.2002
 1636POPC   PO419622   9.478  14.985  20.140  0.0325  0.1109 -0.2714
 1636POPC   GL119623   9.542  15.053  19.849  0.0072 -0.2198  0.1476
 1636POPC   GL219624   9.710  15.259  19.790 -0.0757 -0.1714  0.0978
 1636POPC   C1A19625   9.652  14.809  19.430  0.0132  0.0482 -0.2035
 1636POPC   D2A19626   9.795  14.757  18.999 -0.0409 -0.5269  0.5608
 1636POPC   C3A19627   9.684  14.930  18.556  0.4969  0.1115 -0.2183
 1636POPC   C4A19628   9.337  14.985  18.226 -0.0173 -0.0899  0.2002
 1636POPC   C1B19629   9.850  15.379  19.380  0.3209  0.0936 -0.0216
 1636POPC   C2B19630  10.082  15.283  19.026 -0.0408 -0.0512  0.2365
 1636POPC   C3B19631  10.123  15.435  18.575  0.2636 -0.1652 -0.0181
 1636POPC   C4B19632  10.111  15.698  18.190 -0.2765 -0.1057  0.2369
 1637POPC   NC319633   3.412   2.696  20.156 -0.0410 -0.1092  0.0692
 1637POPC   PO419634   3.746   2.763  19.909  0.2914 -0.0235  0.0334
 1637POPC   GL119635   3.574   2.532  19.581 -0.2758  0.0151  0.0772
 1637POPC   GL219636   3.310   2.402  19.708  0.0218 -0.1329  0.2828
 1637POPC   C1A19637   3.698   2.240  19.252  0.1219 -0.0566 -0.1019
 1637POPC   D2A19638   3.708   1.771  19.109 -0.1856 -0.2250 -0.1052
 1637POPC   C3A19639   3.959   1.672  18.714 -0.0587 -0.0798  0.4072
 1637POPC   C4A19640   3.992   1.201  18.610  0.0880  0.0501  0.1907
 1637POPC   C1B19641   3.212   2.227  19.307  0.1094 -0.2977  0.0650
 1637POPC   C2B19642   3.330   2.012  18.904 -0.1444 -0.2492 -0.0981
 1637POPC   C3B19643   3.114   1.838  18.505  0.2062 -0.0450  0.2916
 1637POPC   C4B19644   2.789   1.581  18.222  0.0706 -0.0299 -0.0844
 1638POPC   NC319645   9.968   6.618  16.117 -0.0854 -0.0272 -0.3052
 1638POPC   PO419646  10.050   6.457  15.755 -0.1032  0.0199 -0.1132
 1638POPC   GL119647  10.181   6.848  15.682  0.3464 -0.1001  0.0535
 1638POPC   GL219648   9.935   7.068  15.647  0.0747 -0.2607  0.0312
 1638POPC   C1A19649  10.420   7.065  15.383  0.0858 -0.0403 -0.1206
 1638POPC   D2A19650  10.609   7.420  15.133  0.1378  0.0811  0.0206
 1638POPC   C3A19651  10.687   7.692  14.813 -0.1734 -0.0738  0.0939
 1638POPC   C4A19652  10.770   8.021  14.533 -0.0940 -0.3542  0.0345
 1638POPC   C1B19653  10.090   7.499  15.490 -0.1253 -0.0024  0.1964
 1638POPC   C2B19654  10.318   7.801  15.238  0.0416  0.3151 -0.0466
 1638POPC   C3B19655  10.262   8.226  15.094  0.0256 -0.1698  0.1936
 1638POPC   C4B19656  10.278   8.387  14.641 -0.0496 -0.2479 -0.0295
 1639POPC   NC319657   9.147   2.160  18.681 -0.1524 -0.0207  0.2833
 1639POPC   PO419658   8.908   2.183  18.334  0.0529 -0.2505 -0.1271
 1639POPC   GL119659   9.099   2.173  17.955 -0.0601 -0.1109  0.3117
 1639POPC   GL219660   8.975   1.905  17.931 -0.0997  0.2334 -0.0977
 1639POPC   C1A19661   9.170   2.205  17.490  0.1461  0.0370 -0.2040
 1639POPC   D2A19662   9.488   2.054  17.242  0.2643  0.0551  0.0321
 1639POPC   C3A19663   9.750   1.750  17.430  0.1311  0.0845 -0.1480
 1639POPC   C4A19664  10.106   1.492  17.373  0.2208 -0.1210  0.3118
 1639POPC   C1B19665   8.911   1.438  17.742  0.0295  0.1191  0.0318
 1639POPC   C2B19666   8.560   1.355  17.411  0.1864 -0.0296  0.0738
 1639POPC   C3B19667   8.169   1.145  17.247 -0.3029  0.1831  0.4114
 1639POPC   C4B19668   7.967   1.167  16.878 -0.2297  0.0498  0.0530
 1640POPC   NC319669  16.313   0.986  20.044  0.0796 -0.0198  0.1634
 1640POPC   PO419670  16.044   0.822  19.818 -0.1865 -0.2496 -0.1042
 1640POPC   GL119671  15.908   0.790  19.488  0.0896 -0.1889  0.1111
 1640POPC   GL219672  15.960   0.658  19.186 -0.1363  0.1900  0.1694
 1640POPC   C1A19673  16.012   0.260  19.482  0.1682 -0.1404  0.0456
 1640POPC   D2A19674  16.095   0.077  19.080 -0.0841  0.0860  0.1287
 1640POPC   C3A19675  16.264   0.385  18.784 -0.4557 -0.0975  0.0418
 1640POPC   C4A19676  16.462   0.767  18.569  0.1288 -0.0420 -0.1463
 1640POPC   C1B19677  15.755   0.356  18.893 -0.1704  0.4094  0.2570
 1640POPC   C2B19678  15.646   0.081  18.584  0.1012 -0.0781 -0.1523
 1640POPC   C3B19679  15.484  -0.349  18.579  0.0166 -0.1374 -0.2546
 1640POPC   C4B19680  15.654  -0.724  18.383  0.1555  0.0067  0.0909
 1641POPC   NC319681  12.014   9.963  20.044 -0.1310  0.0558 -0.2627
 1641POPC   PO419682  11.718  10.271  20.032 -0.1155 -0.0140 -0.1084
 1641POPC   GL119683  11.744  10.369  19.604 -0.0325 -0.2834  0.1062
 1641POPC   GL219684  11.472  10.388  19.468 -0.1514 -0.4052 -0.1847
 1641POPC   C1A19685  12.055  10.401  19.224 -0.0002 -0.0047  0.0972
 1641POPC   D2A19686  12.112  10.639  18.839  0.1215 -0.2114  0.4040
 1641POPC   C3A19687  12.541  10.637  18.607  0.2092 -0.3287 -0.2184
 1641POPC   C4A19688  12.868  10.780  18.294 -0.0397  0.0073  0.2298
 1641POPC   C1B19689  11.553  10.338  18.980 -0.0575 -0.3912  0.0320
 1641POPC   C2B19690  11.665  10.481  18.582 -0.0930 -0.1171  0.0941
 1641POPC   C3B19691  11.441  10.582  18.198 -0.2150  0.1229  0.2979
 1641POPC   C4B19692  11.304  10.825  17.771  0.2171  0.1909 -0.0762
 1642POPC   NC319693   7.826   0.763  19.750 -0.0208 -0.2598  0.0932
 1642POPC   PO419694   7.481   0.883  19.674  0.0455  0.0981  0.0639
 1642POPC   GL119695   7.460   0.751  19.280 -0.0817  0.3625  0.1339
 1642POPC   GL219696   7.649   0.482  19.338  0.1213  0.0053  0.2873
 1642POPC   C1A19697   7.655   0.988  18.957  0.1513 -0.2021 -0.1399
 1642POPC   D2A19698   7.810   0.898  18.523 -0.1230  0.0415 -0.0969
 1642POPC   C3A19699   7.920   0.983  18.062  0.0088  0.0545 -0.0574
 1642POPC   C4A19700   8.245   1.109  17.805 -0.1381 -0.3844  0.1886
 1642POPC   C1B19701   7.688   0.515  18.872  0.1055  0.2676  0.1955
 1642POPC   C2B19702   7.656   0.443  18.398  0.1285 -0.0723 -0.0303
 1642POPC   C3B19703   7.496   0.191  18.067  0.3002 -0.2124  0.2669
 1642POPC   C4B19704   7.413   0.174  17.587  0.0752 -0.0654 -0.2014
 1643POPC   NC319705   9.926  15.714  19.824  0.2019 -0.1988  0.4148
 1643POPC   PO419706   9.625  15.656  20.076 -0.0278 -0.1375 -0.1520
 1643POPC   GL119707   9.413  15.614  19.658 -0.2112  0.3473 -0.0802
 1643POPC   GL219708   9.436  15.886  19.663 -0.1492 -0.1618  0.3253
 1643POPC   C1A19709   9.266  15.615  19.197 -0.1218 -0.0052  0.1373
 1643POPC   D2A19710   9.161  15.610  18.780  0.0279 -0.0894  0.0905
 1643POPC   C3A19711   9.549  15.427  18.566  0.0814  0.1847  0.0381
 1643POPC   C4A19712   9.781  15.341  18.209 -0.2737  0.3000 -0.0108
 1643POPC   C1B19713   9.587  16.016  19.242  0.0963  0.0219 -0.0828
 1643POPC   C2B19714   9.727  15.671  18.936  0.0940 -0.0032 -0.4924
 1643POPC   C3B19715   9.546  15.207  18.993  0.5614 -0.2840 -0.0198
 1643POPC   C4B19716   9.278  14.878  19.105  0.0800 -0.0421 -0.1140
 1644POPC   NC319717   2.241  32.755  20.303 -0.0590 -0.0333  0.2872
 1644POPC   PO419718   2.163  33.113  20.137  0.1245 -0.1071 -0.2800
 1644POPC   GL119719   2.090  33.078  19.718 -0.0984  0.0780  0.0180
 1644POPC   GL219720   1.838  33.313  19.759 -0.0798  0.0646 -0.1918
 1644POPC   C1A19721   1.964  33.199  19.313 -0.1115  0.1094  0.1160
 1644POPC   D2A19722   1.795  32.847  19.000  0.0774  0.0875 -0.4908
 1644POPC   C3A19723   1.967  32.661  18.638  0.0648 -0.0493  0.0221
 1644POPC   C4A19724   2.378  32.762  18.443 -0.1129  0.1283 -0.0116
 1644POPC   C1B19725   1.791  33.637  19.448 -0.1076  0.1964 -0.2652
 1644POPC   C2B19726   1.875  33.976  19.192 -0.0382  0.0057 -0.2495
 1644POPC   C3B19727   2.168  34.247  19.013 -0.1349 -0.0932  0.0110
 1644POPC   C4B19728   2.534  34.375  19.173  0.3267  0.0526 -0.1528
 1645POPC   NC319729  30.603   9.077  20.505  0.1689 -0.0585  0.1716
 1645POPC   PO419730  30.880   8.871  20.334  0.2576 -0.0271  0.2367
 1645POPC   GL119731  30.978   8.901  19.994 -0.0470  0.1387  0.1406
 1645POPC   GL219732  30.759   8.749  19.840  0.2151 -0.2677 -0.1798
 1645POPC   C1A19733  31.254   9.171  19.666 -0.2836 -0.0949 -0.0496
 1645POPC   D2A19734  31.547   9.183  19.343 -0.2944 -0.2500 -0.4109
 1645POPC   C3A19735  31.981   9.277  19.489 -0.2996  0.2587  0.0377
 1645POPC   C4A19736  32.461   9.201  19.401  0.0288  0.0766 -0.1061
 1645POPC   C1B19737  30.863   8.996  19.483 -0.2251 -0.0167 -0.3876
 1645POPC   C2B19738  30.668   9.307  19.158 -0.0179 -0.0203 -0.0549
 1645POPC   C3B19739  30.695   9.617  18.813  0.1250 -0.0852 -0.3498
 1645POPC   C4B19740  30.597   9.917  18.477 -0.0209  0.4142 -0.1643
 1646POPC   NC319741   0.219  10.617  21.026  0.2031  0.1729 -0.0844
 1646POPC   PO419742   0.094  10.432  20.702  0.3432  0.0763  0.0229
 1646POPC   GL119743   0.280  10.424  20.318  0.3190  0.7688  0.0432
 1646POPC   GL219744   0.546  10.274  20.178  0.0288  0.1232  0.0462
 1646POPC   C1A19745   0.326  10.655  19.946 -0.2676  0.1519 -0.2377
 1646POPC   D2A19746   0.377  10.686  19.532  0.2211  0.0055 -0.0759
 1646POPC   C3A19747   0.695  10.357  19.389  0.0624  0.0968  0.0283
 1646POPC   C4A19748   0.802  10.153  18.973  0.0516 -0.1065 -0.0453
 1646POPC   C1B19749   0.332  10.197  19.781  0.0821 -0.2735  0.2786
 1646POPC   C2B19750   0.338  10.016  19.380 -0.1507  0.1870 -0.0027
 1646POPC   C3B19751   0.346   9.819  18.993 -0.3028  0.1025  0.2315
 1646POPC   C4B19752   0.274  10.081  18.597 -0.3616 -0.0910  0.1815
 1647POPC   NC319753   2.450  11.162  21.245 -0.1041 -0.0942  0.0656
 1647POPC   PO419754   2.331  11.154  20.868 -0.1133  0.2383 -0.0505
 1647POPC   GL119755   2.373  11.163  20.455  0.1079 -0.1869 -0.0296
 1647POPC   GL219756   2.603  11.362  20.376 -0.0115 -0.3254 -0.2151
 1647POPC   C1A19757   2.174  11.034  20.071 -0.2871 -0.0182  0.0647
 1647POPC   D2A19758   2.150  11.211  19.650 -0.2037  0.3241  0.2476
 1647POPC   C3A19759   2.331  11.599  19.467  0.1725  0.3521 -0.1731
 1647POPC   C4A19760   2.246  12.028  19.372  0.0347  0.1863 -0.0488
 1647POPC   C1B19761   2.846  11.333  19.974  0.1466  0.0549 -0.1171
 1647POPC   C2B19762   2.942  11.559  19.554  0.1117  0.2690  0.0665
 1647POPC   C3B19763   3.212  11.739  19.230 -0.3085 -0.1762  0.0414
 1647POPC   C4B19764   3.585  11.680  18.966 -0.1228 -0.1116 -0.0712
 1648POPC   NC319765   3.554  11.873  20.909 -0.0468 -0.2549  0.2821
 1648POPC   PO419766   3.928  12.025  20.922 -0.0933 -0.2834 -0.2098
 1648POPC   GL119767   3.831  11.944  20.475 -0.1243  0.0494  0.0981
 1648POPC   GL219768   4.079  12.174  20.431 -0.0356 -0.0920  0.2148
 1648POPC   C1A19769   4.087  11.882  20.055 -0.0411 -0.0839 -0.2566
 1648POPC   D2A19770   4.007  11.561  19.712 -0.2375  0.0890 -0.1843
 1648POPC   C3A19771   3.960  11.541  19.218 -0.1879  0.3774 -0.3242
 1648POPC   C4A19772   3.817  11.263  18.866 -0.1581 -0.0361 -0.1923
 1648POPC   C1B19773   4.293  12.341  20.018  0.3142  0.0508  0.0153
 1648POPC   C2B19774   4.406  12.559  19.659 -0.1930 -0.3488 -0.1748
 1648POPC   C3B19775   4.377  12.979  19.477  0.2861 -0.1184 -0.2029
 1648POPC   C4B19776   4.444  13.126  19.088  0.0209  0.4946  0.0439
 1649POPC   NC319777  16.296   1.889  20.215 -0.1704  0.0430 -0.0396
 1649POPC   PO419778  16.217   1.549  20.012 -0.1543 -0.0963  0.0380
 1649POPC   GL119779  16.201   1.513  19.610 -0.0748 -0.0533 -0.1406
 1649POPC   GL219780  16.085   1.242  19.540 -0.1212 -0.0329  0.0465
 1649POPC   C1A19781  16.476   1.497  19.197  0.2807 -0.0408 -0.0051
 1649POPC   D2A19782  16.934   1.476  19.149 -0.0179 -0.2766 -0.0327
 1649POPC   C3A19783  17.110   1.424  18.748  0.0933 -0.0072  0.2055
 1649POPC   C4A19784  17.202   1.389  18.316 -0.0452  0.1392  0.1876
 1649POPC   C1B19785  16.424   1.032  19.342  0.1362  0.0916  0.1963
 1649POPC   C2B19786  16.668   1.067  19.022 -0.1255  0.1733  0.0207
 1649POPC   C3B19787  16.975   0.936  18.662  0.1526  0.1010 -0.0453
 1649POPC   C4B19788  17.184   0.829  18.267 -0.6239  0.1514 -0.3461
 1650POPC   NC319789   0.977   6.805  20.260  0.1761 -0.5226  0.2009
 1650POPC   PO419790   0.864   7.019  19.969 -0.0568  0.1795  0.2506
 1650POPC   GL119791   0.726   7.129  19.570  0.0293  0.3979  0.2072
 1650POPC   GL219792   0.877   7.357  19.524  0.0215  0.0282 -0.1942
 1650POPC   C1A19793   0.429   6.968  19.235  0.0869  0.1026 -0.1625
 1650POPC   D2A19794   0.050   6.972  18.937 -0.0501 -0.1459 -0.2222
 1650POPC   C3A19795   0.030   7.001  18.490  0.1266 -0.2435  0.1859
 1650POPC   C4A19796  -0.250   6.757  18.201 -0.2438 -0.1331  0.1959
 1650POPC   C1B19797   0.827   7.265  19.107  0.1843  0.2221 -0.0544
 1650POPC   C2B19798   0.540   7.213  18.811  0.0618 -0.0602 -0.0074
 1650POPC   C3B19799   0.617   7.121  18.409  0.1274  0.1393  0.3693
 1650POPC   C4B19800   0.841   7.091  17.959  0.0796 -0.0391 -0.0502
 1651POPC   NC319801   7.760  16.030  19.716  0.0444  0.3771 -0.0941
 1651POPC   PO419802   7.587  16.387  19.706 -0.2017  0.1139  0.0854
 1651POPC   GL119803   7.453  16.182  19.403  0.1795  0.3203  0.0734
 1651POPC   GL219804   7.269  15.930  19.486 -0.2575  0.0425 -0.1508
 1651POPC   C1A19805   7.629  16.172  18.999 -0.0898  0.2888 -0.1797
 1651POPC   D2A19806   8.010  16.244  18.726 -0.2115 -0.4639 -0.0436
 1651POPC   C3A19807   7.953  16.152  18.274 -0.0580  0.1774 -0.1889
 1651POPC   C4A19808   7.582  15.990  18.002 -0.1135 -0.0162 -0.0356
 1651POPC   C1B19809   7.083  15.950  19.061 -0.1381  0.1952 -0.0515
 1651POPC   C2B19810   6.907  15.689  18.666 -0.0701 -0.1712  0.0563
 1651POPC   C3B19811   6.752  15.425  18.267 -0.0862 -0.1414  0.1500
 1651POPC   C4B19812   6.508  15.095  18.102  0.0230 -0.0188 -0.1177
 1652POPC   NC319813  13.586   1.895  19.870 -0.1025  0.1648 -0.0503
 1652POPC   PO419814  13.880   1.714  20.020  0.0342 -0.1454  0.0554
 1652POPC   GL119815  13.950   1.621  19.652 -0.2789 -0.3285  0.3108
 1652POPC   GL219816  14.199   1.409  19.697 -0.0851 -0.0694  0.0754
 1652POPC   C1A19817  14.128   1.618  19.240  0.1032 -0.0537  0.0917
 1652POPC   D2A19818  14.230   1.543  18.797  0.1806  0.1154  0.1390
 1652POPC   C3A19819  14.270   1.438  18.339 -0.1150 -0.0332  0.1395
 1652POPC   C4A19820  14.431   1.327  17.935  0.0330 -0.5293 -0.1630
 1652POPC   C1B19821  13.955   1.168  19.367 -0.0343  0.0572  0.0288
 1652POPC   C2B19822  14.070   0.784  19.115  0.2462  0.0852 -0.2203
 1652POPC   C3B19823  14.228   0.487  18.766  0.1669 -0.0166 -0.3162
 1652POPC   C4B19824  14.488   0.107  18.735  0.0246 -0.1007 -0.2452
 1653POPC   NC319825   4.693  10.789  20.129  0.0973 -0.2196 -0.3430
 1653POPC   PO419826   5.039  11.003  20.092 -0.2932 -0.0966 -0.0238
 1653POPC   GL119827   4.954  11.257  19.818  0.2439 -0.0878  0.2972
 1653POPC   GL219828   5.065  11.117  19.550  0.0040 -0.2215  0.0412
 1653POPC   C1A19829   4.742  11.546  19.508 -0.2503  0.1006  0.0069
 1653POPC   D2A19830   4.838  11.801  19.171  0.0339  0.0264  0.2225
 1653POPC   C3A19831   4.617  11.668  18.795  0.1053  0.0321  0.0992
 1653POPC   C4A19832   4.283  11.441  18.587  0.1874  0.1492  0.0999
 1653POPC   C1B19833   4.918  11.171  19.122  0.1277  0.2397  0.2633
 1653POPC   C2B19834   4.710  11.112  18.676  0.2392 -0.0801 -0.0932
 1653POPC   C3B19835   4.460  10.993  18.263  0.0331 -0.2975 -0.0841
 1653POPC   C4B19836   4.169  10.691  18.196 -0.2385  0.2103 -0.0077
 1654POPC   NC319837  10.441  10.105  19.727  0.0300 -0.0885  0.3662
 1654POPC   PO419838  10.490   9.784  19.585  0.1710  0.1001  0.0406
 1654POPC   GL119839  10.169  10.135  19.373  0.0449 -0.5113 -0.2981
 1654POPC   GL219840  10.078  10.029  19.176  0.0389  0.2041  0.1442
 1654POPC   C1A19841  10.256  10.511  19.168 -0.0837 -0.3584 -0.3308
 1654POPC   D2A19842  10.197  10.673  18.704  0.3772  0.2875 -0.1257
 1654POPC   C3A19843  10.019  11.095  18.541  0.0002  0.3815 -0.0827
 1654POPC   C4A19844  10.034  11.540  18.463 -0.1517 -0.2648 -0.2929
 1654POPC   C1B19845  10.223  10.092  18.786 -0.0949  0.0017  0.1495
 1654POPC   C2B19846  10.601  10.338  18.735 -0.0920 -0.2247  0.1648
 1654POPC   C3B19847  10.996  10.079  18.762  0.1278 -0.0227  0.0867
 1654POPC   C4B19848  11.415   9.856  18.822 -0.0533  0.1879  0.1562
 1655POPC   NC319849  12.493   6.356  19.157  0.1140  0.0678  0.0009
 1655POPC   PO419850  12.449   6.728  19.343  0.2413  0.0427  0.0700
 1655POPC   GL119851  12.584   6.925  18.943 -0.0005 -0.2594 -0.5196
 1655POPC   GL219852  12.738   7.223  18.861  0.0005  0.0285 -0.0912
 1655POPC   C1A19853  12.434   7.088  18.496 -0.1006 -0.1977  0.1014
 1655POPC   D2A19854  11.983   7.269  18.458 -0.2254  0.1578  0.2781
 1655POPC   C3A19855  11.945   7.603  18.175  0.1285 -0.1607 -0.0066
 1655POPC   C4A19856  12.143   8.037  18.097  0.1571  0.0648 -0.3235
 1655POPC   C1B19857  12.977   7.054  18.488 -0.2211 -0.1213 -0.0148
 1655POPC   C2B19858  13.386   7.119  18.369 -0.0818  0.0139  0.1937
 1655POPC   C3B19859  13.838   7.220  18.181  0.1558 -0.0992  0.3865
 1655POPC   C4B19860  14.228   7.332  18.444 -0.3309 -0.1089  0.0391
 1656POPC   NC319861   6.292   0.581  19.663  0.0909 -0.3243 -0.4172
 1656POPC   PO419862   6.496   0.905  19.520 -0.1582 -0.1418 -0.0824
 1656POPC   GL119863   6.449   0.641  19.253 -0.2481 -0.3804 -0.1114
 1656POPC   GL219864   6.589   0.769  19.003  0.2233 -0.0930  0.3049
 1656POPC   C1A19865   6.801   0.356  19.272  0.1237 -0.1352  0.3082
 1656POPC   D2A19866   6.848  -0.076  19.153  0.0361  0.1230  0.2371
 1656POPC   C3A19867   6.881  -0.364  18.831 -0.0406 -0.1401  0.0296
 1656POPC   C4A19868   7.021  -0.694  18.611  0.2549  0.0426 -0.2465
 1656POPC   C1B19869   6.349   0.339  18.863  0.3688 -0.2598 -0.0756
 1656POPC   C2B19870   6.146   0.296  18.441  0.2010 -0.0396  0.0272
 1656POPC   C3B19871   5.856  -0.034  18.238 -0.0327  0.2081  0.2717
 1656POPC   C4B19872   5.867  -0.454  18.011 -0.0183  0.1021 -0.4336
 1657POPC   NC319873   1.945  15.974  20.365 -0.0124 -0.1013 -0.0386
 1657POPC   PO419874   1.967  16.355  20.245 -0.4494 -0.0861  0.0013
 1657POPC   GL119875   2.180  16.232  19.969  0.0525 -0.2132 -0.0014
 1657POPC   GL219876   2.073  16.086  19.763  0.1764  0.1896 -0.3549
 1657POPC   C1A19877   2.620  16.216  19.825  0.0169  0.1060 -0.1613
 1657POPC   D2A19878   2.936  16.534  19.638 -0.1150 -0.1073 -0.1001
 1657POPC   C3A19879   2.964  16.468  19.181  0.1191 -0.1143 -0.1560
 1657POPC   C4A19880   3.282  16.356  18.849  0.2435  0.0482 -0.1004
 1657POPC   C1B19881   2.314  16.301  19.448  0.2254  0.1505  0.2464
 1657POPC   C2B19882   2.627  16.125  19.201 -0.3209 -0.0067 -0.0092
 1657POPC   C3B19883   2.634  15.883  18.826 -0.2221  0.0431  0.0210
 1657POPC   C4B19884   2.747  15.490  18.576  0.0624  0.1771  0.3365
 1658POPC   NC319885   6.650  10.413  19.726  0.0740  0.3523  0.0221
 1658POPC   PO419886   6.333  10.636  19.716  0.2862 -0.2321  0.1647
 1658POPC   GL119887   6.428  10.803  19.421  0.2044 -0.1812 -0.0012
 1658POPC   GL219888   6.735  10.965  19.435 -0.2396 -0.3058 -0.0267
 1658POPC   C1A19889   6.001  10.812  19.137  0.1447  0.1499 -0.3116
 1658POPC   D2A19890   5.690  10.718  18.800 -0.0581 -0.2853 -0.2047
 1658POPC   C3A19891   5.718  10.515  18.368 -0.0264 -0.0245  0.1161
 1658POPC   C4A19892   6.038  10.549  17.968  0.2834 -0.0914 -0.2234
 1658POPC   C1B19893   6.567  11.053  18.999 -0.2110 -0.3401 -0.1702
 1658POPC   C2B19894   6.197  11.049  18.663 -0.1102 -0.4879 -0.0039
 1658POPC   C3B19895   5.852  11.034  18.390  0.2221 -0.1875  0.1493
 1658POPC   C4B19896   5.649  10.921  17.959 -0.0127 -0.1438 -0.1403
 1659POPC   NC319897   8.749   8.417  18.779 -0.0007 -0.0658  0.1058
 1659POPC   PO419898   8.753   8.759  18.575  0.1456 -0.0454 -0.1578
 1659POPC   GL119899   8.643   8.966  18.308 -0.0105 -0.2279  0.0343
 1659POPC   GL219900   8.871   9.196  18.277 -0.2013  0.1120 -0.1317
 1659POPC   C1A19901   8.733   9.027  17.825  0.3578 -0.1265 -0.0220
 1659POPC   D2A19902   8.621   9.206  17.394  0.1461  0.0591 -0.1231
 1659POPC   C3A19903   8.201   9.393  17.297 -0.3792  0.0574  0.0810
 1659POPC   C4A19904   7.903   9.700  17.147 -0.2444  0.0323  0.0351
 1659POPC   C1B19905   8.470   9.332  18.149  0.1361 -0.1729 -0.1572
 1659POPC   C2B19906   8.215   9.567  17.915  0.1894 -0.0133  0.2164
 1659POPC   C3B19907   7.777   9.510  17.658 -0.1613 -0.3756 -0.0962
 1659POPC   C4B19908   7.349   9.368  17.677  0.0362  0.0309  0.0119
 1660POPC   NC319909   6.616   7.725  18.338 -0.1881 -0.0145  0.1379
 1660POPC   PO419910   6.632   7.363  18.167 -0.0974  0.1319 -0.2783
 1660POPC   GL119911   6.292   7.450  18.066 -0.2127 -0.4147 -0.1351
 1660POPC   GL219912   6.031   7.434  18.199 -0.3809 -0.1855 -0.0826
 1660POPC   C1A19913   6.012   7.352  17.693  0.1195 -0.0960 -0.1395
 1660POPC   D2A19914   5.763   7.107  17.415 -0.3899  0.2302  0.0790
 1660POPC   C3A19915   5.655   7.253  16.984 -0.0046 -0.1807 -0.0355
 1660POPC   C4A19916   5.471   7.638  16.830 -0.1187 -0.0503  0.1124
 1660POPC   C1B19917   5.576   7.319  18.095 -0.1095  0.2375 -0.1126
 1660POPC   C2B19918   5.260   7.515  17.879 -0.0509  0.1218  0.1447
 1660POPC   C3B19919   4.971   7.509  17.505 -0.2692  0.1556 -0.0622
 1660POPC   C4B19920   5.030   7.681  17.070 -0.0220 -0.1098  0.1148
 1661POPC   NC319921   6.508  12.902  20.132  0.1608  0.1925 -0.2287
 1661POPC   PO419922   6.204  12.935  20.360  0.2281  0.0707 -0.0511
 1661POPC   GL119923   6.035  12.981  19.954 -0.0929 -0.0063  0.0673
 1661POPC   GL219924   6.074  13.300  20.029  0.1664 -0.1096 -0.0715
 1661POPC   C1A19925   6.009  12.699  19.575  0.3029  0.3554 -0.1957
 1661POPC   D2A19926   5.674  12.569  19.334  0.0178 -0.1889  0.1902
 1661POPC   C3A19927   5.470  12.546  18.886 -0.0553 -0.0033  0.8074
 1661POPC   C4A19928   5.260  12.781  18.475  0.0525  0.0490 -0.0730
 1661POPC   C1B19929   6.358  13.127  19.669  0.3970  0.2620 -0.0786
 1661POPC   C2B19930   6.500  13.264  19.238 -0.0628  0.3566 -0.0513
 1661POPC   C3B19931   6.633  13.406  18.795  0.1479  0.1811  0.2917
 1661POPC   C4B19932   6.610  13.642  18.387  0.1584  0.0158 -0.1881
 1662POPC   NC319933   9.787   3.382  16.017  0.4068 -0.3457  0.1858
 1662POPC   PO419934   9.459   3.543  16.247 -0.2269 -0.0800  0.1162
 1662POPC   GL119935   9.475   3.116  16.315 -0.3902 -0.1638 -0.1067
 1662POPC   GL219936   9.230   3.012  16.134  0.1656  0.1357  0.0777
 1662POPC   C1A19937   9.708   2.899  15.953 -0.0012  0.1755  0.1426
 1662POPC   D2A19938   9.642   2.474  15.761  0.1497  0.0813 -0.0389
 1662POPC   C3A19939   9.671   2.056  15.887 -0.1096  0.0838  0.3191
 1662POPC   C4A19940   9.803   1.667  16.009  0.0340  0.1522  0.0521
 1662POPC   C1B19941   9.212   2.893  15.737 -0.1464  0.1746 -0.3520
 1662POPC   C2B19942   9.111   3.037  15.341 -0.1827  0.1623  0.3383
 1662POPC   C3B19943   9.079   3.254  14.921 -0.0865 -0.1284  0.2162
 1662POPC   C4B19944   9.056   3.046  14.459  0.1592 -0.0824 -0.0712
 1663POPC   NC319945  11.346   7.122  18.835  0.1354 -0.2877 -0.2520
 1663POPC   PO419946  11.253   7.103  18.475 -0.1976  0.1436 -0.0897
 1663POPC   GL119947  11.459   7.479  18.544  0.0130  0.0287  0.0110
 1663POPC   GL219948  11.176   7.585  18.495  0.0553  0.1223 -0.2456
 1663POPC   C1A19949  11.666   7.955  18.442 -0.1995  0.2944  0.0311
 1663POPC   D2A19950  11.837   8.395  18.267 -0.5427  0.0132  0.0790
 1663POPC   C3A19951  12.026   8.661  18.013 -0.1387 -0.0303  0.1523
 1663POPC   C4A19952  12.225   8.669  17.595  0.1017  0.0649  0.0929
 1663POPC   C1B19953  11.406   7.636  18.104 -0.0932 -0.2158 -0.1588
 1663POPC   C2B19954  11.735   7.846  17.796 -0.0159  0.2888 -0.5163
 1663POPC   C3B19955  12.093   7.950  17.552  0.1016  0.1736 -0.0691
 1663POPC   C4B19956  12.406   7.764  17.241 -0.3370  0.2892 -0.0818
 1664POPC   NC319957   8.567   7.634  17.725  0.3446  0.2002  0.1320
 1664POPC   PO419958   8.898   7.632  17.494  0.1625 -0.2838  0.1145
 1664POPC   GL119959   8.689   7.949  17.189 -0.2058  0.4876 -0.0336
 1664POPC   GL219960   8.521   7.881  16.901 -0.0060 -0.2560 -0.3904
 1664POPC   C1A19961   8.921   8.242  16.898  0.1518  0.1457  0.0212
 1664POPC   D2A19962   9.011   8.354  16.435  0.2394 -0.0916 -0.0271
 1664POPC   C3A19963   9.190   8.756  16.266 -0.0466  0.0990  0.1874
 1664POPC   C4A19964   9.343   9.084  16.577  0.0001 -0.0196 -0.3262
 1664POPC   C1B19965   8.549   8.144  16.530  0.0355 -0.0349 -0.0351
 1664POPC   C2B19966   8.331   8.328  16.195  0.0234 -0.3054 -0.2415
 1664POPC   C3B19967   8.265   8.548  15.788  0.1945  0.0648  0.1253
 1664POPC   C4B19968   8.299   8.930  15.461 -0.4975  0.2252  0.2050
 1665POPC   NC319969  14.926   7.799  19.920  0.3335  0.0193  0.0914
 1665POPC   PO419970  14.527   7.901  19.929  0.0982 -0.2081  0.0943
 1665POPC   GL119971  14.575   8.229  19.676  0.1302  0.0196 -0.0815
 1665POPC   GL219972  14.638   8.042  19.460  0.2296  0.0283  0.0508
 1665POPC   C1A19973  14.784   8.563  19.386 -0.0925  0.0741 -0.0840
 1665POPC   D2A19974  14.873   8.795  18.975  0.1158 -0.2809  0.0640
 1665POPC   C3A19975  15.280   8.821  18.733  0.0575  0.1123 -0.1434
 1665POPC   C4A19976  15.661   9.041  18.850  0.1144  0.1308  0.1634
 1665POPC   C1B19977  14.806   8.188  19.116 -0.2192 -0.0006 -0.2087
 1665POPC   C2B19978  15.025   8.242  18.675  0.0343 -0.1007  0.0769
 1665POPC   C3B19979  15.079   8.329  18.277  0.0080 -0.0275  0.0415
 1665POPC   C4B19980  15.224   8.277  17.857 -0.1275 -0.0020 -0.0414
 1666POPC   NC319981   9.446   7.549  17.297  0.1322  0.1015 -0.0229
 1666POPC   PO419982   9.519   7.522  16.937 -0.1662 -0.0165 -0.1531
 1666POPC   GL119983   9.562   7.894  16.871  0.1048  0.1987 -0.1452
 1666POPC   GL219984   9.383   7.948  16.673 -0.2112 -0.0002 -0.1224
 1666POPC   C1A19985   9.702   8.320  16.937 -0.2722  0.0538 -0.0020
 1666POPC   D2A19986   9.675   8.783  17.080  0.0029  0.1452 -0.0584
 1666POPC   C3A19987   9.845   9.106  16.795  0.1315  0.1252 -0.0530
 1666POPC   C4A19988   9.800   9.562  16.684 -0.0528  0.0532  0.2222
 1666POPC   C1B19989   9.486   8.260  16.385  0.0579  0.2614  0.0783
 1666POPC   C2B19990   9.639   8.561  16.119  0.3847 -0.3970 -0.0678
 1666POPC   C3B19991   9.644   9.037  16.208 -0.0239 -0.2923 -0.0747
 1666POPC   C4B19992   9.544   9.327  15.888 -0.3986 -0.2171 -0.0670
 1667POPC   NC319993  11.374  14.824  19.797  0.1652  0.3423  0.4039
 1667POPC   PO419994  11.299  14.669  20.159 -0.1347  0.1544  0.0690
 1667POPC   GL119995  11.335  14.365  19.916  0.0905 -0.0548 -0.1796
 1667POPC   GL219996  11.492  14.062  20.077  0.1050 -0.2805  0.0135
 1667POPC   C1A19997  11.179  13.988  19.699  0.2706  0.3598  0.0813
 1667POPC   D2A19998  10.913  14.027  19.333  0.0966 -0.1792  0.2114
 1667POPC   C3A19999  11.182  13.807  19.066  0.1942  0.1674 -0.0515
 1667POPC   C4A20000  11.284  13.817  18.635  0.0528  0.0693  0.1771
 1667POPC   C1B20001  11.631  13.753  19.726 -0.2268  0.0551  0.1584
 1667POPC   C2B20002  11.638  13.680  19.279  0.2090  0.0728  0.2580
 1667POPC   C3B20003  11.773  13.610  18.825 -0.2463  0.0544 -0.1799
 1667POPC   C4B20004  11.754  13.734  18.409 -0.1047  0.3181 -0.2828
 1668POPC   NC320005  14.743  10.176  20.164  0.0795  0.2455  0.0246
 1668POPC   PO420006  14.871   9.809  20.213  0.1212  0.0393  0.0529
 1668POPC   GL120007  15.188   9.862  19.932  0.0963 -0.0584 -0.0974
 1668POPC   GL220008  15.036   9.666  19.737  0.3430  0.0406 -0.2464
 1668POPC   C1A20009  15.376  10.007  19.507  0.0250  0.1650  0.1206
 1668POPC   D2A20010  15.159  10.059  19.088  0.1349  0.2789  0.0409
 1668POPC   C3A20011  15.144  10.486  18.878 -0.2401 -0.1868  0.0701
 1668POPC   C4A20012  15.332  10.769  18.530 -0.1475 -0.0304 -0.1759
 1668POPC   C1B20013  14.897  10.054  19.530 -0.1278  0.3276 -0.0080
 1668POPC   C2B20014  14.596  10.201  19.198 -0.1526  0.0173 -0.4434
 1668POPC   C3B20015  14.517  10.456  18.814  0.4637 -0.3065  0.1674
 1668POPC   C4B20016  14.792  10.813  18.681  0.0640  0.0111  0.0185
 1669POPC   NC320017   1.957  15.074  21.007 -0.2071 -0.1258  0.2183
 1669POPC   PO420018   2.068  15.062  20.628  0.1539 -0.1304  0.0129
 1669POPC   GL120019   2.114  14.792  20.392  0.0141 -0.2238 -0.3421
 1669POPC   GL220020   2.365  14.868  20.304 -0.0502 -0.1335 -0.0368
 1669POPC   C1A20021   2.074  14.364  20.265  0.4726  0.1581  0.5441
 1669POPC   D2A20022   2.282  14.064  19.995  0.1155 -0.2175  0.2047
 1669POPC   C3A20023   2.424  14.199  19.633 -0.0126  0.1522 -0.1246
 1669POPC   C4A20024   2.492  14.429  19.265  0.0526  0.0411 -0.2108
 1669POPC   C1B20025   2.060  14.774  19.929 -0.1204  0.1087  0.0836
 1669POPC   C2B20026   2.102  14.746  19.468 -0.2876 -0.0795  0.0336
 1669POPC   C3B20027   2.203  14.725  19.004  0.0356  0.2421  0.0758
 1669POPC   C4B20028   2.328  14.752  18.540  0.1892  0.1624  0.0649
 1670POPC   NC320029   9.365   6.865  12.457 -0.2468 -0.0322 -0.0354
 1670POPC   PO420030   9.757   6.812  12.342  0.2531  0.0131 -0.0352
 1670POPC   GL120031   9.774   7.125  12.702  0.0020 -0.0738 -0.1602
 1670POPC   GL220032   9.929   7.251  12.475 -0.2654  0.0862 -0.1623
 1670POPC   C1A20033   9.351   7.348  12.696  0.0317 -0.0841 -0.0123
 1670POPC   D2A20034   8.898   7.583  12.587  0.1376  0.1608  0.0774
 1670POPC   C3A20035   8.629   7.902  12.325 -0.2121 -0.1034 -0.2416
 1670POPC   C4A20036   8.510   8.319  12.178  0.1691 -0.0144 -0.0452
 1670POPC   C1B20037   9.652   7.630  12.443  0.0344  0.0115 -0.0168
 1670POPC   C2B20038   9.376   7.868  12.664 -0.1235 -0.0577 -0.0930
 1670POPC   C3B20039   9.361   8.337  12.651  0.2055  0.0739  0.2264
 1670POPC   C4B20040   9.694   8.703  12.809 -0.1970  0.1304  0.1097
 1671POPC   NC320041  11.279   2.747  17.977 -0.0808  0.0585 -0.2258
 1671POPC   PO420042  11.565   2.939  18.135  0.2948  0.0857  0.0514
 1671POPC   GL120043  11.847   2.697  17.920 -0.3835  0.4523  0.3609
 1671POPC   GL220044  11.798   2.746  17.684  0.1508 -0.1941 -0.1442
 1671POPC   C1A20045  12.286   2.759  17.953 -0.0102 -0.0210 -0.0723
 1671POPC   D2A20046  12.690   2.987  17.973  0.1440  0.1290  0.2144
 1671POPC   C3A20047  13.041   2.817  17.848 -0.0525 -0.1273 -0.0586
 1671POPC   C4A20048  13.383   2.755  17.530  0.0141  0.1505  0.2158
 1671POPC   C1B20049  11.903   2.734  17.229  0.1146  0.1965 -0.0167
 1671POPC   C2B20050  11.833   2.451  16.901 -0.1690  0.2680 -0.2799
 1671POPC   C3B20051  11.751   2.066  16.708 -0.2304  0.2401 -0.0516
 1671POPC   C4B20052  12.104   1.728  16.727  0.1830  0.2790  0.1934
 1672POPC   NC320053  10.269   2.877  17.107 -0.0746  0.1774  0.2349
 1672POPC   PO420054  10.504   2.882  17.429  0.1900  0.1440  0.3172
 1672POPC   GL120055  10.660   2.577  17.202 -0.2378  0.2071 -0.0303
 1672POPC   GL220056  10.701   2.319  17.359  0.1054  0.2195  0.0127
 1672POPC   C1A20057  10.827   2.338  16.822  0.0553  0.2287 -0.1422
 1672POPC   D2A20058  11.168   2.152  16.627 -0.0825 -0.0581  0.0738
 1672POPC   C3A20059  11.262   1.938  16.218  0.0463  0.2574  0.1249
 1672POPC   C4A20060  11.308   1.506  16.101 -0.0296  0.0920  0.0438
 1672POPC   C1B20061  11.105   2.246  17.250  0.2449  0.1789  0.0134
 1672POPC   C2B20062  11.591   2.162  17.199  0.0723  0.0355 -0.0584
 1672POPC   C3B20063  12.085   2.113  17.162  0.3274  0.2419 -0.1088
 1672POPC   C4B20064  12.280   2.157  16.809 -0.1477 -0.1663  0.0570
 1673POPC   NC320065  10.477   2.754  17.864 -0.1119  0.0688 -0.0709
 1673POPC   PO420066  10.349   2.447  17.661 -0.2512 -0.0388  0.2464
 1673POPC   GL120067  10.181   2.462  17.278 -0.2188 -0.2057 -0.2337
 1673POPC   GL220068   9.946   2.336  17.215  0.0419 -0.1108 -0.1635
 1673POPC   C1A20069  10.336   2.257  16.912 -0.0684 -0.0473  0.1248
 1673POPC   D2A20070  10.425   1.807  16.766  0.4407 -0.2123  0.0025
 1673POPC   C3A20071  10.635   1.632  16.415  0.0556  0.0942 -0.4384
 1673POPC   C4A20072  10.901   1.339  16.212  0.1042  0.0210  0.1944
 1673POPC   C1B20073   9.910   1.941  16.883  0.1070 -0.1221  0.2750
 1673POPC   C2B20074   9.921   1.485  16.918  0.2867  0.0716  0.1486
 1673POPC   C3B20075  10.159   1.094  16.829  0.3223  0.0302  0.0190
 1673POPC   C4B20076  10.267   0.754  16.504 -0.1658  0.0815 -0.0887
 1674POPC   NC320077  10.410   0.704  19.010 -0.0642 -0.1505  0.2469
 1674POPC   PO420078  10.224   0.595  19.368  0.1954  0.1166 -0.0510
 1674POPC   GL120079  10.176   0.320  19.089 -0.3874 -0.0232  0.1345
 1674POPC   GL220080  10.500   0.164  19.070  0.2294 -0.0735 -0.0563
 1674POPC   C1A20081  10.121   0.394  18.635 -0.1760  0.1314 -0.0674
 1674POPC   D2A20082   9.797   0.424  18.276 -0.0825  0.2114  0.1336
 1674POPC   C3A20083   9.647   0.129  17.950 -0.2026 -0.0536 -0.2898
 1674POPC   C4A20084   9.786  -0.203  17.625 -0.0391 -0.0414  0.1319
 1674POPC   C1B20085  10.208  -0.092  18.774  0.0636 -0.2760 -0.0396
 1674POPC   C2B20086   9.945  -0.473  18.655 -0.1826  0.3151  0.0663
 1674POPC   C3B20087  10.042  -0.801  18.351 -0.2644  0.0191 -0.0183
 1674POPC   C4B20088  10.043  -0.890  17.921  0.1073  0.0464  0.2978
 1675POPC   NC320089  10.931   7.261  18.107  0.1657 -0.1237 -0.4578
 1675POPC   PO420090  10.651   7.332  17.862  0.1080  0.0456  0.0878
 1675POPC   GL120091  10.742   7.594  17.562  0.0926  0.3636 -0.1050
 1675POPC   GL220092  10.914   7.473  17.384 -0.1450 -0.2499 -0.2616
 1675POPC   C1A20093  10.736   7.938  17.271 -0.2212 -0.0128  0.1939
 1675POPC   D2A20094  10.959   8.223  17.008  0.1525  0.1755 -0.0776
 1675POPC   C3A20095  11.329   8.507  16.969 -0.1454  0.1602 -0.1654
 1675POPC   C4A20096  11.423   8.915  16.757  0.2856 -0.2927  0.0668
 1675POPC   C1B20097  11.081   7.721  17.027  0.0791 -0.2967  0.1151
 1675POPC   C2B20098  11.280   7.939  16.640  0.3437 -0.2565  0.0177
 1675POPC   C3B20099  11.446   7.909  16.204 -0.3178 -0.0012 -0.2433
 1675POPC   C4B20100  11.698   7.857  15.790 -0.1000 -0.1609 -0.2730
 1676POPC   NC320101   0.053  31.180  20.464  0.2522  0.1686  0.1538
 1676POPC   PO420102  -0.002  31.575  20.407  0.0842 -0.2097 -0.4482
 1676POPC   GL120103   0.165  31.460  20.079 -0.3936  0.3593 -0.1851
 1676POPC   GL220104   0.422  31.395  20.186 -0.1000 -0.1943  0.3396
 1676POPC   C1A20105   0.094  31.456  19.639 -0.1835 -0.0591 -0.2418
 1676POPC   D2A20106   0.131  31.384  19.208 -0.1225 -0.1335 -0.2570
 1676POPC   C3A20107   0.072  30.983  19.084  0.3261  0.0791  0.0116
 1676POPC   C4A20108  -0.036  30.658  18.788 -0.1346  0.2023  0.1307
 1676POPC   C1B20109   0.517  31.597  19.758  0.1441 -0.0195 -0.2808
 1676POPC   C2B20110   0.533  31.754  19.354 -0.1150  0.0567 -0.1360
 1676POPC   C3B20111   0.433  31.844  18.891  0.1296  0.0103 -0.1451
 1676POPC   C4B20112   0.279  31.999  18.487  0.2798 -0.3631  0.0822
 1677POPC   NC320113  15.295  13.193  20.901 -0.3121  0.0901 -0.0555
 1677POPC   PO420114  15.632  13.298  20.737  0.2683  0.1113 -0.2192
 1677POPC   GL120115  15.447  12.939  20.503  0.3520 -0.0705 -0.4203
 1677POPC   GL220116  15.753  12.859  20.560 -0.0634  0.2892 -0.3820
 1677POPC   C1A20117  15.125  12.829  20.195  0.0515 -0.2356 -0.0250
 1677POPC   D2A20118  15.101  12.785  19.749 -0.0493 -0.1718 -0.1684
 1677POPC   C3A20119  15.073  12.889  19.319  0.0315 -0.1141  0.1536
 1677POPC   C4A20120  15.209  13.021  18.878  0.3980  0.0233  0.4456
 1677POPC   C1B20121  15.646  12.869  20.091 -0.0845 -0.0297  0.2552
 1677POPC   C2B20122  15.507  13.118  19.741  0.1521  0.1914  0.1242
 1677POPC   C3B20123  15.377  13.369  19.349  0.0618  0.2163  0.3094
 1677POPC   C4B20124  15.606  13.762  19.278 -0.1876 -0.1796  0.1801
 1678POPC   NC320125   4.569   3.737  19.536  0.3563  0.1558 -0.2286
 1678POPC   PO420126   4.315   3.603  19.260 -0.1165 -0.0496  0.2590
 1678POPC   GL120127   3.933   3.514  19.227  0.1583 -0.1355 -0.0443
 1678POPC   GL220128   3.939   3.610  18.884 -0.0902  0.2652 -0.1031
 1678POPC   C1A20129   3.774   3.171  19.048  0.1179  0.0795  0.0238
 1678POPC   D2A20130   3.338   3.103  19.012 -0.0313 -0.0177 -0.2410
 1678POPC   C3A20131   3.064   3.134  18.659  0.3378  0.1156  0.0257
 1678POPC   C4A20132   2.793   3.054  18.277 -0.0133  0.1889 -0.1853
 1678POPC   C1B20133   3.654   3.452  18.530  0.2103 -0.0108  0.2095
 1678POPC   C2B20134   3.280   3.311  18.241  0.0905 -0.3680  0.0466
 1678POPC   C3B20135   3.051   3.369  17.902 -0.0202 -0.1086 -0.0580
 1678POPC   C4B20136   2.741   3.065  17.682  0.0780  0.1656 -0.0829
 1679POPC   NC320137   6.126  14.343  20.551 -0.0818  0.2481 -0.1117
 1679POPC   PO420138   6.105  14.647  20.320  0.2124 -0.1654 -0.1312
 1679POPC   GL120139   6.359  14.491  20.125  0.2390  0.3307  0.2126
 1679POPC   GL220140   6.615  14.386  20.260 -0.0527 -0.2335 -0.4259
 1679POPC   C1A20141   6.651  14.648  19.801  0.0234  0.2416 -0.0814
 1679POPC   D2A20142   6.731  14.586  19.336  0.3275  0.2493  0.2274
 1679POPC   C3A20143   6.465  14.507  18.972 -0.0318 -0.2283 -0.0268
 1679POPC   C4A20144   6.172  14.346  18.689  0.1744  0.3696  0.3687
 1679POPC   C1B20145   6.526  14.043  20.006 -0.3909  0.2289 -0.2503
 1679POPC   C2B20146   6.392  14.016  19.538 -0.0081 -0.1531  0.2107
 1679POPC   C3B20147   6.378  13.931  19.068  0.1010  0.1256  0.1547
 1679POPC   C4B20148   6.625  14.081  18.698 -0.2371  0.0672  0.0076
 1680POPC   NC320149   4.924  13.219  21.037 -0.2094 -0.4011  0.2066
 1680POPC   PO420150   4.650  13.331  20.759 -0.2005 -0.0149 -0.3162
 1680POPC   GL120151   4.391  13.171  20.559  0.0015 -0.2751  0.0636
 1680POPC   GL220152   4.591  13.051  20.324 -0.0198 -0.1192  0.0119
 1680POPC   C1A20153   4.104  13.028  20.223  0.2045 -0.3317  0.0321
 1680POPC   D2A20154   3.836  12.876  19.860 -0.1264 -0.0213 -0.0991
 1680POPC   C3A20155   3.855  12.532  19.519 -0.0308 -0.1527 -0.0924
 1680POPC   C4A20156   4.172  12.377  19.193 -0.1480  0.0071  0.0670
 1680POPC   C1B20157   4.795  12.628  20.221 -0.0256  0.0433  0.0742
 1680POPC   C2B20158   4.868  12.269  19.910 -0.3288  0.0429 -0.1195
 1680POPC   C3B20159   4.564  11.998  19.650  0.0770 -0.3008 -0.1164
 1680POPC   C4B20160   4.305  11.914  19.302  0.2833  0.1562 -0.0307
 1681POPC   NC320161   8.782   7.155  15.481  0.1152 -0.1279  0.2490
 1681POPC   PO420162   8.530   7.141  15.794  0.2513 -0.1571 -0.0320
 1681POPC   GL120163   8.234   7.350  15.618 -0.4925  0.1774  0.0335
 1681POPC   GL220164   8.202   7.581  15.780  0.5311 -0.0433  0.4104
 1681POPC   C1A20165   8.301   7.318  15.150  0.0906 -0.0498 -0.1197
 1681POPC   D2A20166   8.034   7.456  14.822  0.0453 -0.1673  0.1792
 1681POPC   C3A20167   8.046   7.893  14.596  0.3227 -0.2243 -0.1869
 1681POPC   C4A20168   7.883   8.221  14.896  0.3418  0.1252  0.2729
 1681POPC   C1B20169   7.873   7.908  15.725 -0.0842  0.0280  0.0757
 1681POPC   C2B20170   7.459   7.872  15.801 -0.0512 -0.1469  0.0803
 1681POPC   C3B20171   7.044   7.638  15.864  0.1015  0.4911  0.1325
 1681POPC   C4B20172   6.568   7.533  15.817  0.0364 -0.0660  0.2804
 1682POPC   NC320173   9.888   1.941  18.312  0.1641  0.0988 -0.3242
 1682POPC   PO420174  10.094   2.181  18.074  0.2515 -0.3357 -0.0558
 1682POPC   GL120175  10.208   2.057  17.863  0.1044 -0.0961 -0.0078
 1682POPC   GL220176  10.374   1.929  17.639 -0.0002 -0.0664  0.2921
 1682POPC   C1A20177  10.152   1.603  17.855 -0.1429  0.1542  0.0486
 1682POPC   D2A20178  10.187   1.085  17.768 -0.3428  0.0480  0.1814
 1682POPC   C3A20179  10.094   0.866  17.351  0.0220  0.3295  0.0892
 1682POPC   C4A20180  10.170   0.552  16.997  0.2360 -0.0333 -0.0708
 1682POPC   C1B20181  10.578   1.765  17.265 -0.1433 -0.0166  0.0292
 1682POPC   C2B20182  10.896   1.818  16.935 -0.0511 -0.1113  0.3123
 1682POPC   C3B20183  11.203   1.628  16.628 -0.1102  0.1360 -0.0977
 1682POPC   C4B20184  11.660   1.527  16.757  0.0730 -0.1625  0.3079
 1683POPC   NC320185   6.648   4.074  18.359 -0.0125 -0.0071 -0.0396
 1683POPC   PO420186   6.547   4.029  17.992 -0.0222  0.0703  0.0097
 1683POPC   GL120187   6.337   3.972  17.593 -0.0366 -0.0396  0.1311
 1683POPC   GL220188   6.145   3.789  17.773 -0.2578  0.1424  0.0134
 1683POPC   C1A20189   5.912   3.973  17.352 -0.1072  0.2283  0.1059
 1683POPC   D2A20190   5.626   3.897  16.997  0.0249  0.0468 -0.0617
 1683POPC   C3A20191   5.394   3.508  17.112  0.0771  0.1639  0.2045
 1683POPC   C4A20192   5.285   3.020  17.035 -0.3924  0.2341  0.0678
 1683POPC   C1B20193   6.348   3.549  17.455 -0.2217  0.1609  0.1740
 1683POPC   C2B20194   6.360   3.291  17.090  0.2847 -0.2766  0.1861
 1683POPC   C3B20195   6.290   3.151  16.650 -0.0746  0.2958 -0.1092
 1683POPC   C4B20196   6.437   3.275  16.256  0.2664 -0.2102  0.2196
 1684POPC   NC320197  14.892   6.162  20.096  0.1105  0.1248 -0.1338
 1684POPC   PO420198  15.108   5.968  19.862  0.3141 -0.2570 -0.1329
 1684POPC   GL120199  15.148   6.151  19.387 -0.1556 -0.0400 -0.1250
 1684POPC   GL220200  14.981   5.966  19.258  0.0856 -0.1590 -0.1982
 1684POPC   C1A20201  15.363   6.458  19.087 -0.0104 -0.0947 -0.0619
 1684POPC   D2A20202  15.127   6.756  18.830  0.2090  0.3970  0.2880
 1684POPC   C3A20203  15.199   7.037  18.452  0.0048  0.1194  0.0767
 1684POPC   C4A20204  15.012   7.380  18.168 -0.0072 -0.0257 -0.2349
 1684POPC   C1B20205  15.036   6.139  18.871 -0.0360 -0.4094  0.1671
 1684POPC   C2B20206  14.890   6.423  18.573 -0.1065  0.0366 -0.2708
 1684POPC   C3B20207  15.043   6.490  18.143  0.2126  0.1626  0.0890
 1684POPC   C4B20208  15.016   6.433  17.720 -0.2059  0.0098  0.0168
 1685POPC   NC320209  11.072  17.010  19.580  0.4066  0.2942 -0.2360
 1685POPC   PO420210  11.327  16.738  19.662 -0.0982  0.0551  0.1087
 1685POPC   GL120211  11.363  16.646  19.325  0.3159 -0.2951 -0.0954
 1685POPC   GL220212  11.035  16.606  19.248 -0.0401  0.2675  0.0098
 1685POPC   C1A20213  11.376  16.644  18.865 -0.0795 -0.0188  0.2563
 1685POPC   D2A20214  11.531  16.681  18.419 -0.1246  0.4465 -0.0415
 1685POPC   C3A20215  11.376  16.870  18.048 -0.0134 -0.0480 -0.0160
 1685POPC   C4A20216  11.373  16.961  17.606 -0.1163  0.1862 -0.1820
 1685POPC   C1B20217  10.926  16.641  18.791  0.1370  0.2447 -0.0426
 1685POPC   C2B20218  11.047  16.525  18.335 -0.0770  0.2114  0.1997
 1685POPC   C3B20219  11.255  16.169  18.181  0.1733 -0.0605 -0.0819
 1685POPC   C4B20220  11.644  16.010  18.166 -0.4289 -0.0254  0.1388
 1686POPC   NC320221  15.724  11.541  20.502 -0.0722 -0.1463 -0.2813
 1686POPC   PO420222  15.609  11.887  20.721 -0.2471  0.0558 -0.1174
 1686POPC   GL120223  15.731  12.011  20.317  0.0799  0.0711 -0.3786
 1686POPC   GL220224  15.511  11.900  20.221 -0.1200  0.0021 -0.3163
 1686POPC   C1A20225  15.639  12.311  20.006 -0.0342 -0.0865 -0.0142
 1686POPC   D2A20226  15.523  12.534  19.658  0.2033 -0.0951  0.1181
 1686POPC   C3A20227  15.261  12.408  19.294 -0.0732 -0.3622  0.2394
 1686POPC   C4A20228  15.085  12.396  18.872  0.0858 -0.3048  0.2073
 1686POPC   C1B20229  15.354  11.937  19.766  0.0623  0.1862 -0.0752
 1686POPC   C2B20230  15.343  11.943  19.290 -0.2775 -0.3368 -0.0696
 1686POPC   C3B20231  15.294  11.931  18.801  0.2110  0.2222 -0.3004
 1686POPC   C4B20232  15.272  12.194  18.443  0.1001  0.0641 -0.1224
 1687POPC   NC320233  12.572  32.319  20.371 -0.0715 -0.2200 -0.0203
 1687POPC   PO420234  12.242  32.366  20.631  0.0911 -0.0522  0.2392
 1687POPC   GL120235  12.138  32.463  20.220  0.4438 -0.0086 -0.1356
 1687POPC   GL220236  12.330  32.471  19.913 -0.4216  0.0479  0.0566
 1687POPC   C1A20237  11.843  32.285  19.900  0.0077  0.3785  0.1449
 1687POPC   D2A20238  11.771  32.024  19.517  0.1074 -0.0575 -0.0442
 1687POPC   C3A20239  11.809  31.570  19.396  0.1172 -0.3148 -0.1102
 1687POPC   C4A20240  11.746  31.278  19.020  0.2720  0.2971  0.3604
 1687POPC   C1B20241  12.659  32.216  19.747 -0.1109  0.5498 -0.1466
 1687POPC   C2B20242  12.927  32.166  19.367 -0.0323 -0.1832  0.1000
 1687POPC   C3B20243  13.133  32.023  18.946 -0.2748 -0.3285 -0.3943
 1687POPC   C4B20244  13.260  32.379  18.666  0.4046  0.2305  0.0490
 1688POPC   NC320245  15.146   1.416  19.693  0.2346 -0.0248  0.2658
 1688POPC   PO420246  14.800   1.297  19.837  0.3920  0.0471 -0.2277
 1688POPC   GL120247  14.807   1.195  19.499 -0.1060 -0.2610 -0.0836
 1688POPC   GL220248  14.522   1.044  19.500 -0.0037  0.2269  0.0604
 1688POPC   C1A20249  14.621   1.197  19.030 -0.0093 -0.0992  0.0934
 1688POPC   D2A20250  14.316   1.058  18.748 -0.4073 -0.3485 -0.0002
 1688POPC   C3A20251  14.197   0.937  18.280 -0.1435  0.0820 -0.2059
 1688POPC   C4A20252  14.094   0.990  17.838  0.0859  0.5065 -0.1599
 1688POPC   C1B20253  14.423   0.556  19.354 -0.0426 -0.0967 -0.0426
 1688POPC   C2B20254  14.474   0.128  19.198  0.0250  0.1551  0.0478
 1688POPC   C3B20255  14.704  -0.266  19.075  0.1953 -0.2431 -0.2462
 1688POPC   C4B20256  14.684  -0.673  18.789 -0.3887  0.0484  0.2603
 1689POPC   NC320257  11.147   5.599  16.656 -0.0036 -0.0276  0.0513
 1689POPC   PO420258  10.853   5.865  16.619  0.1352  0.0661  0.1776
 1689POPC   GL120259  11.184   6.095  16.482  0.3326 -0.0732  0.1471
 1689POPC   GL220260  11.454   5.974  16.558  0.1343  0.4132  0.1590
 1689POPC   C1A20261  11.453   6.196  16.107 -0.1595  0.1497  0.6206
 1689POPC   D2A20262  11.496   6.369  15.707 -0.3028  0.0685  0.1603
 1689POPC   C3A20263  11.829   6.674  15.645  0.1139 -0.4692  0.5523
 1689POPC   C4A20264  12.148   7.026  15.533  0.0002  0.0428  0.1863
 1689POPC   C1B20265  11.766   6.252  16.483  0.0771 -0.3711 -0.1758
 1689POPC   C2B20266  12.185   6.125  16.417  0.2421  0.2668 -0.1275
 1689POPC   C3B20267  12.634   6.304  16.422  0.1544  0.0886  0.0032
 1689POPC   C4B20268  12.899   6.496  16.092 -0.0531 -0.1571 -0.1346
 1690POPC   NC320269  12.044   3.795  17.368 -0.3006 -0.1865 -0.1622
 1690POPC   PO420270  11.967   4.118  17.599  0.3016 -0.3157 -0.1309
 1690POPC   GL120271  12.355   4.205  17.385  0.0677 -0.0709 -0.1391
 1690POPC   GL220272  12.179   4.253  17.078  0.4256 -0.4034 -0.0986
 1690POPC   C1A20273  12.657   4.459  17.151 -0.0439 -0.0947  0.1048
 1690POPC   D2A20274  13.120   4.483  17.235  0.5950 -0.1972  0.1440
 1690POPC   C3A20275  13.578   4.576  17.130  0.0418  0.0188  0.0305
 1690POPC   C4A20276  13.751   4.999  17.233  0.1244  0.2724 -0.0693
 1690POPC   C1B20277  12.467   4.193  16.751 -0.1404 -0.2856 -0.3323
 1690POPC   C2B20278  12.768   4.407  16.472  0.2095 -0.2770  0.2843
 1690POPC   C3B20279  13.086   4.515  16.104  0.0883 -0.0551 -0.1401
 1690POPC   C4B20280  13.456   4.265  15.938  0.1044 -0.2481  0.3074
 1691POPC   NC320281   4.568   1.173  19.839  0.1051  0.1477 -0.0105
 1691POPC   PO420282   4.302   1.424  19.866  0.2104 -0.1599  0.1026
 1691POPC   GL120283   4.248   1.297  19.501  0.1491  0.0799 -0.0258
 1691POPC   GL220284   4.266   0.994  19.422 -0.1778  0.1407  0.0322
 1691POPC   C1A20285   4.258   1.401  19.032 -0.2055  0.0492  0.0765
 1691POPC   D2A20286   4.427   1.039  18.775 -0.2694 -0.3624 -0.0001
 1691POPC   C3A20287   4.499   0.744  18.458 -0.0951  0.1444 -0.0155
 1691POPC   C4A20288   4.382   0.572  18.021  0.1006 -0.0052 -0.1329
 1691POPC   C1B20289   3.983   0.819  19.092  0.1972 -0.2208 -0.2615
 1691POPC   C2B20290   3.681   0.580  18.862 -0.6129 -0.0587  0.1329
 1691POPC   C3B20291   3.414   0.528  18.545  0.3078 -0.0236 -0.2238
 1691POPC   C4B20292   3.120   0.238  18.298  0.0399  0.2384  0.0214
 1692POPC   NC320293   5.580   2.946  18.842  0.0651  0.2382 -0.0148
 1692POPC   PO420294   5.965   2.949  18.704 -0.1643 -0.0049 -0.3048
 1692POPC   GL120295   5.935   2.699  18.408 -0.0235 -0.1775  0.0878
 1692POPC   GL220296   5.607   2.741  18.387  0.0065  0.1000 -0.2201
 1692POPC   C1A20297   5.871   2.381  18.089  0.1320 -0.1634  0.4193
 1692POPC   D2A20298   5.766   2.337  17.646  0.1200  0.1830 -0.1839
 1692POPC   C3A20299   6.066   2.272  17.341 -0.1392  0.0075 -0.1464
 1692POPC   C4A20300   6.311   2.205  17.052  0.1516  0.1388 -0.1221
 1692POPC   C1B20301   5.414   2.596  17.976 -0.0022 -0.2837 -0.1614
 1692POPC   C2B20302   5.272   2.247  17.684 -0.0053 -0.2450 -0.1285
 1692POPC   C3B20303   5.367   1.936  17.348 -0.2280  0.0849  0.0819
 1692POPC   C4B20304   5.592   1.851  16.974 -0.0979  0.2091 -0.1135
 1693POPC   NC320305   3.551   8.422  19.866 -0.2941  0.2542  0.0223
 1693POPC   PO420306   3.428   8.732  20.104  0.1857  0.0914 -0.0350
 1693POPC   GL120307   3.168   9.019  19.837 -0.3047 -0.1086  0.0583
 1693POPC   GL220308   3.436   8.935  19.683 -0.2580 -0.0288  0.0414
 1693POPC   C1A20309   3.036   8.848  19.398 -0.2146 -0.1175  0.3311
 1693POPC   D2A20310   2.797   9.057  19.075  0.1070 -0.3885  0.2208
 1693POPC   C3A20311   2.531   9.029  18.666  0.2531  0.2067 -0.2102
 1693POPC   C4A20312   2.108   8.927  18.443 -0.1508 -0.1484 -0.1507
 1693POPC   C1B20313   3.336   9.348  19.547  0.2736  0.1708 -0.2039
 1693POPC   C2B20314   3.385   9.750  19.324 -0.0698 -0.2020  0.1711
 1693POPC   C3B20315   3.481   9.967  18.938  0.0529 -0.3614 -0.0948
 1693POPC   C4B20316   3.403  10.314  18.656  0.3893 -0.0117  0.3026
 1694POPC   NC320317   6.723   3.547  17.969 -0.1555  0.1396 -0.0359
 1694POPC   PO420318   7.094   3.432  17.900 -0.1633 -0.0964  0.0583
 1694POPC   GL120319   6.749   3.324  17.581 -0.0429  0.0265 -0.3404
 1694POPC   GL220320   6.980   3.158  17.442  0.0117 -0.1687 -0.0555
 1694POPC   C1A20321   6.383   3.168  17.784 -0.1495  0.2347 -0.2402
 1694POPC   D2A20322   5.961   3.356  17.761  0.2962  0.0976 -0.0712
 1694POPC   C3A20323   5.871   3.450  17.259 -0.2240  0.0681 -0.1107
 1694POPC   C4A20324   5.792   3.244  16.888  0.2458 -0.2770  0.0450
 1694POPC   C1B20325   6.808   2.941  17.030  0.0780 -0.1110  0.1584
 1694POPC   C2B20326   6.764   2.829  16.654 -0.1341  0.1312  0.1656
 1694POPC   C3B20327   6.740   2.730  16.226  0.1628  0.1171  0.1662
 1694POPC   C4B20328   6.834   2.382  16.030 -0.2214  0.0375 -0.0618
 1695POPC   NC320329   1.000  10.440  20.295  0.1757  0.1730  0.1127
 1695POPC   PO420330   1.154  10.806  20.365  0.2718  0.0484  0.0490
 1695POPC   GL120331   1.210  11.118  20.187  0.0074  0.3514  0.2544
 1695POPC   GL220332   0.995  11.308  20.130 -0.0352  0.3313  0.1249
 1695POPC   C1A20333   1.472  11.297  19.892  0.0449  0.0035  0.0148
 1695POPC   D2A20334   1.840  11.405  20.102 -0.3375 -0.1386  0.0101
 1695POPC   C3A20335   2.277  11.528  20.015 -0.0912  0.0649  0.2236
 1695POPC   C4A20336   2.581  11.832  19.815 -0.0086  0.0449 -0.2051
 1695POPC   C1B20337   0.902  11.440  19.701 -0.2342 -0.0534 -0.0313
 1695POPC   C2B20338   0.807  11.385  19.251  0.1204 -0.0663  0.0113
 1695POPC   C3B20339   1.018  11.255  18.860  0.1495  0.1436 -0.0488
 1695POPC   C4B20340   1.347  10.970  18.661 -0.0205 -0.1015 -0.1855
 1696POPC   NC320341  11.095   4.403  15.680  0.0182 -0.1229 -0.1632
 1696POPC   PO420342  11.271   4.716  15.759  0.2219  0.0178  0.1153
 1696POPC   GL120343  11.584   4.552  15.912 -0.2453  0.3463 -0.0421
 1696POPC   GL220344  11.809   4.703  16.121 -0.2883 -0.1377  0.1947
 1696POPC   C1A20345  11.910   4.490  15.590 -0.1758  0.1487 -0.1563
 1696POPC   D2A20346  12.218   4.176  15.611 -0.0327  0.2097  0.3270
 1696POPC   C3A20347  12.513   4.029  15.318  0.3148 -0.0673  0.1529
 1696POPC   C4A20348  12.849   3.958  15.009 -0.0858 -0.0099 -0.4315
 1696POPC   C1B20349  12.003   4.294  16.113 -0.0707  0.0494 -0.1362
 1696POPC   C2B20350  12.310   3.990  16.252 -0.1579  0.0747  0.2329
 1696POPC   C3B20351  12.710   3.896  16.439  0.0616 -0.1059 -0.2067
 1696POPC   C4B20352  13.105   3.630  16.537  0.0983 -0.1374 -0.2378
 1697POPC   NC320353   3.305  16.757  20.746  0.3036 -0.0175 -0.0569
 1697POPC   PO420354   3.686  16.648  20.631 -0.1529 -0.0201  0.2109
 1697POPC   GL120355   3.454  16.424  20.330 -0.0186  0.1247  0.2978
 1697POPC   GL220356   3.230  16.263  20.499  0.2729 -0.1906  0.2339
 1697POPC   C1A20357   3.209  16.678  20.006  0.4858 -0.1604 -0.2831
 1697POPC   D2A20358   3.334  17.054  19.778 -0.1623  0.0685  0.5611
 1697POPC   C3A20359   3.084  17.034  19.443  0.2419  0.0913  0.1312
 1697POPC   C4A20360   2.830  17.019  19.065 -0.1236  0.2656 -0.0380
 1697POPC   C1B20361   3.209  16.074  20.069 -0.1422 -0.2110 -0.4446
 1697POPC   C2B20362   3.113  16.071  19.627 -0.1708  0.3254  0.0139
 1697POPC   C3B20363   3.104  15.927  19.144  0.1620 -0.2178  0.0716
 1697POPC   C4B20364   3.160  15.915  18.683 -0.0132 -0.2805 -0.2218
 1698POPC   NC320365  10.823   8.913  19.228 -0.0472  0.0395  0.2026
 1698POPC   PO420366  10.604   8.836  18.920 -0.0609  0.0336  0.1166
 1698POPC   GL120367  10.783   9.127  18.731  0.1008  0.2164 -0.1453
 1698POPC   GL220368  10.756   9.334  18.924 -0.2259 -0.0710  0.0354
 1698POPC   C1A20369  10.708   9.313  18.301 -0.3486  0.1001  0.2094
 1698POPC   D2A20370  10.522   9.585  18.024 -0.0620  0.0642  0.1715
 1698POPC   C3A20371  10.637   9.605  17.556 -0.0702  0.1629  0.2485
 1698POPC   C4A20372  10.882   9.964  17.394  0.2405  0.2840  0.1558
 1698POPC   C1B20373  10.701   9.660  18.651 -0.0682 -0.0759 -0.0395
 1698POPC   C2B20374  10.727   9.975  18.359  0.1581 -0.1112 -0.1058
 1698POPC   C3B20375  11.010  10.112  17.998 -0.3192 -0.0523 -0.2440
 1698POPC   C4B20376  11.205  10.349  17.699 -0.1622  0.1992 -0.2009
 1699POPC   NC320377  32.499  12.849  21.107  0.1427 -0.0359 -0.4942
 1699POPC   PO420378  32.711  12.630  20.819  0.3895 -0.3796 -0.4324
 1699POPC   GL120379  32.816  12.335  20.555  0.1766  0.1355 -0.3530
 1699POPC   GL220380  32.628  12.502  20.353  0.1474 -0.0991  0.0901
 1699POPC   C1A20381  32.809  12.120  20.097 -0.1544  0.0814  0.2693
 1699POPC   D2A20382  32.975  12.153  19.688 -0.1425  0.0047 -0.2287
 1699POPC   C3A20383  32.794  12.105  19.323 -0.0662  0.3602 -0.0610
 1699POPC   C4A20384  32.511  12.242  19.024  0.0921 -0.0817 -0.3186
 1699POPC   C1B20385  32.330  12.322  20.017 -0.1463  0.1695  0.0856
 1699POPC   C2B20386  32.388  11.985  19.673 -0.1526  0.0680 -0.1141
 1699POPC   C3B20387  32.686  11.641  19.535  0.0398 -0.0140 -0.0585
 1699POPC   C4B20388  32.697  11.207  19.309  0.2863 -0.2385 -0.3478
 1700POPC   NC320389   5.857   8.977  19.755  0.0556 -0.0602  0.1889
 1700POPC   PO420390   5.942   8.717  19.451 -0.0463  0.2038 -0.2611
 1700POPC   GL120391   5.661   8.793  19.183  0.2001  0.1786  0.0669
 1700POPC   GL220392   5.775   9.040  19.059  0.0980 -0.3757  0.1954
 1700POPC   C1A20393   5.286   8.695  18.964 -0.0473 -0.1592  0.0063
 1700POPC   D2A20394   5.229   8.690  18.508  0.0959 -0.0212 -0.0408
 1700POPC   C3A20395   4.916   8.805  18.206 -0.0059  0.0415 -0.1695
 1700POPC   C4A20396   4.656   8.846  17.779 -0.0459  0.0167 -0.0381
 1700POPC   C1B20397   5.915   9.259  18.620  0.1318 -0.2007 -0.3109
 1700POPC   C2B20398   5.763   9.064  18.249  0.0115 -0.3395  0.1423
 1700POPC   C3B20399   5.401   8.962  18.029  0.0282 -0.1993  0.2608
 1700POPC   C4B20400   5.176   9.007  17.639  0.0436 -0.0773 -0.1638
 1701POPC   NC320401  13.547   3.796  19.533 -0.1112  0.0588 -0.1271
 1701POPC   PO420402  13.826   3.714  19.292  0.1773 -0.2077 -0.1944
 1701POPC   GL120403  13.785   3.782  18.963  0.0189  0.2668  0.2385
 1701POPC   GL220404  13.682   3.477  18.883 -0.0160 -0.2774  0.2038
 1701POPC   C1A20405  13.612   3.990  18.605  0.2034  0.0183  0.2548
 1701POPC   D2A20406  13.689   3.917  18.129 -0.3317  0.3537  0.0809
 1701POPC   C3A20407  13.896   4.110  17.753  0.1283  0.0074 -0.0319
 1701POPC   C4A20408  13.898   4.274  17.339 -0.1783 -0.2289  0.2216
 1701POPC   C1B20409  13.880   3.572  18.506 -0.2426  0.0293  0.0229
 1701POPC   C2B20410  14.126   3.448  18.156  0.1944 -0.2121 -0.0147
 1701POPC   C3B20411  14.490   3.291  17.974 -0.1915  0.0424 -0.0879
 1701POPC   C4B20412  14.877   3.187  17.732  0.0744  0.0623  0.0866
 1702POPC   NC320413   9.573   6.908  13.840 -0.3942 -0.0185  0.1468
 1702POPC   PO420414   9.607   6.742  13.474 -0.2391 -0.1596  0.1497
 1702POPC   GL120415   9.281   6.807  13.355 -0.2438  0.2308  0.2121
 1702POPC   GL220416   9.107   7.024  13.517  0.1819  0.1443  0.2805
 1702POPC   C1A20417   9.212   7.027  12.966  0.1696  0.1021 -0.3373
 1702POPC   D2A20418   8.867   7.010  12.628  0.0429  0.1232  0.2301
 1702POPC   C3A20419   8.553   7.276  12.360  0.3167 -0.4448 -0.0591
 1702POPC   C4A20420   8.306   7.536  12.107 -0.2991 -0.0703  0.2342
 1702POPC   C1B20421   9.149   7.381  13.275  0.1065  0.1173  0.1686
 1702POPC   C2B20422   9.033   7.710  13.014  0.1345 -0.2369 -0.1891
 1702POPC   C3B20423   8.858   8.103  12.808  0.0882 -0.1005 -0.1509
 1702POPC   C4B20424   8.465   8.299  12.652  0.0264  0.0383  0.0494
 1703POPC   NC320425   5.843  15.405  20.000 -0.1963 -0.0722 -0.1959
 1703POPC   PO420426   6.082  15.206  20.247 -0.0851  0.1328  0.0798
 1703POPC   GL120427   6.087  14.903  19.964  0.5959 -0.3271 -0.1632
 1703POPC   GL220428   6.139  15.018  19.752  0.1412 -0.0111  0.2324
 1703POPC   C1A20429   6.151  14.537  19.683  0.5028 -0.1962  0.0026
 1703POPC   D2A20430   6.004  14.427  19.209  0.1024 -0.1490  0.1299
 1703POPC   C3A20431   5.859  14.009  19.095  0.0914 -0.0007 -0.0902
 1703POPC   C4A20432   5.679  13.647  18.838  0.0996 -0.1505  0.1328
 1703POPC   C1B20433   6.226  14.840  19.255 -0.2170 -0.1233 -0.1030
 1703POPC   C2B20434   5.998  14.786  18.876  0.0556 -0.2722  0.0091
 1703POPC   C3B20435   5.710  14.465  18.850  0.0834  0.0861 -0.0518
 1703POPC   C4B20436   5.511  14.094  18.805 -0.0457 -0.1086 -0.0559
 1704POPC   NC320437   5.291   6.508  18.651  0.0410  0.0497  0.0901
 1704POPC   PO420438   5.216   6.112  18.664  0.1303  0.0173 -0.3436
 1704POPC   GL120439   5.043   6.162  18.397 -0.4403  0.0437 -0.1062
 1704POPC   GL220440   5.102   5.846  18.236 -0.1219  0.4128  0.1829
 1704POPC   C1A20441   4.832   6.560  18.351 -0.2234  0.0182 -0.0686
 1704POPC   D2A20442   4.406   6.714  18.383 -0.0901 -0.0251  0.2480
 1704POPC   C3A20443   4.078   6.731  18.039  0.0750  0.1727 -0.2570
 1704POPC   C4A20444   3.864   6.893  17.691  0.0922 -0.0322  0.2451
 1704POPC   C1B20445   4.965   5.797  17.822 -0.3978  0.1597  0.1270
 1704POPC   C2B20446   4.836   5.930  17.345  0.1641 -0.0045 -0.0852
 1704POPC   C3B20447   4.970   5.770  16.936 -0.3421  0.1360  0.1167
 1704POPC   C4B20448   5.029   5.362  16.832  0.2347  0.1626 -0.2666
 1705POPC   NC320449   7.677   6.009  17.236  0.2342 -0.1189  0.1872
 1705POPC   PO420450   7.366   6.280  17.252  0.0766 -0.0347  0.1635
 1705POPC   GL120451   7.043   6.570  16.999  0.0283 -0.1590 -0.0960
 1705POPC   GL220452   7.084   6.596  16.700 -0.3197  0.0191 -0.1628
 1705POPC   C1A20453   6.613   6.494  16.807 -0.1629 -0.1560  0.0672
 1705POPC   D2A20454   6.190   6.553  16.865 -0.0652  0.0631 -0.1287
 1705POPC   C3A20455   5.926   6.865  16.633 -0.0050 -0.0347  0.2062
 1705POPC   C4A20456   6.014   6.911  16.198  0.2072 -0.0981 -0.0453
 1705POPC   C1B20457   6.898   6.994  16.469 -0.0152 -0.0103 -0.2515
 1705POPC   C2B20458   6.735   7.457  16.294  0.2921  0.2615  0.2410
 1705POPC   C3B20459   6.416   7.783  16.420 -0.3253 -0.0238  0.1734
 1705POPC   C4B20460   6.285   8.139  16.685  0.2669  0.1295 -0.0321
 1706POPC   NC320461  11.290   4.538  17.273  0.0358 -0.2683  0.3109
 1706POPC   PO420462  11.474   4.882  17.354 -0.2015  0.3892 -0.3394
 1706POPC   GL120463  11.882   5.004  17.221 -0.1343  0.0145 -0.1647
 1706POPC   GL220464  11.856   5.235  17.047  0.3229  0.0243  0.1289
 1706POPC   C1A20465  12.281   5.102  17.383 -0.4435 -0.2187  0.3658
 1706POPC   D2A20466  12.653   5.321  17.607 -0.3014  0.1500  0.0504
 1706POPC   C3A20467  13.169   5.395  17.551  0.0563  0.0531  0.1132
 1706POPC   C4A20468  13.306   5.691  17.212 -0.1310 -0.2765 -0.0204
 1706POPC   C1B20469  12.231   5.280  16.814  0.0706  0.0457  0.1698
 1706POPC   C2B20470  12.480   5.102  16.523 -0.1917 -0.0381 -0.1912
 1706POPC   C3B20471  12.787   4.896  16.216 -0.0113  0.0688 -0.0789
 1706POPC   C4B20472  12.870   4.946  15.726  0.0347  0.0448 -0.3868
 1707POPC   NC320473  32.505  13.605  20.105 -0.1443 -0.0350 -0.3054
 1707POPC   PO420474  32.845  13.381  20.143 -0.1011 -0.2116  0.5364
 1707POPC   GL120475  32.821  13.256  19.713  0.1540  0.0437  0.1714
 1707POPC   GL220476  32.707  13.535  19.619 -0.0823 -0.0328 -0.2063
 1707POPC   C1A20477  33.088  13.304  19.362 -0.0781 -0.2746  0.2497
 1707POPC   D2A20478  33.172  13.439  18.888  0.1133  0.0186  0.1119
 1707POPC   C3A20479  32.978  13.848  18.805  0.1178  0.1062 -0.0442
 1707POPC   C4A20480  32.772  14.155  19.012 -0.0385  0.3543 -0.1308
 1707POPC   C1B20481  32.588  13.228  19.295 -0.1611  0.1418 -0.4467
 1707POPC   C2B20482  32.237  13.327  19.052  0.0340  0.0680  0.3214
 1707POPC   C3B20483  31.940  13.361  18.734 -0.2706  0.0351  0.2077
 1707POPC   C4B20484  31.576  13.178  18.530 -0.1933  0.0685  0.1273
 1708POPC   NC320485   9.973   6.613  13.893 -0.0357 -0.1272  0.1131
 1708POPC   PO420486  10.075   6.578  13.509  0.2538  0.2775 -0.0234
 1708POPC   GL120487   9.979   6.976  13.433  0.0154 -0.1113  0.1547
 1708POPC   GL220488   9.978   6.949  13.107 -0.2046 -0.2499 -0.1696
 1708POPC   C1A20489  10.046   7.447  13.325  0.1153 -0.1720  0.0540
 1708POPC   D2A20490  10.125   7.914  13.354  0.0729  0.1141  0.5390
 1708POPC   C3A20491   9.795   8.091  13.180 -0.0652  0.0028  0.2678
 1708POPC   C4A20492   9.433   8.347  13.104  0.1799 -0.4423 -0.0339
 1708POPC   C1B20493   9.638   7.276  13.101  0.2224 -0.0165 -0.0591
 1708POPC   C2B20494   9.825   7.667  12.908  0.0676 -0.4667 -0.1205
 1708POPC   C3B20495  10.014   7.939  12.668  0.2747  0.0050 -0.1036
 1708POPC   C4B20496  10.358   8.213  12.485 -0.1557 -0.1393  0.2308
 1709POPC   NC320497   0.548   6.681  19.680  0.0236  0.2065  0.2442
 1709POPC   PO420498   0.859   6.497  19.883 -0.0172 -0.0306 -0.0143
 1709POPC   GL120499   1.092   6.526  19.569 -0.2595  0.0472  0.1021
 1709POPC   GL220500   1.052   6.806  19.503 -0.1275  0.1711  0.1159
 1709POPC   C1A20501   1.102   6.306  19.223 -0.1921 -0.1814 -0.2460
 1709POPC   D2A20502   1.139   6.010  18.910 -0.0069  0.0463  0.3359
 1709POPC   C3A20503   1.478   5.699  18.824 -0.0857  0.0515 -0.5467
 1709POPC   C4A20504   1.861   5.546  18.681  0.0942  0.0786  0.2192
 1709POPC   C1B20505   0.924   6.777  19.065  0.1096  0.0348 -0.1666
 1709POPC   C2B20506   1.003   7.047  18.703 -0.0398  0.2439  0.1743
 1709POPC   C3B20507   0.981   7.487  18.527 -0.2072  0.1250 -0.3079
 1709POPC   C4B20508   0.764   7.771  18.294 -0.1086  0.0045 -0.0232
 1710POPC   NC320509   2.927   9.523  19.920 -0.0287  0.4530  0.1981
 1710POPC   PO420510   2.693   9.328  20.117 -0.0146 -0.0534 -0.0865
 1710POPC   GL120511   2.475   9.554  19.863  0.0517 -0.3042  0.0683
 1710POPC   GL220512   2.446   9.289  19.711 -0.1341 -0.0016 -0.1807
 1710POPC   C1A20513   2.441   9.592  19.342  0.1268 -0.0202 -0.0528
 1710POPC   D2A20514   2.625   9.515  18.871 -0.1727  0.2665 -0.3673
 1710POPC   C3A20515   2.686   9.860  18.555  0.0752 -0.0257 -0.3139
 1710POPC   C4A20516   2.927  10.009  18.218  0.2275  0.1691 -0.1242
 1710POPC   C1B20517   2.867   9.306  19.451 -0.1466 -0.3139  0.0317
 1710POPC   C2B20518   2.922   9.656  19.218 -0.1688 -0.1133  0.1609
 1710POPC   C3B20519   2.949  10.041  18.930  0.0235  0.0268  0.0758
 1710POPC   C4B20520   2.907  10.339  18.585  0.0470  0.0459 -0.0577
 1711POPC   NC320521   8.063   5.432  14.284 -0.0712 -0.1037 -0.1733
 1711POPC   PO420522   8.446   5.607  14.256 -0.0174 -0.2225 -0.0885
 1711POPC   GL120523   8.211   5.903  14.160  0.2004  0.1464  0.1815
 1711POPC   GL220524   8.159   5.804  13.904  0.1133  0.0267  0.1727
 1711POPC   C1A20525   7.805   5.937  14.353  0.0256  0.1358  0.2802
 1711POPC   D2A20526   7.305   5.916  14.457 -0.2350 -0.0401  0.0301
 1711POPC   C3A20527   7.159   6.333  14.572 -0.1957 -0.2737 -0.1227
 1711POPC   C4A20528   7.064   6.681  14.895  0.1152 -0.1740 -0.0162
 1711POPC   C1B20529   7.962   5.502  13.637  0.0042  0.3023 -0.2235
 1711POPC   C2B20530   7.603   5.444  13.311 -0.0371  0.0038 -0.0945
 1711POPC   C3B20531   7.552   5.069  13.103 -0.0063 -0.1156 -0.1801
 1711POPC   C4B20532   7.536   4.616  13.049  0.2793  0.2890 -0.0464
 1712POPC   NC320533   6.539  14.946  20.184  0.2625  0.0643  0.1762
 1712POPC   PO420534   6.850  15.067  20.337 -0.2336  0.2846 -0.1381
 1712POPC   GL120535   6.952  15.000  19.906  0.0244  0.5355 -0.3701
 1712POPC   GL220536   6.801  15.142  19.751 -0.0873 -0.1442 -0.1376
 1712POPC   C1A20537   7.103  14.874  19.456  0.4992  0.3556 -0.0909
 1712POPC   D2A20538   7.223  14.756  19.009  0.0589  0.0096  0.0494
 1712POPC   C3A20539   7.381  14.838  18.610  0.1060  0.0736  0.0406
 1712POPC   C4A20540   7.457  14.819  18.164  0.0697  0.0418  0.2597
 1712POPC   C1B20541   6.575  15.166  19.337 -0.0880  0.1889  0.0188
 1712POPC   C2B20542   6.716  14.902  18.965  0.1199  0.0422  0.0266
 1712POPC   C3B20543   6.871  14.585  18.705  0.0685  0.0872  0.2092
 1712POPC   C4B20544   6.893  14.375  18.277 -0.3367  0.0405 -0.0123
 1713POPC   NC320545   7.618  11.238  20.208  0.0886  0.0497 -0.2440
 1713POPC   PO420546   7.285  11.384  20.097  0.4531 -0.0454  0.1172
 1713POPC   GL120547   7.205  11.663  19.735 -0.0240  0.2227  0.0757
 1713POPC   GL220548   7.358  11.514  19.522  0.0703  0.1675 -0.0132
 1713POPC   C1A20549   7.255  12.081  19.484  0.2213  0.0084  0.1210
 1713POPC   D2A20550   7.215  12.328  19.088 -0.0563 -0.2960  0.0281
 1713POPC   C3A20551   7.517  12.144  18.783 -0.2209  0.3813  0.2629
 1713POPC   C4A20552   7.745  12.044  18.357  0.1384  0.0575  0.2170
 1713POPC   C1B20553   7.447  11.744  19.157 -0.1593  0.0643  0.0629
 1713POPC   C2B20554   7.816  11.829  18.949 -0.2687  0.0247  0.0863
 1713POPC   C3B20555   8.141  11.972  18.621  0.5637  0.1100  0.0994
 1713POPC   C4B20556   8.317  12.179  18.306 -0.0727  0.2339  0.0867
 1714POPC   NC320557  11.498  12.199  20.894  0.0750 -0.0611 -0.2542
 1714POPC   PO420558  11.204  12.072  20.721 -0.0363 -0.2607  0.2681
 1714POPC   GL120559  11.424  11.844  20.541  0.1712  0.2325 -0.0123
 1714POPC   GL220560  11.261  11.762  20.290  0.0000  0.2542 -0.1081
 1714POPC   C1A20561  11.751  12.015  20.255  0.0978  0.0211 -0.0157
 1714POPC   D2A20562  12.045  12.090  19.935 -0.1722 -0.1501  0.2235
 1714POPC   C3A20563  11.977  12.115  19.510 -0.1364  0.1289  0.1979
 1714POPC   C4A20564  11.756  12.011  19.129 -0.1958  0.1892  0.2565
 1714POPC   C1B20565  11.443  12.030  19.902 -0.0031  0.1336  0.0546
 1714POPC   C2B20566  11.348  12.241  19.451  0.1988 -0.2853  0.0030
 1714POPC   C3B20567  11.362  12.302  18.991  0.0189 -0.0937  0.2829
 1714POPC   C4B20568  11.281  12.227  18.562  0.1104  0.0626 -0.0798
 1715POPC   NC320569  32.431   8.366  20.131 -0.2441 -0.0467 -0.2813
 1715POPC   PO420570  32.490   7.959  20.129 -0.1879 -0.0178  0.2001
 1715POPC   GL120571  32.624   8.183  19.729  0.0888  0.3756  0.3109
 1715POPC   GL220572  32.782   8.471  19.713  0.0392  0.1039  0.1210
 1715POPC   C1A20573  32.607   8.188  19.301 -0.1219 -0.0871  0.3039
 1715POPC   D2A20574  32.686   8.325  18.881 -0.3316 -0.2882 -0.0159
 1715POPC   C3A20575  32.508   8.426  18.460  0.1026  0.1449  0.1392
 1715POPC   C4A20576  32.142   8.463  18.138 -0.0652 -0.0035 -0.0788
 1715POPC   C1B20577  32.534   8.710  19.463 -0.1428  0.0999  0.0186
 1715POPC   C2B20578  32.229   8.577  19.157  0.3515 -0.1283  0.0613
 1715POPC   C3B20579  32.170   8.650  18.715  0.2238  0.1829  0.0718
 1715POPC   C4B20580  31.833   8.756  18.368 -0.0613  0.0870 -0.1321
 1716POPC   NC320581   3.278   4.686  19.546  0.2477  0.1511 -0.1011
 1716POPC   PO420582   3.325   4.334  19.711 -0.1393 -0.3291 -0.0412
 1716POPC   GL120583   3.330   4.318  19.246  0.1449  0.1829  0.0693
 1716POPC   GL220584   3.030   4.431  19.240  0.1053  0.1041  0.2032
 1716POPC   C1A20585   3.220   4.634  18.850  0.0623  0.0178 -0.1504
 1716POPC   D2A20586   3.002   4.752  18.454  0.1561 -0.1425 -0.1593
 1716POPC   C3A20587   2.741   5.071  18.263 -0.0510 -0.2555  0.2199
 1716POPC   C4A20588   2.614   5.433  18.026 -0.0110 -0.2542  0.0638
 1716POPC   C1B20589   2.782   4.381  18.825 -0.2575 -0.0220  0.2881
 1716POPC   C2B20590   2.661   4.091  18.432  0.0785 -0.0853  0.1809
 1716POPC   C3B20591   2.382   4.100  18.073 -0.0762 -0.0235  0.0971
 1716POPC   C4B20592   2.077   4.304  17.822 -0.2072 -0.0204 -0.1588
 1717POPC   NC320593   6.466  15.860  19.759 -0.1260  0.0292  0.0568
 1717POPC   PO420594   6.078  15.999  19.865 -0.2152 -0.1033  0.0312
 1717POPC   GL120595   5.953  15.671  19.642  0.0039 -0.0553  0.2305
 1717POPC   GL220596   6.098  15.553  19.459  0.1737  0.3028 -0.3191
 1717POPC   C1A20597   5.724  15.852  19.300  0.0395  0.1136 -0.0266
 1717POPC   D2A20598   5.463  16.104  18.997  0.0769  0.1815  0.0323
 1717POPC   C3A20599   5.221  15.981  18.569 -0.0477  0.0688 -0.0399
 1717POPC   C4A20600   5.301  15.934  18.082 -0.0658 -0.0614 -0.0108
 1717POPC   C1B20601   6.345  15.603  19.114  0.2424 -0.0986  0.2159
 1717POPC   C2B20602   6.469  15.338  18.778 -0.4081  0.3232 -0.2178
 1717POPC   C3B20603   6.393  14.929  18.598 -0.0039 -0.2708 -0.0597
 1717POPC   C4B20604   6.429  14.575  18.322  0.0024  0.0175 -0.0570
 1718POPC   NC320605   1.941  13.423  21.388 -0.2745 -0.1922 -0.1324
 1718POPC   PO420606   1.879  13.100  21.162  0.3177 -0.2068  0.2232
 1718POPC   GL120607   1.770  13.225  20.805  0.4838 -0.4795  0.5078
 1718POPC   GL220608   1.788  12.983  20.600  0.1015  0.2181  0.3421
 1718POPC   C1A20609   1.905  13.432  20.389 -0.2153  0.0983 -0.0606
 1718POPC   D2A20610   1.841  13.390  19.945  0.1133 -0.0199  0.0465
 1718POPC   C3A20611   1.788  13.380  19.484 -0.2103 -0.2728  0.0190
 1718POPC   C4A20612   1.924  13.550  19.058  0.2110  0.1069  0.0867
 1718POPC   C1B20613   2.067  12.894  20.258 -0.0373  0.1332 -0.0592
 1718POPC   C2B20614   2.419  12.686  20.013 -0.1290  0.2982  0.0801
 1718POPC   C3B20615   2.588  12.389  19.620 -0.0284  0.1981  0.2197
 1718POPC   C4B20616   2.743  12.008  19.381 -0.1682 -0.0086  0.1591
 1719POPC   NC320617   1.533   8.412  20.529 -0.1042  0.1767 -0.0713
 1719POPC   PO420618   1.597   8.706  20.260  0.1189  0.1756  0.3346
 1719POPC   GL120619   1.813   8.679  19.892 -0.0445 -0.1396  0.1604
 1719POPC   GL220620   1.882   8.947  19.771 -0.3284  0.2383 -0.1302
 1719POPC   C1A20621   1.723   8.660  19.399  0.3033 -0.4309 -0.0425
 1719POPC   D2A20622   1.988   8.684  19.006 -0.2631  0.2352 -0.0102
 1719POPC   C3A20623   1.958   8.493  18.600  0.1868 -0.1549  0.3038
 1719POPC   C4A20624   1.834   8.073  18.366 -0.0171 -0.1035 -0.1285
 1719POPC   C1B20625   1.912   9.167  19.393 -0.0585  0.1024 -0.0643
 1719POPC   C2B20626   1.659   9.067  19.044 -0.0697 -0.1386  0.3560
 1719POPC   C3B20627   1.610   8.860  18.661  0.1024 -0.2979 -0.1730
 1719POPC   C4B20628   1.606   8.725  18.170  0.2946 -0.4539  0.0155
 1720POPC   NC320629   6.260   5.376  17.101 -0.1204 -0.0952  0.1297
 1720POPC   PO420630   6.612   5.181  17.152 -0.0774  0.2534 -0.1874
 1720POPC   GL120631   6.448   5.043  16.835  0.3614  0.0885  0.0192
 1720POPC   GL220632   6.331   4.730  16.853  0.2442  0.0529  0.0010
 1720POPC   C1A20633   6.301   5.045  16.399  0.2303  0.1222  0.0068
 1720POPC   D2A20634   6.259   5.346  16.067 -0.1329 -0.3572 -0.2682
 1720POPC   C3A20635   5.949   5.296  15.718  0.0235  0.3067  0.4028
 1720POPC   C4A20636   5.620   4.955  15.658  0.3056  0.0505 -0.4172
 1720POPC   C1B20637   6.338   4.471  16.411  0.0387  0.2047 -0.0022
 1720POPC   C2B20638   6.135   4.084  16.205 -0.1704  0.0493 -0.0243
 1720POPC   C3B20639   6.029   3.695  16.106  0.0702 -0.1946  0.0309
 1720POPC   C4B20640   5.960   3.232  16.192  0.0995 -0.0136 -0.0602
 1721POPC   NC320641   3.984   2.703  19.244  0.0575  0.4200 -0.1593
 1721POPC   PO420642   4.336   2.737  19.431  0.1011  0.0551 -0.1459
 1721POPC   GL120643   4.352   2.594  18.976  0.1483 -0.3504  0.0139
 1721POPC   GL220644   4.635   2.532  18.911  0.0817 -0.2561 -0.1352
 1721POPC   C1A20645   4.060   2.773  18.655  0.0458 -0.1494 -0.4210
 1721POPC   D2A20646   3.610   2.937  18.619  0.2138  0.0609  0.0907
 1721POPC   C3A20647   3.289   2.804  18.282  0.0804 -0.0351  0.1398
 1721POPC   C4A20648   3.129   2.851  17.847  0.0834 -0.1965  0.1634
 1721POPC   C1B20649   4.500   2.416  18.465 -0.0767  0.0821 -0.0915
 1721POPC   C2B20650   4.304   2.397  18.057  0.1339 -0.0977  0.1571
 1721POPC   C3B20651   4.132   2.203  17.668  0.0410 -0.1399 -0.0015
 1721POPC   C4B20652   4.341   2.098  17.301 -0.1655 -0.2132 -0.0637
 1722POPC   NC320653   1.711   7.284  19.861 -0.0544 -0.1748  0.1380
 1722POPC   PO420654   1.353   7.134  19.905 -0.3716 -0.0753 -0.0858
 1722POPC   GL120655   1.339   7.451  19.651 -0.4699 -0.2766  0.1025
 1722POPC   GL220656   1.369   7.710  19.741  0.1145  0.4346  0.0759
 1722POPC   C1A20657   1.316   7.229  19.274  0.3400 -0.0145 -0.1720
 1722POPC   D2A20658   1.371   7.390  18.819  0.2062 -0.0684  0.0204
 1722POPC   C3A20659   1.528   7.103  18.530 -0.0863  0.2466 -0.0940
 1722POPC   C4A20660   1.241   6.906  18.228 -0.2377 -0.0369  0.0473
 1722POPC   C1B20661   1.247   7.785  19.323 -0.1993 -0.1825  0.0298
 1722POPC   C2B20662   1.124   7.851  18.869 -0.0074  0.1448 -0.2330
 1722POPC   C3B20663   0.904   8.165  18.588 -0.2319 -0.2251  0.1296
 1722POPC   C4B20664   0.579   8.510  18.578 -0.0322 -0.1772 -0.0990
 1723POPC   NC320665   8.279   2.426  18.119 -0.2360 -0.0146  0.2154
 1723POPC   PO420666   8.180   2.680  17.869  0.0562 -0.1712 -0.1608
 1723POPC   GL120667   8.040   2.416  17.620  0.3136  0.0798 -0.0987
 1723POPC   GL220668   8.206   2.138  17.590  0.1069  0.1819  0.2958
 1723POPC   C1A20669   8.121   2.414  17.159 -0.2329 -0.1566 -0.0703
 1723POPC   D2A20670   8.048   2.466  16.694  0.0297  0.2927 -0.0588
 1723POPC   C3A20671   7.572   2.347  16.676  0.0439  0.2984  0.2619
 1723POPC   C4A20672   7.202   2.141  16.675 -0.2232  0.1761 -0.0960
 1723POPC   C1B20673   8.137   1.704  17.419  0.0694  0.4222 -0.0593
 1723POPC   C2B20674   7.775   1.549  17.209  0.0130 -0.0393  0.1250
 1723POPC   C3B20675   7.378   1.472  17.387 -0.0620  0.1449  0.1914
 1723POPC   C4B20676   6.999   1.432  17.127  0.3614 -0.0372 -0.2926
 1724POPC   NC320677  14.939   2.894  19.498  0.4547 -0.1034  0.0512
 1724POPC   PO420678  15.041   3.269  19.531 -0.3496 -0.2780 -0.1230
 1724POPC   GL120679  15.357   3.277  19.264  0.1221 -0.1989 -0.0084
 1724POPC   GL220680  15.201   3.463  19.094 -0.0063  0.0093  0.2779
 1724POPC   C1A20681  15.642   3.241  18.850 -0.1113 -0.0337  0.0053
 1724POPC   D2A20682  15.910   3.459  18.537 -0.0416 -0.0894  0.1546
 1724POPC   C3A20683  16.040   3.152  18.233  0.0231 -0.0847  0.2771
 1724POPC   C4A20684  16.395   3.019  18.086  0.1771 -0.2553 -0.1533
 1724POPC   C1B20685  15.046   3.300  18.699 -0.0049  0.0557  0.1059
 1724POPC   C2B20686  15.083   3.177  18.269  0.0311  0.1552 -0.1355
 1724POPC   C3B20687  15.270   2.881  17.918 -0.0215 -0.2789 -0.0481
 1724POPC   C4B20688  15.548   2.829  17.524  0.1738 -0.3492 -0.1898
 1725POPC   NC320689   7.340   5.212  16.314  0.0851  0.0080  0.5234
 1725POPC   PO420690   7.369   4.975  16.599  0.1142  0.0995  0.1570
 1725POPC   GL120691   7.021   5.180  16.646 -0.1391  0.0544 -0.1343
 1725POPC   GL220692   6.856   5.012  16.680 -0.2360 -0.1295 -0.0088
 1725POPC   C1A20693   6.764   5.265  16.208 -0.3801  0.2153  0.1293
 1725POPC   D2A20694   6.587   5.205  15.762 -0.0493  0.0292 -0.1363
 1725POPC   C3A20695   6.331   4.940  15.459 -0.1054 -0.2266  0.0049
 1725POPC   C4A20696   6.126   4.518  15.370 -0.2607 -0.2310 -0.0263
 1725POPC   C1B20697   6.827   4.584  16.466 -0.2149 -0.1502  0.0046
 1725POPC   C2B20698   6.903   4.225  16.303 -0.3937  0.3775  0.1021
 1725POPC   C3B20699   6.729   3.808  16.108  0.2282  0.1094 -0.1512
 1725POPC   C4B20700   6.391   3.698  15.759  0.0924 -0.0740  0.0621
 1726POPC   NC320701  15.982   7.539  20.561 -0.2483  0.0271 -0.0578
 1726POPC   PO420702  16.274   7.710  20.348 -0.1734 -0.0034  0.1006
 1726POPC   GL120703  16.242   8.009  20.067 -0.0227  0.2183 -0.0585
 1726POPC   GL220704  16.550   7.910  19.955 -0.0926 -0.3240  0.1357
 1726POPC   C1A20705  16.279   8.245  19.645  0.1500  0.0474  0.1327
 1726POPC   D2A20706  16.581   8.495  19.358 -0.0156 -0.0670 -0.2756
 1726POPC   C3A20707  16.615   8.681  18.957 -0.0600  0.2756 -0.3240
 1726POPC   C4A20708  16.636   8.780  18.511  0.1323  0.3564  0.1389
 1726POPC   C1B20709  16.342   7.671  19.661  0.1687 -0.1443  0.1677
 1726POPC   C2B20710  16.162   7.804  19.307  0.0473  0.3545 -0.1576
 1726POPC   C3B20711  16.272   7.950  18.842  0.2166 -0.0857 -0.0210
 1726POPC   C4B20712  16.275   8.392  18.632 -0.0861  0.1575  0.0028
 1727POPC   NC320713   8.740   7.110  16.942 -0.2992  0.1177 -0.2462
 1727POPC   PO420714   8.555   7.367  16.766  0.2817 -0.2197 -0.0508
 1727POPC   GL120715   8.296   7.611  16.580  0.2573 -0.2269 -0.0914
 1727POPC   GL220716   8.012   7.624  16.597 -0.0291 -0.0313  0.4666
 1727POPC   C1A20717   8.231   7.861  16.148  0.1810 -0.0770 -0.0505
 1727POPC   D2A20718   8.342   8.073  15.747 -0.1371  0.0738  0.1123
 1727POPC   C3A20719   8.077   8.230  15.343  0.0714 -0.1023 -0.0576
 1727POPC   C4A20720   7.787   8.568  15.276  0.0595  0.0415 -0.0006
 1727POPC   C1B20721   7.988   8.040  16.650  0.0189 -0.3002  0.3536
 1727POPC   C2B20722   7.939   8.492  16.573 -0.0975  0.2391 -0.0040
 1727POPC   C3B20723   8.133   8.851  16.384 -0.0175  0.1796  0.0717
 1727POPC   C4B20724   8.515   8.866  16.140  0.0133 -0.0156 -0.0824
 1728POPC   NC320725   7.296   0.495  19.879 -0.0455  0.2570 -0.0011
 1728POPC   PO420726   7.452   0.101  19.984 -0.0368 -0.1861  0.0503
 1728POPC   GL120727   7.286   0.047  19.579  0.3520  0.3716  0.2394
 1728POPC   GL220728   7.380  -0.232  19.545 -0.0902 -0.0199  0.0179
 1728POPC   C1A20729   7.269   0.167  19.154 -0.0283  0.0471  0.0376
 1728POPC   D2A20730   7.428   0.080  18.743 -0.0012 -0.2265 -0.2328
 1728POPC   C3A20731   7.062   0.001  18.411  0.2044 -0.1642  0.1160
 1728POPC   C4A20732   6.810  -0.382  18.261  0.1694 -0.1736 -0.1363
 1728POPC   C1B20733   7.604  -0.639  19.385  0.1964 -0.0089  0.0750
 1728POPC   C2B20734   7.724  -1.023  19.129  0.2490 -0.1402 -0.0291
 1728POPC   C3B20735   7.773  -1.358  18.857 -0.1864  0.2492  0.2667
 1728POPC   C4B20736   8.124  -1.439  18.516 -0.1277 -0.2873 -0.3082
 1729POPC   NC320737   7.595   6.563  16.509  0.0749 -0.0150  0.0884
 1729POPC   PO420738   7.785   6.829  16.240 -0.3320 -0.0641 -0.0607
 1729POPC   GL120739   7.472   6.968  16.089  0.0333 -0.0145 -0.1097
 1729POPC   GL220740   7.244   6.761  16.130 -0.1597  0.1684 -0.1025
 1729POPC   C1A20741   7.191   7.335  16.211 -0.0907  0.1937  0.0202
 1729POPC   D2A20742   7.146   7.769  16.281 -0.4386  0.0613  0.1777
 1729POPC   C3A20743   6.845   8.001  16.519  0.0235 -0.0647  0.1100
 1729POPC   C4A20744   6.709   8.422  16.508  0.0668 -0.0454  0.1086
 1729POPC   C1B20745   6.997   6.645  15.752  0.1723 -0.2433  0.1371
 1729POPC   C2B20746   6.576   6.647  15.644  0.0809 -0.0446  0.2464
 1729POPC   C3B20747   6.245   6.574  15.929  0.0455  0.0047 -0.0923
 1729POPC   C4B20748   5.745   6.528  15.918 -0.1124 -0.2716  0.3157
 1730POPC   NC320749  10.413  14.478  20.084  0.0974  0.0569  0.0881
 1730POPC   PO420750  10.067  14.394  20.272 -0.0543  0.1017 -0.4717
 1730POPC   GL120751  10.050  14.175  19.884 -0.0898  0.1611  0.0198
 1730POPC   GL220752   9.894  14.319  19.776 -0.0748  0.2987  0.0221
 1730POPC   C1A20753  10.025  14.040  19.424 -0.0339 -0.1218  0.0511
 1730POPC   D2A20754   9.806  13.949  18.994 -0.0266 -0.0749  0.0030
 1730POPC   C3A20755   9.747  14.081  18.520  0.1521 -0.0662  0.1471
 1730POPC   C4A20756   9.468  14.050  18.106  0.1178 -0.2155  0.0126
 1730POPC   C1B20757  10.183  14.474  19.436 -0.1295 -0.0995 -0.0425
 1730POPC   C2B20758  10.156  14.352  18.966 -0.0369 -0.5003  0.0617
 1730POPC   C3B20759  10.242  13.973  18.682  0.2258  0.0237 -0.0189
 1730POPC   C4B20760  10.359  13.513  18.635 -0.0440 -0.0661 -0.2381
 1731POPC   NC320761  13.312  11.734  20.239 -0.3415 -0.0917 -0.0701
 1731POPC   PO420762  13.398  11.439  20.466 -0.0810  0.0516  0.0183
 1731POPC   GL120763  13.700  11.315  20.202  0.0175 -0.1201 -0.0873
 1731POPC   GL220764  13.632  11.080  20.076 -0.1502  0.0269  0.2299
 1731POPC   C1A20765  13.717  11.504  19.795 -0.2530 -0.1581  0.0594
 1731POPC   D2A20766  13.686  11.686  19.348  0.2754 -0.2908  0.2818
 1731POPC   C3A20767  13.984  11.679  18.973 -0.0171  0.2214 -0.1184
 1731POPC   C4A20768  14.276  11.327  18.911 -0.1800 -0.1035 -0.0791
 1731POPC   C1B20769  13.536  11.008  19.652 -0.2594 -0.3435  0.1316
 1731POPC   C2B20770  13.471  11.099  19.218  0.3123  0.1070 -0.0772
 1731POPC   C3B20771  13.761  11.268  18.952  0.3175  0.0229  0.3744
 1731POPC   C4B20772  13.919  11.244  18.540  0.1851 -0.2897 -0.0525
 1732POPC   NC320773   8.183   3.392  16.692  0.1326  0.1633 -0.2303
 1732POPC   PO420774   8.572   3.403  16.631  0.1403  0.3611  0.2156
 1732POPC   GL120775   8.609   3.202  16.238  0.0072 -0.1474  0.1674
 1732POPC   GL220776   8.381   3.295  16.127 -0.0110  0.1303 -0.1359
 1732POPC   C1A20777   8.627   2.781  16.110  0.4499  0.3325  0.3720
 1732POPC   D2A20778   8.762   2.417  15.873  0.0899  0.3452  0.0167
 1732POPC   C3A20779   8.324   2.250  15.954  0.0423 -0.0725 -0.0220
 1732POPC   C4A20780   8.071   2.393  15.608 -0.0722  0.3127 -0.4470
 1732POPC   C1B20781   8.213   3.033  15.747 -0.2313  0.0670  0.2165
 1732POPC   C2B20782   7.803   2.822  15.580  0.2806 -0.4291  0.0692
 1732POPC   C3B20783   7.478   2.484  15.573 -0.4725 -0.1793  0.2367
 1732POPC   C4B20784   7.179   2.130  15.728 -0.1633 -0.4247 -0.3682
 1733POPC   NC320785   1.423  12.993  21.026 -0.2269 -0.0033 -0.0099
 1733POPC   PO420786   1.108  12.890  20.774 -0.0570 -0.1770 -0.0093
 1733POPC   GL120787   1.180  12.673  20.305 -0.2140 -0.1229  0.1276
 1733POPC   GL220788   1.352  12.883  20.238 -0.1779  0.1925 -0.2878
 1733POPC   C1A20789   1.346  12.484  19.898 -0.1483  0.2086  0.1406
 1733POPC   D2A20790   1.547  12.540  19.489 -0.0512  0.1691 -0.0463
 1733POPC   C3A20791   1.585  12.975  19.352 -0.0148  0.0548  0.0203
 1733POPC   C4A20792   1.504  13.338  19.013 -0.0889 -0.1048  0.1823
 1733POPC   C1B20793   1.537  13.021  19.858 -0.0560  0.0863  0.2212
 1733POPC   C2B20794   1.989  12.918  19.727 -0.1223  0.4253 -0.1447
 1733POPC   C3B20795   2.308  12.753  19.412 -0.0031 -0.1551  0.1530
 1733POPC   C4B20796   2.675  12.603  19.130 -0.0636  0.0978  0.0153
 1734POPC   NC320797   9.951   6.772  14.725 -0.1331  0.0980  0.2046
 1734POPC   PO420798   9.668   6.608  14.926  0.0902  0.0450 -0.0543
 1734POPC   GL120799   9.677   6.992  15.020 -0.1275  0.2842  0.0132
 1734POPC   GL220800   9.993   7.116  15.108  0.0549  0.1643 -0.0839
 1734POPC   C1A20801   9.478   7.466  15.007 -0.3469 -0.0192 -0.0385
 1734POPC   D2A20802   9.383   7.867  15.107  0.0739  0.1590 -0.1810
 1734POPC   C3A20803   9.287   8.069  15.539 -0.1074 -0.0515  0.1745
 1734POPC   C4A20804   9.242   8.309  15.934  0.1327 -0.2034 -0.0762
 1734POPC   C1B20805  10.093   7.465  14.996  0.2151 -0.1202  0.3607
 1734POPC   C2B20806  10.208   7.825  14.709  0.1023 -0.0283  0.1521
 1734POPC   C3B20807  10.337   8.036  14.273  0.1974  0.1238 -0.1528
 1734POPC   C4B20808  10.265   8.382  13.977 -0.0512  0.0820  0.1618
 1735POPC   NC320809  14.884   3.693  19.399 -0.1454  0.2596 -0.0990
 1735POPC   PO420810  14.583   3.874  19.592 -0.1001 -0.3544  0.1832
 1735POPC   GL120811  14.286   3.751  19.253 -0.0561 -0.0042 -0.2216
 1735POPC   GL220812  14.497   3.533  19.158 -0.0749  0.0410  0.1228
 1735POPC   C1A20813  14.242   3.784  18.798  0.1927 -0.0099  0.3360
 1735POPC   D2A20814  14.392   3.814  18.399  0.0759 -0.0468 -0.2643
 1735POPC   C3A20815  14.422   3.821  17.945 -0.0871 -0.1222  0.1807
 1735POPC   C4A20816  14.544   3.688  17.537  0.0907  0.0627 -0.0007
 1735POPC   C1B20817  14.684   3.154  18.980  0.0583  0.2487 -0.0679
 1735POPC   C2B20818  14.662   2.903  18.553 -0.1630 -0.1535 -0.2806
 1735POPC   C3B20819  14.809   2.800  18.143  0.0869 -0.3430 -0.1565
 1735POPC   C4B20820  14.701   2.685  17.741 -0.3526  0.2120  0.0519
 1736POPC   NC320821   4.507  14.162  20.290 -0.0184  0.0369 -0.0685
 1736POPC   PO420822   4.812  14.215  20.496  0.2392  0.0002 -0.0951
 1736POPC   GL120823   4.863  13.774  20.445  0.0333  0.0187 -0.0177
 1736POPC   GL220824   4.651  13.595  20.302  0.0879 -0.1229 -0.1099
 1736POPC   C1A20825   5.108  13.617  20.071 -0.1762 -0.1533 -0.0205
 1736POPC   D2A20826   5.429  13.810  19.766  0.0393 -0.2005 -0.0691
 1736POPC   C3A20827   5.666  13.651  19.373 -0.1519 -0.1752  0.2636
 1736POPC   C4A20828   6.148  13.535  19.436  0.2221 -0.4154 -0.1858
 1736POPC   C1B20829   4.603  13.352  19.869  0.0261 -0.0156 -0.2694
 1736POPC   C2B20830   4.744  13.261  19.438  0.0722 -0.3856  0.3324
 1736POPC   C3B20831   4.915  13.179  19.035 -0.3126 -0.0629  0.0974
 1736POPC   C4B20832   5.012  12.837  18.864 -0.0185  0.2573 -0.0583
 1737POPC   NC320833   5.146  13.438  20.588 -0.1262  0.1343 -0.3691
 1737POPC   PO420834   5.322  13.062  20.720  0.1015 -0.0131  0.1991
 1737POPC   GL120835   5.113  12.944  20.414 -0.0568 -0.0923 -0.1336
 1737POPC   GL220836   5.054  13.064  20.167 -0.0371  0.0498 -0.0565
 1737POPC   C1A20837   5.252  12.595  20.083 -0.2029  0.0472 -0.0368
 1737POPC   D2A20838   5.412  12.810  19.746 -0.1918 -0.1169  0.1472
 1737POPC   C3A20839   5.326  12.921  19.310 -0.0627  0.2132  0.1147
 1737POPC   C4A20840   5.504  13.106  18.947  0.1455  0.2080  0.2671
 1737POPC   C1B20841   4.859  12.897  19.792  0.0706  0.0217  0.1120
 1737POPC   C2B20842   4.822  12.760  19.406 -0.1390  0.1710 -0.4072
 1737POPC   C3B20843   4.570  12.667  18.965  0.0721 -0.1822 -0.0654
 1737POPC   C4B20844   4.238  12.519  18.694  0.0511 -0.1241  0.0307
 1738POPC   NC320845   4.519   7.149  20.016 -0.4277  0.0565 -0.2005
 1738POPC   PO420846   4.892   7.302  20.110 -0.0118  0.0662 -0.1191
 1738POPC   GL120847   4.952   7.312  19.707  0.2068  0.2805  0.1383
 1738POPC   GL220848   4.711   7.529  19.727  0.0046  0.0060  0.0592
 1738POPC   C1A20849   4.799   7.404  19.265  0.0269  0.0577 -0.3644
 1738POPC   D2A20850   4.916   7.394  18.854 -0.1523 -0.2653  0.0011
 1738POPC   C3A20851   4.881   7.067  18.498 -0.0136 -0.1723 -0.1052
 1738POPC   C4A20852   4.805   7.305  18.024  0.0495 -0.0974 -0.1998
 1738POPC   C1B20853   4.454   7.697  19.455 -0.0375 -0.0703 -0.1513
 1738POPC   C2B20854   4.170   7.992  19.222  0.0770  0.1486  0.0014
 1738POPC   C3B20855   3.809   8.183  19.029 -0.3143  0.0951  0.2191
 1738POPC   C4B20856   3.546   8.398  18.792  0.0610 -0.0252  0.0409
 1739POPC   NC320857   9.882   9.501  19.406 -0.3871 -0.0064  0.1289
 1739POPC   PO420858   9.839   9.526  18.983  0.3343 -0.3791 -0.2692
 1739POPC   GL120859   9.651   9.613  18.621 -0.0251  0.2522  0.2076
 1739POPC   GL220860   9.678   9.933  18.613  0.1514  0.2156  0.1801
 1739POPC   C1A20861   9.722   9.780  18.139 -0.0423  0.1420 -0.1741
 1739POPC   D2A20862   9.626   9.916  17.695  0.1469  0.1098 -0.0394
 1739POPC   C3A20863   9.492   9.631  17.349 -0.1831  0.3461  0.1586
 1739POPC   C4A20864   9.419   9.256  17.064  0.0611  0.0384 -0.0536
 1739POPC   C1B20865   9.958  10.278  18.415  0.1219 -0.1250  0.0093
 1739POPC   C2B20866  10.056  10.691  18.159  0.0760 -0.1715 -0.0449
 1739POPC   C3B20867   9.966  11.110  18.028 -0.0482  0.1843 -0.1895
 1739POPC   C4B20868  10.242  11.491  17.930  0.0685 -0.0691 -0.0263
 1740POPC   NC320869  12.602   9.230  19.879 -0.3680 -0.0025  0.1280
 1740POPC   PO420870  12.360   9.498  19.982 -0.3484 -0.0065  0.0056
 1740POPC   GL120871  12.289   9.411  19.607 -0.1939  0.1956  0.3341
 1740POPC   GL220872  12.068   9.625  19.555  0.0296 -0.1549  0.0261
 1740POPC   C1A20873  12.646   9.594  19.390  0.3209  0.0428 -0.3395
 1740POPC   D2A20874  12.875   9.798  19.012  0.0990 -0.0423  0.1837
 1740POPC   C3A20875  13.343   9.892  18.942 -0.2630  0.3109 -0.4251
 1740POPC   C4A20876  13.633  10.222  19.113  0.1928  0.0188 -0.0133
 1740POPC   C1B20877  12.312   9.892  19.205  0.0324 -0.0080 -0.1237
 1740POPC   C2B20878  12.529  10.203  18.971  0.2993 -0.0373  0.3750
 1740POPC   C3B20879  12.946  10.245  18.740 -0.2948  0.0567  0.1590
 1740POPC   C4B20880  13.382  10.312  18.669 -0.0952  0.0212 -0.0193
 1741POPC   NC320881   9.971   7.260  16.832  0.1543 -0.0487  0.3186
 1741POPC   PO420882  10.105   6.911  16.730  0.0883 -0.0822  0.1836
 1741POPC   GL120883  10.198   7.115  16.369 -0.2561 -0.3838  0.2356
 1741POPC   GL220884  10.172   7.251  16.171 -0.1382 -0.2695 -0.1095
 1741POPC   C1A20885  10.673   7.267  16.323 -0.0909 -0.3180  0.0116
 1741POPC   D2A20886  10.883   7.516  16.050 -0.0223 -0.2077 -0.0905
 1741POPC   C3A20887  10.953   7.965  16.193  0.1742  0.0392 -0.1614
 1741POPC   C4A20888  11.160   8.321  16.384 -0.1163 -0.2391  0.2129
 1741POPC   C1B20889  10.414   7.542  15.868 -0.4113 -0.1331  0.1723
 1741POPC   C2B20890  10.719   7.694  15.592 -0.1344  0.0218  0.0913
 1741POPC   C3B20891  10.988   7.806  15.224  0.0077  0.1737 -0.1999
 1741POPC   C4B20892  11.268   7.421  15.145  0.2987  0.0817  0.0007
 1742POPC   NC320893  10.586   6.356  11.811 -0.0455 -0.2079  0.1472
 1742POPC   PO420894  10.591   6.119  12.147 -0.1333  0.1655  0.1049
 1742POPC   GL120895  10.839   6.430  12.260  0.0712  0.2811 -0.2226
 1742POPC   GL220896  11.078   6.349  12.084  0.3069 -0.0098  0.0474
 1742POPC   C1A20897  10.893   6.807  12.484 -0.4280  0.2813  0.0171
 1742POPC   D2A20898  10.790   7.143  12.785  0.0325  0.1411 -0.2631
 1742POPC   C3A20899  10.793   7.586  12.747  0.2834  0.0446  0.0235
 1742POPC   C4A20900  11.003   7.942  12.630  0.1640 -0.0740 -0.2817
 1742POPC   C1B20901  11.233   6.403  12.530 -0.0056 -0.1915  0.1540
 1742POPC   C2B20902  11.526   6.337  12.884  0.3700 -0.0949 -0.1147
 1742POPC   C3B20903  11.548   6.168  13.289  0.0209  0.0211  0.0139
 1742POPC   C4B20904  11.987   6.040  13.547  0.0601  0.3198  0.1633
 1743POPC   NC320905   7.333   6.702  17.500 -0.1295 -0.0695  0.2468
 1743POPC   PO420906   6.917   6.750  17.642  0.1860  0.0555 -0.3067
 1743POPC   GL120907   6.901   7.042  17.408  0.2649  0.2443 -0.3672
 1743POPC   GL220908   6.855   6.988  17.165 -0.1631  0.0916  0.2097
 1743POPC   C1A20909   6.554   7.370  17.352  0.1080 -0.1941  0.1079
 1743POPC   D2A20910   6.378   7.666  17.637  0.1386 -0.3805  0.1974
 1743POPC   C3A20911   5.956   7.779  17.428 -0.1444 -0.2528  0.2210
 1743POPC   C4A20912   5.487   7.609  17.439  0.2043 -0.0330  0.0689
 1743POPC   C1B20913   6.509   7.020  16.815 -0.0428  0.3336 -0.1585
 1743POPC   C2B20914   6.246   7.262  16.534 -0.3078 -0.0631 -0.2395
 1743POPC   C3B20915   5.755   7.286  16.425  0.0300  0.1535  0.1653
 1743POPC   C4B20916   5.260   7.245  16.343  0.0717  0.0526  0.0790
 1744POPC   NC320917   7.620  17.111  19.375 -0.0354  0.1102 -0.1854
 1744POPC   PO420918   7.244  17.120  19.327  0.1260  0.0419  0.1631
 1744POPC   GL120919   7.249  16.953  19.080 -0.2464 -0.3319  0.0226
 1744POPC   GL220920   7.373  17.024  18.804  0.0688 -0.4329 -0.0411
 1744POPC   C1A20921   7.294  16.562  18.867 -0.2903  0.1128 -0.0147
 1744POPC   D2A20922   7.489  16.345  18.528 -0.2211  0.1233 -0.0557
 1744POPC   C3A20923   7.555  16.561  18.151 -0.1559  0.1629  0.0430
 1744POPC   C4A20924   7.661  16.489  17.750  0.1350  0.1871  0.4651
 1744POPC   C1B20925   7.146  16.890  18.407  0.2264 -0.0504 -0.2450
 1744POPC   C2B20926   6.837  17.028  18.102 -0.0990 -0.0580  0.0247
 1744POPC   C3B20927   6.623  16.946  17.661 -0.0915 -0.1239 -0.0332
 1744POPC   C4B20928   6.309  16.706  17.474  0.1825  0.1029 -0.1283
 1745POPC   NC320929  15.648   6.139  19.423 -0.1255 -0.0333 -0.0744
 1745POPC   PO420930  15.918   5.913  19.434  0.0316 -0.2735  0.0654
 1745POPC   GL120931  15.988   5.933  19.104 -0.1095 -0.0593 -0.1566
 1745POPC   GL220932  15.875   5.692  18.946 -0.1352  0.0136 -0.0027
 1745POPC   C1A20933  15.728   6.111  18.738 -0.3717  0.1117  0.0306
 1745POPC   D2A20934  15.451   6.437  18.568 -0.2980  0.0909 -0.3574
 1745POPC   C3A20935  15.502   6.688  18.138  0.2527  0.0307 -0.0763
 1745POPC   C4A20936  15.378   7.117  17.992  0.0608  0.0775  0.1931
 1745POPC   C1B20937  15.809   5.716  18.493  0.1884  0.0513 -0.0303
 1745POPC   C2B20938  15.916   5.877  18.095  0.1703 -0.1773  0.0873
 1745POPC   C3B20939  16.263   5.764  17.790 -0.1070 -0.1498  0.1799
 1745POPC   C4B20940  16.303   5.877  17.351  0.1669 -0.1496 -0.0149
 1746POPC   NC320941  10.282   4.470  14.164 -0.0518 -0.1049  0.4504
 1746POPC   PO420942  10.512   4.779  14.207  0.0389  0.0473 -0.0229
 1746POPC   GL120943  10.807   4.917  14.073 -0.0729 -0.3739  0.1539
 1746POPC   GL220944  10.829   5.150  14.246 -0.1044  0.2053 -0.1659
 1746POPC   C1A20945  11.181   4.704  14.080  0.0323  0.0042  0.0415
 1746POPC   D2A20946  11.367   4.346  14.143 -0.2191 -0.0673  0.0821
 1746POPC   C3A20947  11.429   3.925  13.922  0.0007  0.3147 -0.0370
 1746POPC   C4A20948  11.405   3.473  14.069 -0.2736  0.1909  0.0680
 1746POPC   C1B20949  11.258   5.247  14.351 -0.0674  0.5299  0.0402
 1746POPC   C2B20950  11.686   5.241  14.533  0.1569 -0.0838  0.1495
 1746POPC   C3B20951  12.066   4.972  14.577  0.0388  0.2681 -0.0264
 1746POPC   C4B20952  12.388   4.868  14.873  0.3338 -0.1012 -0.0582
 1747POPC   NC320953   5.349  11.410  20.036  0.3316  0.0108  0.2534
 1747POPC   PO420954   5.527  11.228  20.347  0.2304  0.1805 -0.1356
 1747POPC   GL120955   5.538  10.985  20.003  0.2413  0.3789 -0.1255
 1747POPC   GL220956   5.457  10.703  19.922 -0.1560 -0.1919  0.1638
 1747POPC   C1A20957   5.589  11.162  19.583  0.3290  0.0769 -0.0489
 1747POPC   D2A20958   5.584  11.083  19.146  0.1119 -0.1729 -0.0110
 1747POPC   C3A20959   5.775  11.351  18.743  0.0896 -0.0585  0.0315
 1747POPC   C4A20960   6.162  11.558  18.520 -0.1964  0.5276  0.3441
 1747POPC   C1B20961   5.380  10.726  19.494 -0.0526 -0.2476  0.0983
 1747POPC   C2B20962   5.251  10.748  19.059 -0.1902  0.1006 -0.0364
 1747POPC   C3B20963   5.244  11.001  18.665  0.1679 -0.0777 -0.2832
 1747POPC   C4B20964   5.026  11.066  18.257  0.2836  0.0832 -0.4552
 1748POPC   NC320965   4.073  14.580  20.884  0.0379  0.2011 -0.1900
 1748POPC   PO420966   4.304  14.639  20.566  0.1247  0.0854 -0.2856
 1748POPC   GL120967   4.199  14.748  20.212 -0.5055  0.0767 -0.0100
 1748POPC   GL220968   4.357  14.563  20.049  0.2311 -0.1518 -0.1356
 1748POPC   C1A20969   4.337  14.935  19.750  0.1641  0.1895  0.1966
 1748POPC   D2A20970   4.315  14.912  19.250  0.1753 -0.0452 -0.1110
 1748POPC   C3A20971   4.373  15.206  18.856  0.0445 -0.0431 -0.0724
 1748POPC   C4A20972   4.553  15.173  18.470  0.4358 -0.0941 -0.1059
 1748POPC   C1B20973   4.097  14.165  19.985  0.1651  0.0795  0.0055
 1748POPC   C2B20974   4.159  14.015  19.552 -0.4457 -0.1683  0.2808
 1748POPC   C3B20975   4.161  13.956  19.064  0.1830  0.2886  0.0167
 1748POPC   C4B20976   4.006  13.990  18.646 -0.1809  0.0671  0.0912
 1749POPC   NC320977  10.333  14.642  20.549  0.0739  0.0367  0.1288
 1749POPC   PO420978  10.319  14.994  20.317 -0.0830 -0.1819 -0.3784
 1749POPC   GL120979  10.344  14.965  19.967 -0.0573  0.4048  0.4977
 1749POPC   GL220980  10.637  14.877  19.909  0.0577 -0.0843 -0.1336
 1749POPC   C1A20981  10.103  14.923  19.583  0.1208 -0.0717  0.1396
 1749POPC   D2A20982  10.251  14.836  19.112 -0.1494  0.0184  0.1895
 1749POPC   C3A20983  10.204  14.914  18.627  0.0188  0.1141  0.2898
 1749POPC   C4A20984  10.466  14.855  18.257  0.0681  0.1131  0.0938
 1749POPC   C1B20985  10.637  14.883  19.447 -0.0139  0.0814  0.2028
 1749POPC   C2B20986  10.735  14.486  19.242  0.0908  0.1146 -0.0502
 1749POPC   C3B20987  10.622  14.156  18.943 -0.1674  0.0390 -0.0024
 1749POPC   C4B20988  10.729  13.886  18.580  0.0153 -0.1747 -0.0230
 1750POPC   NC320989  10.187   1.470  19.066  0.0172  0.2089 -0.0484
 1750POPC   PO420990  10.455   1.163  19.120  0.1259  0.1644 -0.1894
 1750POPC   GL120991  10.353   1.160  18.736  0.4211  0.2032 -0.1448
 1750POPC   GL220992  10.136   0.964  18.592 -0.2344 -0.2660 -0.2811
 1750POPC   C1A20993  10.657   0.835  18.580  0.1968  0.2458  0.0430
 1750POPC   D2A20994  10.898   0.545  18.285 -0.1916  0.1089 -0.2718
 1750POPC   C3A20995  10.801   0.192  17.985 -0.2790 -0.1164  0.2679
 1750POPC   C4A20996  10.572   0.080  17.544 -0.1417  0.1434 -0.3810
 1750POPC   C1B20997  10.318   0.738  18.221 -0.1921 -0.1742  0.1693
 1750POPC   C2B20998  10.435   0.618  17.807 -0.0477 -0.2632 -0.3423
 1750POPC   C3B20999  10.630   0.569  17.393  0.0342  0.1988  0.1653
 1750POPC   C4B21000  10.915   0.356  17.080 -0.2464 -0.4256 -0.1791
 1751POPC   NC321001   5.747   6.380  18.065 -0.0593  0.3863  0.0836
 1751POPC   PO421002   5.567   6.094  18.295  0.1485  0.0788  0.0965
 1751POPC   GL121003   5.425   6.023  17.917 -0.0140 -0.1349 -0.2069
 1751POPC   GL221004   5.214   6.236  17.925 -0.2059 -0.0859 -0.1300
 1751POPC   C1A21005   5.263   6.011  17.498 -0.1447  0.0109  0.1700
 1751POPC   D2A21006   5.322   6.308  17.146  0.1047 -0.1563 -0.1946
 1751POPC   C3A21007   4.997   6.615  17.121  0.0118 -0.2066 -0.0923
 1751POPC   C4A21008   4.734   7.007  17.186 -0.4334  0.1420  0.2860
 1751POPC   C1B21009   5.007   6.464  17.617  0.0142  0.0543  0.2043
 1751POPC   C2B21010   4.573   6.517  17.376 -0.1283  0.1293  0.2944
 1751POPC   C3B21011   4.530   6.590  16.940  0.0664 -0.0917  0.2719
 1751POPC   C4B21012   4.597   6.526  16.509  0.3209  0.2521 -0.0320
 1752POPC   NC321013  10.341  13.582  20.668 -0.3156  0.3111 -0.1529
 1752POPC   PO421014  10.711  13.673  20.564  0.3067  0.0664 -0.0829
 1752POPC   GL121015  10.846  13.633  20.168  0.0052 -0.1032 -0.0006
 1752POPC   GL221016  10.729  13.335  20.145 -0.5776  0.1475  0.0091
 1752POPC   C1A21017  11.217  13.464  19.988  0.1426 -0.1476 -0.2128
 1752POPC   D2A21018  11.515  13.303  19.669 -0.2272 -0.0280  0.1481
 1752POPC   C3A21019  11.939  13.293  19.835  0.0879  0.2377 -0.3821
 1752POPC   C4A21020  12.173  13.014  19.828 -0.1835 -0.0107  0.0673
 1752POPC   C1B21021  10.890  13.201  19.765 -0.0198  0.0975 -0.0280
 1752POPC   C2B21022  10.871  13.062  19.334  0.0946 -0.2683 -0.0620
 1752POPC   C3B21023  10.986  12.780  18.982 -0.2444  0.0485  0.2581
 1752POPC   C4B21024  11.115  12.780  18.542  0.4014  0.4284 -0.4497
 1753POPC   NC321025  10.280   7.677  17.445  0.0888  0.1387 -0.1804
 1753POPC   PO421026   9.963   7.571  17.244 -0.0142 -0.2147  0.1675
 1753POPC   GL121027  10.033   7.729  16.915 -0.3040 -0.5550  0.0962
 1753POPC   GL221028  10.161   8.054  16.964 -0.0846  0.1421 -0.1729
 1753POPC   C1A21029   9.855   7.922  16.546  0.0688 -0.4195 -0.0896
 1753POPC   D2A21030  10.010   8.352  16.404 -0.1124  0.0160 -0.0084
 1753POPC   C3A21031  10.106   8.509  15.975  0.0994  0.1730 -0.1952
 1753POPC   C4A21032  10.309   8.947  15.899  0.1480  0.0957  0.0459
 1753POPC   C1B21033  10.474   8.402  17.010 -0.0912  0.3504 -0.0032
 1753POPC   C2B21034  10.686   8.798  16.939 -0.0134 -0.0522 -0.0309
 1753POPC   C3B21035  10.916   9.158  16.857  0.1464 -0.3364  0.1504
 1753POPC   C4B21036  11.182   9.411  16.544 -0.1301 -0.0164 -0.0637
 1754POPC   NC321037   8.431   7.361  16.205 -0.0772 -0.1092 -0.2349
 1754POPC   PO421038   8.163   7.150  16.410  0.2864 -0.1086  0.3546
 1754POPC   GL121039   7.908   7.391  16.104 -0.0344  0.0107 -0.1377
 1754POPC   GL221040   7.715   7.407  16.294  0.0734  0.0691 -0.2238
 1754POPC   C1A21041   7.547   7.380  15.773 -0.0609 -0.0856 -0.2455
 1754POPC   D2A21042   7.271   7.221  15.598  0.0401 -0.0735  0.2058
 1754POPC   C3A21043   6.903   7.112  15.902 -0.1871  0.1659  0.1664
 1754POPC   C4A21044   6.496   7.055  16.112 -0.1331 -0.1228 -0.1029
 1754POPC   C1B21045   7.616   7.871  16.277 -0.0157 -0.3662 -0.2109
 1754POPC   C2B21046   7.786   8.289  16.173  0.3188 -0.0161  0.0523
 1754POPC   C3B21047   7.719   8.785  16.092  0.1111 -0.3478 -0.0958
 1754POPC   C4B21048   7.604   9.232  16.127 -0.1059  0.1028 -0.0573
 1755POPC   NC321049  12.604   3.017  18.947 -0.1444 -0.5218 -0.1513
 1755POPC   PO421050  12.532   3.350  18.748 -0.1555 -0.0224  0.2436
 1755POPC   GL121051  12.800   3.228  18.532  0.1360  0.0288 -0.0149
 1755POPC   GL221052  12.950   3.018  18.605  0.2006  0.1209  0.0493
 1755POPC   C1A21053  13.087   3.210  18.168 -0.2587  0.1428  0.2177
 1755POPC   D2A21054  13.220   3.255  17.716 -0.2314 -0.1743  0.3866
 1755POPC   C3A21055  13.477   3.443  17.344 -0.3926 -0.2179 -0.1729
 1755POPC   C4A21056  13.852   3.741  17.243 -0.1250 -0.4364  0.0314
 1755POPC   C1B21057  13.367   2.874  18.424 -0.1228 -0.0727  0.0670
 1755POPC   C2B21058  13.548   2.693  18.038 -0.0719  0.1966 -0.0909
 1755POPC   C3B21059  13.862   2.625  17.716  0.1740 -0.1392  0.1809
 1755POPC   C4B21060  14.195   2.803  17.498  0.4186  0.4682 -0.2333
 1756POPC   NC321061  10.795  16.436  19.662  0.2779  0.1166  0.2622
 1756POPC   PO421062  11.070  16.152  19.557 -0.1328  0.0774  0.0646
 1756POPC   GL121063  11.103  16.041  19.153  0.1581  0.4563  0.0277
 1756POPC   GL221064  11.340  16.224  19.101  0.0501  0.0092 -0.2455
 1756POPC   C1A21065  11.410  15.670  19.058  0.3935 -0.5218  0.0571
 1756POPC   D2A21066  11.743  15.407  18.886  0.2712 -0.0223  0.1751
 1756POPC   C3A21067  11.841  15.036  18.662  0.2173 -0.1061 -0.0336
 1756POPC   C4A21068  12.215  14.882  18.427 -0.1974 -0.1790 -0.0010
 1756POPC   C1B21069  11.117  16.147  18.725  0.3129  0.0671 -0.0229
 1756POPC   C2B21070  11.043  15.677  18.555 -0.0469 -0.2653 -0.4098
 1756POPC   C3B21071  11.253  15.281  18.618  0.2336 -0.2320  0.1633
 1756POPC   C4B21072  11.348  14.940  18.350 -0.0931  0.1838 -0.0111
 1757POPC   NC321073   6.740  12.268  20.541  0.0403  0.2164 -0.4221
 1757POPC   PO421074   6.859  12.583  20.335  0.1039 -0.3010 -0.0963
 1757POPC   GL121075   6.801  12.549  19.959  0.1096 -0.1029  0.0487
 1757POPC   GL221076   6.561  12.486  19.775  0.3280 -0.1260 -0.1916
 1757POPC   C1A21077   7.085  12.533  19.574 -0.2065 -0.0904  0.1822
 1757POPC   D2A21078   7.583  12.497  19.678  0.2068 -0.0740  0.1333
 1757POPC   C3A21079   7.736  12.185  19.368  0.0406  0.0517 -0.2614
 1757POPC   C4A21080   8.133  12.031  19.223 -0.3700 -0.0403  0.0151
 1757POPC   C1B21081   6.522  12.764  19.353  0.3218 -0.1099 -0.3414
 1757POPC   C2B21082   6.508  12.896  18.884 -0.5387 -0.4564  0.1435
 1757POPC   C3B21083   6.652  12.869  18.395 -0.0228  0.0923 -0.0361
 1757POPC   C4B21084   6.776  12.519  18.194  0.5322  0.3295 -0.0488
 1758POPC   NC321085   2.423  16.269  20.415 -0.1977  0.1359 -0.1750
 1758POPC   PO421086   2.431  15.907  20.616  0.3973 -0.1694  0.1030
 1758POPC   GL121087   2.499  15.745  20.267 -0.1353 -0.1656  0.2082
 1758POPC   GL221088   2.314  15.783  20.103 -0.0870 -0.1146  0.3112
 1758POPC   C1A21089   2.522  15.334  20.037 -0.0877 -0.1364 -0.3455
 1758POPC   D2A21090   2.503  15.100  19.656  0.1443  0.2059 -0.1097
 1758POPC   C3A21091   2.571  14.896  19.261  0.1813  0.3129  0.0774
 1758POPC   C4A21092   2.550  15.125  18.852  0.1077  0.1610 -0.2949
 1758POPC   C1B21093   2.230  15.556  19.688  0.2285  0.0293  0.0344
 1758POPC   C2B21094   2.012  15.773  19.332 -0.1064  0.0297  0.0313
 1758POPC   C3B21095   2.124  16.046  19.028  0.3908  0.1942  0.2977
 1758POPC   C4B21096   2.308  16.269  18.660  0.0581 -0.2242 -0.1542
 1759POPC   NC321097   1.548   2.130  19.952 -0.1586 -0.3287  0.2322
 1759POPC   PO421098   1.216   2.082  20.149 -0.2048  0.0982 -0.0773
 1759POPC   GL121099   1.010   2.248  19.809 -0.4277  0.0000  0.1685
 1759POPC   GL221100   1.221   2.429  19.647  0.0784 -0.1701 -0.4472
 1759POPC   C1A21101   0.757   2.280  19.467  0.0706 -0.1303  0.0105
 1759POPC   D2A21102   0.427   2.614  19.409  0.2248 -0.0527  0.0991
 1759POPC   C3A21103   0.192   2.837  19.055  0.2882 -0.3426 -0.1037
 1759POPC   C4A21104   0.130   2.848  18.571  0.0376 -0.0756  0.2507
 1759POPC   C1B21105   1.358   2.480  19.189 -0.2635  0.0788 -0.0164
 1759POPC   C2B21106   1.538   2.577  18.773 -0.0118  0.0075 -0.0943
 1759POPC   C3B21107   1.913   2.677  18.513  0.4204 -0.2895  0.3519
 1759POPC   C4B21108   2.336   2.715  18.303  0.2114 -0.0362 -0.2704
 1760POPC   NC321109  11.377  14.564  20.678 -0.1206 -0.2270  0.0813
 1760POPC   PO421110  11.676  14.720  20.546 -0.1623  0.0074  0.2252
 1760POPC   GL121111  11.909  14.631  20.244 -0.1648 -0.1206  0.5407
 1760POPC   GL221112  11.793  14.493  20.057 -0.0571  0.0834  0.5409
 1760POPC   C1A21113  11.964  14.852  19.815  0.3026 -0.0015 -0.0766
 1760POPC   D2A21114  11.713  14.781  19.400 -0.2477 -0.1677 -0.0315
 1760POPC   C3A21115  11.828  14.389  19.198 -0.2664  0.0065 -0.1157
 1760POPC   C4A21116  12.012  14.009  18.925 -0.1121  0.0950 -0.3553
 1760POPC   C1B21117  11.733  14.250  19.659  0.0313 -0.1959 -0.0166
 1760POPC   C2B21118  12.035  13.960  19.559 -0.0200  0.1457  0.3177
 1760POPC   C3B21119  12.341  13.789  19.259  0.2605  0.1990  0.0062
 1760POPC   C4B21120  12.687  13.569  19.110  0.0289 -0.1917  0.1356
 1761POPC   NC321121  10.539   3.500  16.842 -0.4071 -0.3740  0.1260
 1761POPC   PO421122  10.185   3.290  16.851 -0.4876  0.2714 -0.2614
 1761POPC   GL121123  10.465   3.012  16.722  0.2484 -0.0767 -0.1451
 1761POPC   GL221124  10.558   3.121  16.497  0.0514 -0.1919 -0.2573
 1761POPC   C1A21125  10.351   2.649  16.445  0.2559  0.2319  0.1110
 1761POPC   D2A21126  10.073   2.510  16.055  0.2235  0.0338 -0.0614
 1761POPC   C3A21127  10.291   2.272  15.710 -0.0266  0.0367  0.3142
 1761POPC   C4A21128  10.532   1.946  15.521  0.4845 -0.2429  0.2210
 1761POPC   C1B21129  10.825   3.018  16.154  0.1832 -0.0492  0.2343
 1761POPC   C2B21130  11.223   2.892  15.882  0.0734 -0.3112  0.0255
 1761POPC   C3B21131  11.538   2.889  15.480 -0.1258  0.0064  0.1222
 1761POPC   C4B21132  12.005   2.863  15.325 -0.0505  0.1084 -0.1066
 1762POPC   NC321133   7.066  16.530  19.319 -0.0930  0.1351 -0.0770
 1762POPC   PO421134   6.747  16.616  19.602  0.0681  0.0742 -0.1922
 1762POPC   GL121135   6.598  16.562  19.296 -0.1645  0.0247 -0.2183
 1762POPC   GL221136   6.364  16.803  19.234 -0.0029  0.1370  0.2134
 1762POPC   C1A21137   6.771  16.480  18.867  0.1865 -0.3129  0.2176
 1762POPC   D2A21138   7.041  16.199  18.626 -0.1828  0.2834 -0.0507
 1762POPC   C3A21139   7.312  15.862  18.401  0.1658 -0.1961  0.1531
 1762POPC   C4A21140   7.774  15.700  18.442  0.0844 -0.0393 -0.1536
 1762POPC   C1B21141   6.359  17.015  18.808 -0.1517  0.2167  0.1271
 1762POPC   C2B21142   6.476  17.335  18.388 -0.2317  0.0620  0.1367
 1762POPC   C3B21143   6.460  17.375  17.943  0.3609 -0.0445 -0.3372
 1762POPC   C4B21144   6.304  17.286  17.509  0.0171 -0.2225  0.2625
 1763POPC   NC321145   1.638   4.489  19.680  0.1827  0.1006 -0.2060
 1763POPC   PO421146   1.683   4.856  19.632  0.2292  0.1098  0.3117
 1763POPC   GL121147   1.651   4.763  19.242  0.0179 -0.1730 -0.0525
 1763POPC   GL221148   1.791   5.005  19.155  0.5057 -0.1298  0.1365
 1763POPC   C1A21149   1.687   4.505  18.850  0.1795 -0.0919  0.0835
 1763POPC   D2A21150   1.597   4.148  18.604 -0.0538 -0.1607  0.1272
 1763POPC   C3A21151   1.602   4.153  18.135  0.0486  0.2499 -0.2553
 1763POPC   C4A21152   1.665   4.009  17.677 -0.3833 -0.0728 -0.2475
 1763POPC   C1B21153   1.707   5.114  18.708  0.2183  0.2355  0.2333
 1763POPC   C2B21154   1.423   5.368  18.468  0.0907  0.0508  0.4348
 1763POPC   C3B21155   1.618   5.581  18.172  0.2603 -0.0835 -0.0235
 1763POPC   C4B21156   1.593   6.055  18.036  0.2302  0.1221  0.1234
 1764POPC   NC321157   2.558   1.207  20.228  0.1311  0.0386 -0.1433
 1764POPC   PO421158   2.385   0.920  20.433  0.1178  0.1742 -0.1873
 1764POPC   GL121159   2.559   0.784  20.028  0.1697  0.0073 -0.5035
 1764POPC   GL221160   2.458   0.517  19.883  0.1931  0.2375  0.0054
 1764POPC   C1A21161   2.754   0.870  19.622 -0.1228 -0.3274 -0.0122
 1764POPC   D2A21162   2.574   1.061  19.267 -0.2067 -0.0295  0.0439
 1764POPC   C3A21163   2.826   1.180  18.885 -0.1316 -0.1218  0.2779
 1764POPC   C4A21164   3.089   1.306  18.492 -0.0302 -0.1964 -0.1879
 1764POPC   C1B21165   2.503   0.349  19.485 -0.1688  0.2148 -0.0093
 1764POPC   C2B21166   2.462   0.291  19.044  0.0063  0.2519  0.1513
 1764POPC   C3B21167   2.093   0.275  18.720  0.2326  0.2944 -0.1146
 1764POPC   C4B21168   2.007   0.141  18.241  0.1533 -0.1718 -0.0345
 1765POPC   NC321169  32.755   8.994  20.298  0.0665  0.1209 -0.2218
 1765POPC   PO421170  32.933   8.690  20.118  0.2946 -0.1484 -0.0565
 1765POPC   GL121171  33.111   9.039  20.039 -0.0397 -0.1670 -0.1757
 1765POPC   GL221172  32.858   9.056  19.817  0.3625 -0.0879  0.2087
 1765POPC   C1A21173  33.280   9.293  19.694 -0.0945 -0.2621  0.1568
 1765POPC   D2A21174  33.362   9.446  19.307 -0.0474  0.1790  0.3338
 1765POPC   C3A21175  33.577   9.249  18.895  0.0714  0.0633 -0.1755
 1765POPC   C4A21176  33.374   8.972  18.561  0.0051 -0.0300  0.0605
 1765POPC   C1B21177  32.956   8.959  19.437 -0.5431  0.0432 -0.2130
 1765POPC   C2B21178  32.980   9.174  19.030  0.3771 -0.4355  0.2042
 1765POPC   C3B21179  33.183   9.447  18.668 -0.0899  0.0602 -0.0620
 1765POPC   C4B21180  33.582   9.717  18.698  0.4077  0.0076  0.5240
 1766POPC   NC321181  10.346   9.632  19.035 -0.1980  0.0667  0.3134
 1766POPC   PO421182  10.280   9.215  19.050 -0.1163 -0.5333  0.2183
 1766POPC   GL121183  10.318   9.361  18.689 -0.0160 -0.1796  0.1824
 1766POPC   GL221184  10.164   9.590  18.549 -0.1387 -0.4326  0.0139
 1766POPC   C1A21185  10.295   9.072  18.316  0.0655 -0.0266 -0.0880
 1766POPC   D2A21186  10.416   9.113  17.900 -0.1028 -0.3164  0.2067
 1766POPC   C3A21187  10.159   9.249  17.573 -0.3798 -0.0025  0.0186
 1766POPC   C4A21188  10.014   9.378  17.166  0.2632 -0.2238 -0.4460
 1766POPC   C1B21189  10.263   9.931  18.287 -0.2018  0.0892  0.3951
 1766POPC   C2B21190  10.439  10.355  18.233 -0.2880 -0.1092 -0.0717
 1766POPC   C3B21191  10.534  10.762  18.377 -0.0269 -0.0730  0.2325
 1766POPC   C4B21192  10.498  11.159  18.196  0.0494 -0.0848 -0.3956
 1767POPC   NC321193   7.627   8.420  19.069  0.2344 -0.0250  0.0506
 1767POPC   PO421194   7.946   8.662  19.098 -0.2276 -0.0416 -0.1578
 1767POPC   GL121195   8.126   8.637  18.778 -0.2874 -0.1642  0.0605
 1767POPC   GL221196   8.212   8.863  18.697  0.4472 -0.0421 -0.0500
 1767POPC   C1A21197   7.873   8.671  18.442  0.2153 -0.1585  0.4358
 1767POPC   D2A21198   7.435   8.848  18.359  0.1089 -0.1936  0.1756
 1767POPC   C3A21199   7.207   9.053  18.679  0.0255  0.0092 -0.2219
 1767POPC   C4A21200   7.209   9.326  19.047  0.0334  0.1745  0.0396
 1767POPC   C1B21201   8.211   8.931  18.226  0.0557 -0.1752  0.0253
 1767POPC   C2B21202   8.194   9.126  17.769 -0.0936  0.0888  0.2458
 1767POPC   C3B21203   7.843   9.082  17.451 -0.3888  0.2194  0.0933
 1767POPC   C4B21204   7.586   9.314  17.185  0.1823  0.0216 -0.1312
 1768POPC   NC321205   0.775   8.181  20.081  0.2100  0.0235 -0.1463
 1768POPC   PO421206   1.000   8.387  20.294  0.3630  0.0474 -0.0363
 1768POPC   GL121207   1.204   8.421  19.963 -0.0318 -0.1031 -0.2752
 1768POPC   GL221208   1.267   8.703  19.887 -0.1141 -0.0472 -0.2333
 1768POPC   C1A21209   1.438   8.248  19.604  0.3199  0.0810  0.2347
 1768POPC   D2A21210   1.710   7.987  19.308 -0.1762  0.0590 -0.0773
 1768POPC   C3A21211   1.569   7.990  18.840  0.1931 -0.3356 -0.0585
 1768POPC   C4A21212   1.458   8.331  18.576  0.5436  0.2300  0.1568
 1768POPC   C1B21213   1.243   8.799  19.473 -0.0585 -0.1074 -0.1859
 1768POPC   C2B21214   1.212   8.851  19.037  0.0484  0.1234 -0.1631
 1768POPC   C3B21215   1.057   8.744  18.608  0.0582 -0.0198  0.0357
 1768POPC   C4B21216   0.998   8.576  18.203 -0.0055  0.2241  0.0690
 1769POPC   NC321217  10.894   3.932  16.774  0.0689  0.0020  0.1335
 1769POPC   PO421218  11.177   4.207  16.719  0.3327  0.3072 -0.3485
 1769POPC   GL121219  11.315   3.974  16.389 -0.1470 -0.0107  0.4576
 1769POPC   GL221220  11.359   3.734  16.543  0.2978 -0.1140  0.2857
 1769POPC   C1A21221  11.529   4.098  15.993 -0.0819  0.0613  0.1009
 1769POPC   D2A21222  11.517   4.114  15.535  0.1440 -0.0208 -0.0731
 1769POPC   C3A21223  11.881   3.855  15.408 -0.0837  0.2035 -0.4214
 1769POPC   C4A21224  12.196   3.631  15.143  0.0570 -0.0361 -0.0074
 1769POPC   C1B21225  11.414   3.623  16.116  0.0143  0.0998  0.0358
 1769POPC   C2B21226  11.503   3.535  15.701 -0.2036 -0.2357  0.1863
 1769POPC   C3B21227  11.609   3.403  15.269 -0.1293 -0.0489 -0.1186
 1769POPC   C4B21228  11.712   3.458  14.831  0.1690  0.1137 -0.2287
 1770POPC   NC321229   0.378  12.714  20.663  0.1770  0.0329 -0.2014
 1770POPC   PO421230   0.676  12.486  20.492  0.1789  0.0274 -0.0816
 1770POPC   GL121231   0.750  12.620  20.109  0.0729  0.3566 -0.0316
 1770POPC   GL221232   0.507  12.781  20.060 -0.2028 -0.0495  0.2022
 1770POPC   C1A21233   0.609  12.441  19.679  0.0334  0.2159  0.1474
 1770POPC   D2A21234   0.278  12.477  19.379  0.2267 -0.2495 -0.2417
 1770POPC   C3A21235   0.088  12.865  19.256 -0.0599 -0.0121 -0.1751
 1770POPC   C4A21236   0.072  13.048  18.887 -0.0736  0.0047  0.1694
 1770POPC   C1B21237   0.085  12.643  19.894 -0.3076 -0.0557  0.0962
 1770POPC   C2B21238  -0.267  12.672  19.623  0.2931  0.1165 -0.0591
 1770POPC   C3B21239  -0.433  12.764  19.195  0.1194  0.1948 -0.0385
 1770POPC   C4B21240  -0.477  12.968  18.791 -0.1395  0.2138 -0.1943
 1771POPC   NC321241  15.781  15.155  20.311 -0.2803 -0.2660  0.0427
 1771POPC   PO421242  15.835  15.338  19.925 -0.0146  0.0697  0.1930
 1771POPC   GL121243  15.809  15.230  19.614  0.0785  0.2364 -0.1372
 1771POPC   GL221244  15.746  15.403  19.390 -0.1574 -0.1744  0.2649
 1771POPC   C1A21245  15.712  14.936  19.291  0.1879  0.1362  0.0088
 1771POPC   D2A21246  15.533  14.715  18.969 -0.1114  0.1511  0.2203
 1771POPC   C3A21247  15.263  14.727  18.583 -0.0930  0.0660 -0.3677
 1771POPC   C4A21248  15.242  14.832  18.146  0.0865 -0.2073 -0.1546
 1771POPC   C1B21249  15.538  15.691  19.158 -0.0447  0.2250  0.1382
 1771POPC   C2B21250  15.657  15.659  18.719 -0.0257 -0.2565 -0.0692
 1771POPC   C3B21251  15.981  15.392  18.466  0.0005 -0.0155 -0.0862
 1771POPC   C4B21252  16.371  15.108  18.513  0.2073  0.1101  0.1272
 1772POPC   NC321253  11.835   5.821  18.645  0.2228 -0.0395  0.2434
 1772POPC   PO421254  11.876   5.774  18.236 -0.0726 -0.0612 -0.2838
 1772POPC   GL121255  12.143   5.896  18.134  0.0629 -0.2045 -0.0481
 1772POPC   GL221256  12.301   5.987  18.369 -0.0195  0.1851 -0.1562
 1772POPC   C1A21257  12.400   5.935  17.719 -0.2101  0.2433  0.0190
 1772POPC   D2A21258  12.799   5.798  17.515 -0.1197  0.0177  0.3024
 1772POPC   C3A21259  12.850   5.973  17.111 -0.1334  0.1620  0.1960
 1772POPC   C4A21260  12.779   5.924  16.656 -0.1596  0.1151  0.1537
 1772POPC   C1B21261  12.497   6.295  18.117  0.4718 -0.0498 -0.0900
 1772POPC   C2B21262  12.674   6.350  17.740 -0.2541  0.2092  0.0086
 1772POPC   C3B21263  12.998   6.315  17.401 -0.1526 -0.0091 -0.0610
 1772POPC   C4B21264  13.466   6.141  17.387  0.2087 -0.2491 -0.2966
 1773POPC   NC321265   6.071   4.749  18.579 -0.2644  0.1920  0.6162
 1773POPC   PO421266   6.021   4.685  18.194  0.0508 -0.0803 -0.1054
 1773POPC   GL121267   5.695   4.847  17.878  0.2387  0.4759  0.0379
 1773POPC   GL221268   5.874   4.720  17.636  0.0580 -0.1798  0.0158
 1773POPC   C1A21269   5.291   4.739  17.647 -0.0712 -0.1140 -0.1522
 1773POPC   D2A21270   4.979   4.413  17.676  0.0580 -0.0842  0.1556
 1773POPC   C3A21271   4.681   4.114  17.492 -0.2433 -0.0056  0.1020
 1773POPC   C4A21272   4.400   3.831  17.659  0.1697 -0.0099  0.2997
 1773POPC   C1B21273   5.593   4.373  17.526  0.1282  0.0971  0.2617
 1773POPC   C2B21274   5.160   4.325  17.259  0.0563  0.2873 -0.0439
 1773POPC   C3B21275   4.824   4.603  17.265  0.3245  0.2165  0.1096
 1773POPC   C4B21276   4.512   4.928  17.374 -0.1310  0.0120  0.2309
 1774POPC   NC321277   6.264   6.999  18.186  0.1690 -0.0858  0.1615
 1774POPC   PO421278   6.219   6.645  18.078  0.0426 -0.2429  0.0197
 1774POPC   GL121279   6.231   6.720  17.669  0.1593 -0.0335  0.3710
 1774POPC   GL221280   6.002   6.531  17.557  0.0237 -0.6245 -0.3356
 1774POPC   C1A21281   6.171   6.942  17.235 -0.4296  0.0241  0.0312
 1774POPC   D2A21282   6.091   7.393  17.145  0.0718 -0.2738  0.1938
 1774POPC   C3A21283   5.963   7.623  16.703 -0.1352 -0.2160 -0.2884
 1774POPC   C4A21284   5.732   8.023  16.701  0.0636  0.0669  0.1125
 1774POPC   C1B21285   5.752   6.653  17.192 -0.0636 -0.1621 -0.0308
 1774POPC   C2B21286   5.422   6.793  16.916  0.1464  0.1999  0.1536
 1774POPC   C3B21287   5.113   6.724  16.555 -0.2546  0.1971  0.3333
 1774POPC   C4B21288   4.853   6.991  16.252  0.0650 -0.1583 -0.0225
 1775POPC   NC321289  13.823   0.696  20.226  0.2591 -0.3598 -0.2118
 1775POPC   PO421290  14.232   0.722  20.198  0.1792  0.0570  0.2131
 1775POPC   GL121291  14.218   0.429  19.975  0.3640  0.0954 -0.2394
 1775POPC   GL221292  13.996   0.294  19.864 -0.1651  0.0301  0.4254
 1775POPC   C1A21293  14.457   0.125  19.743  0.2470  0.0414  0.3263
 1775POPC   D2A21294  14.637  -0.267  19.625  0.0349  0.2656 -0.0044
 1775POPC   C3A21295  14.343  -0.615  19.735  0.1002 -0.3573 -0.1746
 1775POPC   C4A21296  14.250  -1.083  19.519 -0.1117  0.0888  0.2613
 1775POPC   C1B21297  13.919   0.328  19.368 -0.2393 -0.0280  0.1475
 1775POPC   C2B21298  13.771   0.437  18.921  0.0453  0.3630  0.5756
 1775POPC   C3B21299  13.717   0.323  18.463  0.2354  0.2484  0.0462
 1775POPC   C4B21300  13.600  -0.106  18.207 -0.0035 -0.3883 -0.2294
 1776POPC   NC321301   9.578  14.513  20.130 -0.1707  0.2146  0.0305
 1776POPC   PO421302   9.473  14.146  20.068  0.0010 -0.0699 -0.0106
 1776POPC   GL121303   9.329  14.116  19.648  0.1828  0.0339  0.2731
 1776POPC   GL221304   9.328  13.840  19.601  0.1126 -0.2136 -0.4320
 1776POPC   C1A21305   9.592  14.258  19.279 -0.1900  0.0170 -0.1519
 1776POPC   D2A21306   9.523  14.353  18.828 -0.1082 -0.0888  0.0547
 1776POPC   C3A21307   9.247  14.708  18.669 -0.0299  0.0927 -0.1736
 1776POPC   C4A21308   9.059  15.120  18.590  0.1309  0.3350  0.3020
 1776POPC   C1B21309   9.289  13.908  19.154  0.2625  0.1546  0.0384
 1776POPC   C2B21310   9.469  13.702  18.781  0.0352 -0.0811  0.3725
 1776POPC   C3B21311   9.449  13.553  18.317 -0.1172  0.3361  0.5390
 1776POPC   C4B21312   9.660  13.560  17.919 -0.0604  0.1663  0.1074
 1777POPC   NC321313   9.211   6.850  14.968  0.1297  0.0035 -0.2486
 1777POPC   PO421314   8.848   6.785  15.080  0.0913  0.2292 -0.0503
 1777POPC   GL121315   8.687   7.130  14.952 -0.1879  0.1450 -0.3378
 1777POPC   GL221316   8.906   7.233  14.902 -0.1590 -0.1084  0.1576
 1777POPC   C1A21317   8.545   7.569  14.770  0.0243  0.3299  0.1061
 1777POPC   D2A21318   8.671   7.955  14.562 -0.1451  0.2633  0.1940
 1777POPC   C3A21319   8.546   8.058  14.135 -0.1886  0.1483 -0.0421
 1777POPC   C4A21320   8.512   8.195  13.677  0.1299 -0.2768  0.0840
 1777POPC   C1B21321   9.121   7.656  14.734 -0.0013  0.2652  0.0763
 1777POPC   C2B21322   9.335   8.011  14.613  0.0775  0.0933  0.2849
 1777POPC   C3B21323   9.419   8.435  14.806  0.0446 -0.1581  0.0312
 1777POPC   C4B21324   9.155   8.848  14.876  0.4207  0.0803 -0.1000
 1778POPC   NC321325   8.143   7.196  16.880  0.1419 -0.0537 -0.1691
 1778POPC   PO421326   7.740   7.213  16.766  0.0707 -0.1634 -0.1042
 1778POPC   GL121327   7.425   7.347  16.838 -0.4828 -0.0144 -0.0397
 1778POPC   GL221328   7.496   7.626  16.878 -0.0969 -0.4264 -0.1618
 1778POPC   C1A21329   7.023   7.548  16.701  0.1866  0.0851 -0.2515
 1778POPC   D2A21330   6.551   7.547  16.839  0.2047 -0.0577 -0.1190
 1778POPC   C3A21331   6.366   7.915  17.098 -0.4179  0.1110 -0.0055
 1778POPC   C4A21332   6.180   8.296  17.144 -0.1951 -0.2159 -0.0140
 1778POPC   C1B21333   7.317   7.994  16.694 -0.1192 -0.0289 -0.2607
 1778POPC   C2B21334   7.279   8.266  16.352  0.0648  0.4714 -0.0265
 1778POPC   C3B21335   7.018   8.296  16.005  0.1010 -0.0322 -0.0236
 1778POPC   C4B21336   6.660   8.015  15.851  0.1887  0.1482  0.0192
 1779POPC   NC321337   9.265   0.144  19.430 -0.1331  0.2917 -0.1507
 1779POPC   PO421338   9.261   0.539  19.471  0.0682  0.0961  0.0869
 1779POPC   GL121339   9.033   0.373  19.121 -0.0614 -0.0226 -0.1708
 1779POPC   GL221340   8.903   0.103  19.094 -0.1446 -0.2227 -0.1132
 1779POPC   C1A21341   9.312   0.035  18.967  0.0612 -0.0322  0.0162
 1779POPC   D2A21342   9.726   0.030  18.825 -0.0728 -0.0692 -0.1445
 1779POPC   C3A21343   9.848  -0.111  18.344  0.5234  0.1132 -0.1400
 1779POPC   C4A21344  10.006  -0.355  18.043  0.0900  0.1599 -0.0432
 1779POPC   C1B21345   8.847  -0.191  18.740  0.2739  0.3432 -0.0071
 1779POPC   C2B21346   8.937  -0.438  18.353 -0.1218 -0.1267 -0.0874
 1779POPC   C3B21347   9.048  -0.674  17.971 -0.0579  0.0778  0.1258
 1779POPC   C4B21348   9.080  -1.059  17.826 -0.2001  0.2433 -0.2124
 1780POPC   NC321349  12.238   5.267  18.763  0.1038  0.0599 -0.2085
 1780POPC   PO421350  12.404   5.636  18.706 -0.3209  0.0552 -0.1413
 1780POPC   GL121351  12.710   5.686  18.466 -0.3175 -0.0125  0.2560
 1780POPC   GL221352  12.988   5.627  18.646  0.1688  0.1069  0.2942
 1780POPC   C1A21353  12.895   5.708  18.001  0.5864  0.0977  0.2721
 1780POPC   D2A21354  13.262   5.852  17.790  0.1227  0.1187  0.1522
 1780POPC   C3A21355  13.227   6.293  17.824 -0.0045  0.0196  0.1131
 1780POPC   C4A21356  13.113   6.675  17.918 -0.3895 -0.1236 -0.0080
 1780POPC   C1B21357  13.194   5.874  18.320  0.1660 -0.3594 -0.0366
 1780POPC   C2B21358  13.635   5.863  18.096 -0.0557 -0.2241  0.0206
 1780POPC   C3B21359  13.756   5.836  17.683 -0.1608 -0.0929  0.0879
 1780POPC   C4B21360  14.101   5.891  17.390  0.2971 -0.0389  0.0058
 1781POPC   NC321361   5.357   2.160  19.160 -0.0606 -0.2321 -0.1473
 1781POPC   PO421362   5.188   1.834  19.117 -0.1389 -0.1464  0.0072
 1781POPC   GL121363   5.455   1.743  18.802 -0.3285  0.0733 -0.1025
 1781POPC   GL221364   5.459   1.514  18.696  0.3106 -0.1704 -0.0828
 1781POPC   C1A21365   5.914   1.668  18.709  0.0055  0.1126  0.2180
 1781POPC   D2A21366   6.172   1.356  18.600  0.3090 -0.0235  0.4026
 1781POPC   C3A21367   6.175   1.314  18.062  0.1565  0.0093 -0.3033
 1781POPC   C4A21368   6.427   1.054  17.763  0.2333 -0.2988  0.0434
 1781POPC   C1B21369   5.644   1.560  18.295  0.2855 -0.0434 -0.1430
 1781POPC   C2B21370   5.658   1.420  17.819 -0.2521 -0.3185 -0.1872
 1781POPC   C3B21371   6.034   1.238  17.539 -0.0071 -0.4706 -0.2885
 1781POPC   C4B21372   6.434   1.238  17.226  0.0521  0.0400 -0.3869
 1782POPC   NC321373   9.758  12.677  20.519  0.1676 -0.1926  0.1104
 1782POPC   PO421374   9.673  13.058  20.639  0.1641  0.0238 -0.1389
 1782POPC   GL121375   9.686  13.068  20.246  0.0495  0.3645 -0.0514
 1782POPC   GL221376   9.493  12.943  20.117  0.0344 -0.1087 -0.2160
 1782POPC   C1A21377   9.828  13.302  19.869  0.1975 -0.1254  0.1287
 1782POPC   D2A21378   9.802  13.590  19.490  0.2126  0.2144 -0.0459
 1782POPC   C3A21379  10.054  13.525  19.047  0.0930  0.3514 -0.4085
 1782POPC   C4A21380   9.893  13.573  18.589 -0.0980 -0.0132  0.0146
 1782POPC   C1B21381   9.442  12.895  19.622  0.1190 -0.1289 -0.1916
 1782POPC   C2B21382   9.453  12.768  19.155 -0.2051 -0.2314  0.2177
 1782POPC   C3B21383   9.664  12.728  18.715 -0.1892 -0.0959 -0.0491
 1782POPC   C4B21384   9.754  12.587  18.341 -0.0850 -0.2505 -0.2157
 1783POPC   NC321385   1.844   2.965  20.208 -0.2198  0.1647  0.2258
 1783POPC   PO421386   1.629   2.649  20.342 -0.4052  0.1449  0.0861
 1783POPC   GL121387   1.539   2.742  19.951 -0.1701  0.0987  0.4362
 1783POPC   GL221388   1.585   2.981  19.751  0.2824  0.0317 -0.0586
 1783POPC   C1A21389   1.673   2.458  19.587  0.1199  0.2766  0.1015
 1783POPC   D2A21390   1.842   2.303  19.192  0.0022  0.1552  0.1950
 1783POPC   C3A21391   2.178   2.564  18.977 -0.0607 -0.3133  0.0213
 1783POPC   C4A21392   2.584   2.620  18.709 -0.0414  0.0974  0.2385
 1783POPC   C1B21393   1.445   2.972  19.323 -0.1343  0.1747 -0.3633
 1783POPC   C2B21394   1.258   3.001  18.924 -0.1968 -0.1038 -0.0841
 1783POPC   C3B21395   1.095   2.757  18.575 -0.3335 -0.4226  0.0992
 1783POPC   C4B21396   0.851   2.508  18.328 -0.0271  0.0695 -0.1803
 1784POPC   NC321397  12.560   7.421  19.315 -0.1045 -0.2917  0.0762
 1784POPC   PO421398  12.546   7.771  19.482 -0.3112 -0.0476 -0.1879
 1784POPC   GL121399  12.754   7.800  19.097  0.0024  0.2988 -0.0729
 1784POPC   GL221400  12.942   8.083  19.183  0.0029  0.1489 -0.0338
 1784POPC   C1A21401  12.732   7.711  18.656 -0.2766  0.0025  0.1350
 1784POPC   D2A21402  12.814   7.502  18.224 -0.1721 -0.1815  0.2126
 1784POPC   C3A21403  12.761   7.191  17.981  0.2113 -0.2439  0.0363
 1784POPC   C4A21404  12.669   6.787  18.147 -0.0751  0.0163 -0.0288
 1784POPC   C1B21405  13.140   8.022  18.796 -0.0014 -0.0422  0.4637
 1784POPC   C2B21406  13.209   7.940  18.339  0.0600  0.0139 -0.0764
 1784POPC   C3B21407  13.381   8.000  17.949  0.0064 -0.0459 -0.2142
 1784POPC   C4B21408  13.774   8.146  17.808  0.2852  0.2888 -0.1862
 1785POPC   NC321409  14.428  11.280  20.758  0.1698  0.0844 -0.0547
 1785POPC   PO421410  14.813  11.291  20.663  0.0261  0.1872 -0.0262
 1785POPC   GL121411  14.804  11.164  20.328  0.1139 -0.2836  0.4056
 1785POPC   GL221412  14.632  11.363  20.150 -0.0860  0.0589  0.1050
 1785POPC   C1A21413  14.964  11.118  19.898  0.1757  0.1562  0.1639
 1785POPC   D2A21414  15.033  10.957  19.507 -0.1429 -0.2422  0.1725
 1785POPC   C3A21415  15.023  11.032  19.065  0.0201 -0.1173  0.0547
 1785POPC   C4A21416  15.395  10.858  19.008 -0.0672  0.2118 -0.2959
 1785POPC   C1B21417  14.307  11.526  19.834 -0.2470 -0.1379  0.1467
 1785POPC   C2B21418  14.344  11.621  19.356  0.0106  0.0959 -0.0275
 1785POPC   C3B21419  14.384  12.033  19.169 -0.1229  0.0061 -0.0432
 1785POPC   C4B21420  14.619  12.237  18.839 -0.0392  0.2030 -0.1460
 1786POPC   NC321421   6.213   6.127  17.826  0.0795  0.1306 -0.0299
 1786POPC   PO421422   5.895   5.947  17.840 -0.2656  0.3170 -0.3637
 1786POPC   GL121423   5.702   6.174  17.641 -0.3942 -0.2058 -0.0448
 1786POPC   GL221424   5.775   6.103  17.279 -0.1953  0.1431 -0.3759
 1786POPC   C1A21425   5.511   6.616  17.653 -0.3594 -0.0676  0.2119
 1786POPC   D2A21426   5.387   7.096  17.718  0.2338 -0.0375 -0.1038
 1786POPC   C3A21427   5.258   7.175  17.279  0.1196 -0.0158  0.0238
 1786POPC   C4A21428   5.122   7.156  16.826 -0.2711 -0.0603 -0.0795
 1786POPC   C1B21429   5.775   6.211  16.812  0.0249  0.2221 -0.1276
 1786POPC   C2B21430   5.386   6.268  16.539  0.0325  0.0209 -0.2848
 1786POPC   C3B21431   4.975   6.275  16.766 -0.4179  0.2259 -0.0705
 1786POPC   C4B21432   4.579   6.102  16.865  0.1448  0.2535  0.2012
 1787POPC   NC321433  16.774   3.294  20.018 -0.1306 -0.3084  0.0084
 1787POPC   PO421434  16.499   3.572  19.878  0.1568  0.1147  0.1427
 1787POPC   GL121435  16.637   3.732  19.611 -0.2357 -0.3784  0.0558
 1787POPC   GL221436  16.936   3.657  19.524 -0.1094 -0.1440  0.1924
 1787POPC   C1A21437  16.455   3.697  19.177  0.0521  0.0417 -0.1790
 1787POPC   D2A21438  16.397   3.622  18.742  0.2001 -0.1620  0.3446
 1787POPC   C3A21439  16.502   4.007  18.477  0.2799 -0.0045  0.0569
 1787POPC   C4A21440  16.626   4.352  18.187 -0.4516 -0.2786  0.1333
 1787POPC   C1B21441  16.964   3.589  19.073 -0.3291 -0.0343  0.3116
 1787POPC   C2B21442  16.934   3.634  18.648 -0.0917  0.1404 -0.0778
 1787POPC   C3B21443  16.887   3.745  18.280 -0.2387 -0.0539  0.2706
 1787POPC   C4B21444  16.770   3.986  17.901 -0.0122  0.1832 -0.0841
 1788POPC   NC321445  11.048  10.756  20.127 -0.0206  0.2393  0.0535
 1788POPC   PO421446  11.380  10.682  19.891  0.2883  0.1659 -0.3603
 1788POPC   GL121447  11.401  10.820  19.482  0.1673  0.0901  0.1370
 1788POPC   GL221448  11.717  10.836  19.435  0.4887 -0.3835 -0.4752
 1788POPC   C1A21449  11.512  10.859  19.021  0.0833 -0.1527  0.0943
 1788POPC   D2A21450  11.476  10.956  18.615  0.1584 -0.0812  0.4107
 1788POPC   C3A21451  11.407  11.400  18.452 -0.1601  0.1717  0.0724
 1788POPC   C4A21452  11.318  11.800  18.300  0.0177  0.0012 -0.2662
 1788POPC   C1B21453  11.659  11.261  19.239 -0.0821  0.0817 -0.2489
 1788POPC   C2B21454  11.732  11.553  18.887 -0.0137 -0.1842 -0.0921
 1788POPC   C3B21455  11.744  11.913  18.605  0.1555 -0.3033  0.3448
 1788POPC   C4B21456  11.704  12.209  18.286 -0.3208  0.0606  0.3285
 1789POPC   NC321457  10.962   1.769  18.862  0.3250  0.0544 -0.1023
 1789POPC   PO421458  11.282   1.711  18.677  0.0332  0.0485  0.1504
 1789POPC   GL121459  11.032   1.414  18.491 -0.1472  0.1301 -0.1118
 1789POPC   GL221460  11.309   1.170  18.470  0.2271  0.1484 -0.0793
 1789POPC   C1A21461  10.878   1.518  18.054  0.1677  0.0936 -0.1165
 1789POPC   D2A21462  10.606   1.430  17.667  0.1173 -0.0121  0.0116
 1789POPC   C3A21463  10.640   1.072  17.373  0.0361 -0.0717  0.2327
 1789POPC   C4A21464  10.868   0.886  17.054  0.2072  0.2662 -0.1528
 1789POPC   C1B21465  11.353   1.191  17.990 -0.0375 -0.0684  0.1245
 1789POPC   C2B21466  11.188   1.123  17.535 -0.1610 -0.1094 -0.1187
 1789POPC   C3B21467  10.957   1.392  17.213 -0.2258 -0.0468 -0.0276
 1789POPC   C4B21468  10.604   1.335  16.854  0.2582  0.1796 -0.0386
 1790POPC   NC321469   4.913   2.613  19.418  0.2661 -0.1689  0.4296
 1790POPC   PO421470   5.020   3.001  19.457 -0.0109  0.0346  0.1866
 1790POPC   GL121471   4.790   2.963  19.116 -0.2026  0.2480  0.0921
 1790POPC   GL221472   4.540   3.089  19.052 -0.0690  0.2930  0.1364
 1790POPC   C1A21473   4.705   2.937  18.611 -0.0094  0.1522  0.2825
 1790POPC   D2A21474   4.414   2.873  18.292  0.0073  0.0131  0.0830
 1790POPC   C3A21475   4.211   2.939  17.848  0.0006 -0.1130 -0.0110
 1790POPC   C4A21476   3.879   2.989  17.536 -0.0258 -0.0865  0.0407
 1790POPC   C1B21477   4.305   3.233  18.628  0.3951 -0.3728  0.0750
 1790POPC   C2B21478   3.975   3.208  18.244  0.3216  0.1221  0.0562
 1790POPC   C3B21479   3.617   3.064  17.962 -0.0448  0.2816  0.0335
 1790POPC   C4B21480   3.374   3.142  17.561 -0.1093  0.0771  0.1173
 1791POPC   NC321481   0.343   7.439  20.223  0.0895 -0.1173 -0.0636
 1791POPC   PO421482   0.579   7.761  20.286  0.0598 -0.2007 -0.1254
 1791POPC   GL121483   0.482   7.780  19.902  0.1166 -0.0111  0.0145
 1791POPC   GL221484   0.518   7.603  19.698 -0.0587 -0.0936 -0.0924
 1791POPC   C1A21485   0.340   8.097  19.575  0.3053  0.2801 -0.3052
 1791POPC   D2A21486   0.226   8.477  19.286 -0.1169  0.1808  0.0049
 1791POPC   C3A21487   0.174   8.717  18.892  0.2022 -0.1473  0.2096
 1791POPC   C4A21488   0.074   8.875  18.410 -0.2476  0.1909  0.3673
 1791POPC   C1B21489   0.744   7.749  19.276  0.0357  0.0455  0.1007
 1791POPC   C2B21490   0.655   7.713  18.846  0.0461  0.3314  0.1130
 1791POPC   C3B21491   0.410   8.000  18.557  0.0905 -0.0116 -0.4607
 1791POPC   C4B21492   0.130   8.330  18.417  0.0448  0.0857  0.3822
 1792POPC   NC321493   9.395   6.035  12.863 -0.0890  0.0518  0.0069
 1792POPC   PO421494   9.172   6.332  12.709  0.1552  0.3127  0.2737
 1792POPC   GL121495   8.932   6.497  12.473 -0.0314  0.3416  0.0554
 1792POPC   GL221496   8.694   6.233  12.430 -0.1343  0.1200 -0.0902
 1792POPC   C1A21497   8.519   6.675  12.550  0.2902  0.0322 -0.0207
 1792POPC   D2A21498   8.426   7.028  12.828  0.0972 -0.1078 -0.0846
 1792POPC   C3A21499   8.528   7.480  13.023 -0.0805  0.0266  0.0876
 1792POPC   C4A21500   8.438   7.931  12.936  0.0023  0.3905 -0.0964
 1792POPC   C1B21501   8.346   5.922  12.404  0.2536  0.1089 -0.2427
 1792POPC   C2B21502   7.898   5.797  12.566  0.0159 -0.1676 -0.1867
 1792POPC   C3B21503   7.643   5.412  12.429 -0.1260  0.2370  0.0953
 1792POPC   C4B21504   7.267   5.211  12.568  0.0229 -0.1190 -0.0528
 1793POPS   CNO21505  16.207   6.743   9.760  0.0055  0.1357  0.0484
 1793POPS   PO421506  15.936   6.539   9.918 -0.0727 -0.1474 -0.0845
 1793POPS   GL121507  15.575   6.647   9.632 -0.1143  0.1636 -0.0262
 1793POPS   GL221508  15.635   6.369   9.569  0.2069  0.0112 -0.2812
 1793POPS   C1A21509  15.350   6.750   9.214 -0.0859  0.0048  0.4331
 1793POPS   D2A21510  15.116   6.924   8.844 -0.0931 -0.0117  0.0186
 1793POPS   C3A21511  14.946   6.508   8.665  0.0461 -0.0488  0.3081
 1793POPS   C4A21512  15.173   6.135   8.553 -0.0091 -0.1184  0.6196
 1793POPS   C1B21513  15.669   6.380   9.091  0.1686 -0.0131 -0.2214
 1793POPS   C2B21514  15.482   6.497   8.669 -0.0755 -0.1398 -0.0916
 1793POPS   C3B21515  15.397   6.451   8.195 -0.0211  0.0265 -0.3484
 1793POPS   C4B21516  15.275   6.387   7.725 -0.2184  0.0296  0.1821
 1794POPS   CNO21517  12.734  14.587   8.708 -0.0863 -0.2446 -0.0829
 1794POPS   PO421518  12.913  14.828   8.494 -0.0750  0.1651  0.0684
 1794POPS   GL121519  12.760  14.759   8.090  0.2790  0.1413 -0.1466
 1794POPS   GL221520  12.660  14.987   8.016 -0.0872 -0.1610  0.0506
 1794POPS   C1A21521  12.506  14.551   7.737  0.1240  0.0826 -0.0080
 1794POPS   D2A21522  12.196  14.363   7.404 -0.1187  0.3569 -0.1349
 1794POPS   C3A21523  12.418  14.385   7.031  0.1014 -0.1953  0.2062
 1794POPS   C4A21524  12.703  14.233   6.731  0.0533  0.3765 -0.3298
 1794POPS   C1B21525  12.522  15.241   7.643  0.2517  0.1880  0.5018
 1794POPS   C2B21526  12.721  15.305   7.207 -0.5309  0.2619  0.0299
 1794POPS   C3B21527  12.862  15.037   6.885  0.2048  0.1758 -0.1085
 1794POPS   C4B21528  12.918  14.603   6.917  0.1572 -0.3114  0.1055
 1795POPS   CNO21529   5.721   2.717  10.610  0.0727 -0.0065 -0.3544
 1795POPS   PO421530   5.978   2.958  10.748  0.0896 -0.2353  0.1955
 1795POPS   GL121531   6.285   3.158  10.544 -0.0547 -0.1338  0.0601
 1795POPS   GL221532   6.360   3.330  10.780  0.1837  0.1153 -0.1455
 1795POPS   C1A21533   6.501   3.176  10.164  0.2623 -0.0857  0.1240
 1795POPS   D2A21534   6.841   3.480  10.100 -0.0112 -0.1066 -0.2525
 1795POPS   C3A21535   6.902   3.752   9.795 -0.1714  0.0493 -0.2873
 1795POPS   C4A21536   6.933   3.749   9.342 -0.0164  0.1708  0.2618
 1795POPS   C1B21537   6.322   3.645  10.402 -0.1270 -0.0329  0.1070
 1795POPS   C2B21538   6.570   3.989  10.208 -0.1569 -0.0717  0.0648
 1795POPS   C3B21539   7.058   4.115  10.162  0.1263  0.2218 -0.1421
 1795POPS   C4B21540   7.399   3.763  10.019 -0.2514  0.1346 -0.1427
 1796POPS   CNO21541   0.377   9.410   9.418  0.0291 -0.1744  0.3038
 1796POPS   PO421542   0.769   9.434   9.420 -0.0301  0.7914 -0.1872
 1796POPS   GL121543   0.691   9.523   9.038  0.1870 -0.1433 -0.0254
 1796POPS   GL221544   0.416   9.463   8.907  0.1294 -0.3292 -0.3272
 1796POPS   C1A21545   0.828   9.384   8.621 -0.1852  0.0669  0.0922
 1796POPS   D2A21546   0.767   9.351   8.169  0.2202  0.2590  0.0084
 1796POPS   C3A21547   0.999   8.986   7.989  0.3084  0.0936  0.2497
 1796POPS   C4A21548   1.074   8.645   7.722  0.0472  0.2046  0.1777
 1796POPS   C1B21549   0.468   9.088   8.521 -0.0009 -0.2944 -0.4102
 1796POPS   C2B21550   0.443   8.968   8.139  0.3797 -0.0324 -0.0589
 1796POPS   C3B21551   0.526   8.777   7.746  0.1149  0.0550 -0.1447
 1796POPS   C4B21552   0.729   8.682   7.353 -0.1575 -0.0037  0.0023
 1797POPS   CNO21553  17.478  13.886   8.470  0.3034  0.0766 -0.1576
 1797POPS   PO421554  17.200  13.681   8.301 -0.1104  0.0457  0.1784
 1797POPS   GL121555  17.074  13.588   7.922 -0.0846 -0.1124  0.2123
 1797POPS   GL221556  17.063  13.849   7.751  0.2572  0.0613  0.0258
 1797POPS   C1A21557  17.241  13.434   7.501  0.2165  0.2204  0.1999
 1797POPS   D2A21558  17.385  13.455   7.069  0.0880 -0.3037 -0.0186
 1797POPS   C3A21559  17.538  13.578   6.621 -0.2449 -0.1160  0.0880
 1797POPS   C4A21560  17.382  13.674   6.211  0.1526 -0.0253  0.2140
 1797POPS   C1B21561  17.394  13.921   7.492 -0.2733  0.1550 -0.0046
 1797POPS   C2B21562  17.500  14.022   7.104 -0.0823  0.0112 -0.2303
 1797POPS   C3B21563  17.598  14.108   6.643 -0.4562  0.3229 -0.0932
 1797POPS   C4B21564  17.779  14.029   6.189  0.2336 -0.1655 -0.2912
 1798POPS   CNO21565  15.621  14.914   8.298 -0.2847 -0.1584  0.1027
 1798POPS   PO421566  15.246  14.816   8.337  0.1088 -0.1367  0.0501
 1798POPS   GL121567  15.349  14.657   7.928 -0.0944 -0.0111 -0.2274
 1798POPS   GL221568  15.048  14.569   7.942  0.1646 -0.0691 -0.0501
 1798POPS   C1A21569  15.586  14.417   7.551 -0.0888 -0.1158 -0.2082
 1798POPS   D2A21570  15.961  14.409   7.259  0.0653 -0.1688  0.1587
 1798POPS   C3A21571  15.905  14.253   6.827 -0.1276  0.0776  0.0823
 1798POPS   C4A21572  15.862  13.861   6.524  0.0987  0.1075 -0.3232
 1798POPS   C1B21573  15.010  14.365   7.521  0.0125 -0.1415  0.1247
 1798POPS   C2B21574  14.789  14.463   7.105 -0.1209 -0.1230  0.1854
 1798POPS   C3B21575  14.724  14.383   6.630 -0.1347  0.1246  0.1324
 1798POPS   C4B21576  14.865  14.276   6.156 -0.0498 -0.0266 -0.1174
 1799POPS   CNO21577   6.881  15.480   8.562  0.1042  0.2079  0.2586
 1799POPS   PO421578   6.644  15.747   8.692  0.1101 -0.1884 -0.0308
 1799POPS   GL121579   6.541  16.019   8.442  0.4083 -0.0882 -0.1023
 1799POPS   GL221580   6.664  15.905   8.188 -0.2287 -0.0582  0.0380
 1799POPS   C1A21581   6.195  16.049   8.128 -0.0708 -0.0316  0.2750
 1799POPS   D2A21582   5.857  16.079   7.847 -0.2467 -0.3550 -0.0033
 1799POPS   C3A21583   5.958  15.889   7.449 -0.0691 -0.2809 -0.1622
 1799POPS   C4A21584   6.227  15.705   7.204 -0.4438  0.3377  0.2139
 1799POPS   C1B21585   6.560  16.385   8.153  0.2606  0.1363  0.0423
 1799POPS   C2B21586   6.583  16.815   7.972 -0.1827  0.1041 -0.0989
 1799POPS   C3B21587   6.594  17.194   7.661  0.2126 -0.1241  0.0928
 1799POPS   C4B21588   6.808  17.417   7.318 -0.0798 -0.0835 -0.2798
 1800POPS   CNO21589  14.218   1.937  14.060 -0.2549  0.1060  0.1889
 1800POPS   PO421590  13.878   2.059  14.004 -0.0473 -0.5722 -0.0533
 1800POPS   GL121591  13.592   2.137  14.318  0.2454  0.0103  0.2483
 1800POPS   GL221592  13.539   2.325  14.448  0.1208 -0.1467  0.0181
 1800POPS   C1A21593  13.101   2.076  14.294 -0.1136  0.0473 -0.0886
 1800POPS   D2A21594  12.732   2.270  14.455  0.0499 -0.0695 -0.2241
 1800POPS   C3A21595  12.620   2.714  14.631  0.1448  0.2596 -0.1879
 1800POPS   C4A21596  12.475   2.917  15.006  0.0521 -0.2693  0.2604
 1800POPS   C1B21597  13.509   2.580  14.804  0.2982  0.3466  0.0155
 1800POPS   C2B21598  13.292   2.687  15.212 -0.0843 -0.0447  0.0603
 1800POPS   C3B21599  13.129   2.624  15.646  0.2540 -0.0346 -0.4204
 1800POPS   C4B21600  12.940   2.594  16.054  0.2983  0.2706  0.0356
 1801POPS   CNO21601   5.198   7.982  11.062  0.2639 -0.0947  0.0238
 1801POPS   PO421602   5.353   8.290  10.894  0.0047 -0.1403  0.1917
 1801POPS   GL121603   5.682   8.050  10.971  0.1838  0.0643  0.0029
 1801POPS   GL221604   5.641   7.926  10.756  0.0384 -0.0681  0.1645
 1801POPS   C1A21605   6.118   8.079  10.889 -0.2671  0.1727 -0.0938
 1801POPS   D2A21606   6.563   8.194  10.926  0.2205 -0.1718  0.1817
 1801POPS   C3A21607   6.670   8.308  10.460  0.1179  0.1935 -0.1142
 1801POPS   C4A21608   6.965   8.563  10.191 -0.0057 -0.4665  0.0781
 1801POPS   C1B21609   5.521   7.624  10.437  0.1744 -0.2328 -0.0796
 1801POPS   C2B21610   5.830   7.481  10.112 -0.0328 -0.1992 -0.2242
 1801POPS   C3B21611   6.020   7.157   9.943 -0.0368  0.0644 -0.4701
 1801POPS   C4B21612   6.403   6.815   9.886  0.1362 -0.0662 -0.0558
 1802POPS   CNO21613   5.666   9.368  10.504 -0.1164 -0.2040 -0.0384
 1802POPS   PO421614   5.702   9.646  10.250 -0.0641 -0.2942  0.0302
 1802POPS   GL121615   5.917   9.578   9.976  0.0745 -0.2731  0.2011
 1802POPS   GL221616   5.967   9.247  10.094 -0.0370 -0.0352  0.2866
 1802POPS   C1A21617   6.253   9.782   9.690  0.3110  0.1433  0.1056
 1802POPS   D2A21618   6.696   9.918   9.855 -0.1204 -0.0521 -0.0942
 1802POPS   C3A21619   6.954   9.806   9.513 -0.0517  0.2332 -0.0216
 1802POPS   C4A21620   7.243   9.810   9.157  0.1585  0.2343 -0.1926
 1802POPS   C1B21621   6.072   8.951   9.755 -0.1653 -0.2211 -0.1977
 1802POPS   C2B21622   6.216   8.603   9.477 -0.1330 -0.2941  0.1185
 1802POPS   C3B21623   6.522   8.453   9.172 -0.3467 -0.0833  0.2718
 1802POPS   C4B21624   6.774   8.216   8.879 -0.2595 -0.0098  0.1482
 1803POPS   CNO21625   7.745   1.397  11.710 -0.3029  0.2912  0.1022
 1803POPS   PO421626   8.106   1.583  11.703 -0.1116 -0.1136 -0.0263
 1803POPS   GL121627   8.425   1.761  11.559  0.1263 -0.5856 -0.1215
 1803POPS   GL221628   8.245   1.974  11.454 -0.0477 -0.0640  0.0623
 1803POPS   C1A21629   8.656   2.059  11.841 -0.0776 -0.0601 -0.1804
 1803POPS   D2A21630   8.909   2.425  11.883  0.0094  0.0774  0.0584
 1803POPS   C3A21631   9.013   2.720  12.244  0.3416  0.0699 -0.1966
 1803POPS   C4A21632   9.085   3.149  12.341 -0.1335 -0.0267  0.0254
 1803POPS   C1B21633   8.490   2.289  11.223 -0.2899  0.3410 -0.0563
 1803POPS   C2B21634   8.771   2.609  11.005 -0.0023 -0.0754 -0.0591
 1803POPS   C3B21635   8.881   2.988  10.787 -0.1619 -0.2892  0.2003
 1803POPS   C4B21636   9.241   3.268  10.641 -0.2453  0.0226 -0.2492
 1804POPS   CNO21637   0.114  11.137   8.909  0.1005 -0.1550  0.3260
 1804POPS   PO421638   0.280  11.127   8.573 -0.2768  0.1289  0.0781
 1804POPS   GL121639   0.056  11.206   8.206  0.1919  0.0352 -0.2416
 1804POPS   GL221640   0.320  11.286   8.060  0.0260  0.0671 -0.0010
 1804POPS   C1A21641  -0.104  11.548   7.946  0.0033 -0.1573 -0.4056
 1804POPS   D2A21642  -0.236  11.489   7.509  0.5661  0.1650 -0.3431
 1804POPS   C3A21643  -0.189  11.327   7.071 -0.1421  0.0481 -0.0172
 1804POPS   C4A21644  -0.144  11.072   6.682 -0.0154  0.2515 -0.3475
 1804POPS   C1B21645   0.306  11.332   7.604  0.1150 -0.3576  0.1245
 1804POPS   C2B21646   0.268  11.183   7.170  0.0417  0.2588 -0.2079
 1804POPS   C3B21647   0.281  10.843   6.834  0.1036  0.2790  0.1110
 1804POPS   C4B21648   0.128  10.704   6.420 -0.3996 -0.3116  0.2760
 1805POPS   CNO21649   1.031  13.724   8.430  0.0352  0.0832 -0.1049
 1805POPS   PO421650   0.785  14.028   8.288 -0.0435  0.0695  0.1013
 1805POPS   GL121651   0.646  14.096   7.905  0.1995 -0.2368  0.1799
 1805POPS   GL221652   0.521  14.331   7.766 -0.2882 -0.1170  0.0998
 1805POPS   C1A21653   0.628  13.986   7.447  0.0779 -0.0271  0.1341
 1805POPS   D2A21654   0.620  13.988   6.975  0.2362 -0.0473  0.0437
 1805POPS   C3A21655   0.250  14.205   6.696 -0.0573 -0.0421 -0.0337
 1805POPS   C4A21656   0.028  14.290   6.311 -0.0118 -0.0578  0.0606
 1805POPS   C1B21657   0.578  14.461   7.317 -0.2541  0.2079 -0.0887
 1805POPS   C2B21658   0.592  14.530   6.869  0.3160 -0.1418 -0.0282
 1805POPS   C3B21659   0.282  14.721   6.539 -0.1756 -0.0681 -0.1059
 1805POPS   C4B21660   0.141  14.691   6.040 -0.2635  0.2806 -0.0789
 1806POPS   CNO21661  14.268   3.067  11.244 -0.2547  0.3156  0.0416
 1806POPS   PO421662  14.078   3.352  11.388 -0.3492  0.0223  0.1875
 1806POPS   GL121663  13.726   3.471  11.309  0.4501  0.0310 -0.0055
 1806POPS   GL221664  13.467   3.381  11.264  0.0458 -0.3218  0.0826
 1806POPS   C1A21665  13.555   3.890  11.339 -0.0015  0.1166 -0.3801
 1806POPS   D2A21666  13.217   4.084  11.183  0.4640  0.1865 -0.0454
 1806POPS   C3A21667  12.760   4.229  11.228 -0.0012  0.1397  0.0558
 1806POPS   C4A21668  12.302   4.216  11.212  0.1662 -0.1908  0.1512
 1806POPS   C1B21669  13.085   3.689  11.406  0.0088 -0.1177  0.1375
 1806POPS   C2B21670  12.662   3.782  11.520  0.2398  0.0730  0.0394
 1806POPS   C3B21671  12.225   3.776  11.553 -0.2521 -0.0911  0.1725
 1806POPS   C4B21672  11.998   3.572  11.862  0.0051  0.0670 -0.2020
 1807POPS   CNO21673   4.371   3.857  10.047 -0.1134 -0.3721  0.0399
 1807POPS   PO421674   4.705   3.693   9.992 -0.0889  0.2361 -0.1113
 1807POPS   GL121675   4.985   3.876   9.773  0.0923 -0.2354  0.1718
 1807POPS   GL221676   5.157   4.099   9.695 -0.3106 -0.1713  0.0090
 1807POPS   C1A21677   4.875   3.877   9.322 -0.0512 -0.1127  0.0152
 1807POPS   D2A21678   4.725   3.782   8.883 -0.0477  0.2137 -0.1204
 1807POPS   C3A21679   5.043   3.975   8.583 -0.4388  0.1078  0.1618
 1807POPS   C4A21680   5.284   4.120   8.225 -0.0143  0.0692 -0.2169
 1807POPS   C1B21681   5.352   3.787   9.373 -0.0948  0.0576  0.3328
 1807POPS   C2B21682   5.350   3.632   8.949  0.1080 -0.2198  0.1227
 1807POPS   C3B21683   5.423   3.306   8.589  0.0299  0.2284 -0.0308
 1807POPS   C4B21684   5.614   3.209   8.141  0.2890  0.3236 -0.2431
 1808POPS   CNO21685  14.123   6.132  11.631  0.3074 -0.1031 -0.3927
 1808POPS   PO421686  14.396   5.931  11.422  0.1730 -0.0601 -0.0455
 1808POPS   GL121687  14.102   5.866  11.232 -0.3268  0.0857  0.1236
 1808POPS   GL221688  13.963   5.681  11.391 -0.1860  0.0668 -0.1323
 1808POPS   C1A21689  13.782   5.875  10.903 -0.0408  0.1609  0.2456
 1808POPS   D2A21690  13.366   5.728  10.702 -0.0574 -0.4252  0.3751
 1808POPS   C3A21691  13.285   5.909  10.298  0.2617  0.0616 -0.0027
 1808POPS   C4A21692  13.012   5.839   9.959  0.3210 -0.0519  0.1677
 1808POPS   C1B21693  13.637   5.737  11.686  0.2019  0.1223  0.2710
 1808POPS   C2B21694  13.195   5.579  11.608 -0.1046 -0.0603 -0.3801
 1808POPS   C3B21695  12.782   5.627  11.358  0.1561 -0.3605 -0.0687
 1808POPS   C4B21696  12.669   5.790  10.908  0.0214 -0.2425 -0.0378
 1809POPS   CNO21697  12.331  12.284   9.058  0.0610  0.0209 -0.0010
 1809POPS   PO421698  12.594  12.033   9.121 -0.0384  0.0464 -0.0060
 1809POPS   GL121699  12.563  12.107   8.696 -0.0091 -0.0663 -0.1340
 1809POPS   GL221700  12.346  11.956   8.654  0.3397  0.0064  0.1594
 1809POPS   C1A21701  12.967  12.097   8.449 -0.2566  0.1969 -0.2199
 1809POPS   D2A21702  13.126  11.974   8.012 -0.3080 -0.3395  0.2265
 1809POPS   C3A21703  12.860  11.960   7.544  0.0124  0.1827  0.2790
 1809POPS   C4A21704  12.595  11.939   7.119 -0.3787 -0.0703 -0.0926
 1809POPS   C1B21705  12.484  11.556   8.536  0.2029 -0.2628  0.3413
 1809POPS   C2B21706  12.600  11.295   8.262  0.0328  0.1047  0.0931
 1809POPS   C3B21707  12.384  10.885   8.123 -0.0274 -0.3382  0.1571
 1809POPS   C4B21708  11.982  10.643   8.017 -0.0586 -0.0617 -0.0861
 1810POPS   CNO21709   4.701   8.668  10.468 -0.1077 -0.0850  0.0792
 1810POPS   PO421710   4.409   8.669  10.178  0.0503  0.3931 -0.1400
 1810POPS   GL121711   4.789   8.673   9.981 -0.2277 -0.0487 -0.2265
 1810POPS   GL221712   5.026   8.583  10.024  0.0220 -0.1158  0.1416
 1810POPS   C1A21713   4.801   8.570   9.576 -0.0421  0.3658 -0.2511
 1810POPS   D2A21714   5.025   8.653   9.208  0.1827  0.2003  0.0983
 1810POPS   C3A21715   5.121   8.552   8.782 -0.1563  0.2823 -0.0702
 1810POPS   C4A21716   5.178   8.312   8.423  0.2178 -0.2312 -0.1038
 1810POPS   C1B21717   5.313   8.493   9.644  0.3638 -0.0867 -0.1559
 1810POPS   C2B21718   5.485   8.388   9.233 -0.0994 -0.2363 -0.2730
 1810POPS   C3B21719   5.822   8.332   8.922 -0.1115 -0.1530 -0.2138
 1810POPS   C4B21720   6.250   8.527   8.739  0.1383  0.0391 -0.0445
 1811POPS   CNO21721   8.548  31.894   9.709 -0.3358 -0.0108 -0.0263
 1811POPS   PO421722   8.762  31.880   9.394 -0.0017  0.1308  0.4381
 1811POPS   GL121723   8.802  32.154   9.102 -0.2516 -0.4682  0.1380
 1811POPS   GL221724   9.000  32.268   9.106  0.1188 -0.2169 -0.0792
 1811POPS   C1A21725   8.881  32.183   8.613 -0.0069  0.0830  0.0276
 1811POPS   D2A21726   9.090  32.040   8.255 -0.1230  0.2491 -0.0295
 1811POPS   C3A21727   9.184  31.909   7.857 -0.0194  0.0012 -0.1838
 1811POPS   C4A21728   9.359  31.970   7.418 -0.2701  0.0751 -0.2654
 1811POPS   C1B21729   8.961  32.674   8.904  0.3138 -0.0011  0.1878
 1811POPS   C2B21730   9.087  32.799   8.467 -0.2114 -0.0020  0.0735
 1811POPS   C3B21731   9.166  33.138   8.130 -0.3648 -0.0309 -0.3617
 1811POPS   C4B21732   9.048  33.350   7.746 -0.0886 -0.0810 -0.1701
 1812POPS   CNO21733  14.216   1.644   9.543 -0.1955  0.1303  0.1518
 1812POPS   PO421734  14.213   2.001   9.536 -0.0509  0.0215 -0.1566
 1812POPS   GL121735  14.281   2.238   9.193  0.0920 -0.1140  0.1537
 1812POPS   GL221736  14.404   2.493   9.111  0.0411 -0.0214 -0.2232
 1812POPS   C1A21737  14.320   1.999   8.787  0.3220  0.1237 -0.0931
 1812POPS   D2A21738  14.340   2.008   8.295  0.1521  0.1423  0.0210
 1812POPS   C3A21739  14.051   1.993   7.894 -0.0011 -0.1165 -0.3051
 1812POPS   C4A21740  13.807   2.216   7.663  0.3302  0.1765 -0.1495
 1812POPS   C1B21741  14.241   2.565   8.763 -0.0518 -0.0423 -0.0065
 1812POPS   C2B21742  14.137   2.758   8.431 -0.0170  0.2741  0.1717
 1812POPS   C3B21743  14.207   3.132   8.159  0.1159  0.0431  0.2058
 1812POPS   C4B21744  14.204   3.485   7.876  0.0554 -0.0716 -0.0801
 1813POPS   CNO21745  12.323  13.497   8.821 -0.1660 -0.0183  0.0039
 1813POPS   PO421746  12.664  13.423   8.917 -0.2219 -0.1587  0.1244
 1813POPS   GL121747  12.594  13.363   8.451  0.1546  0.3285  0.0287
 1813POPS   GL221748  12.848  13.300   8.355 -0.1716 -0.0865 -0.1296
 1813POPS   C1A21749  12.466  13.010   8.122  0.0080 -0.0061 -0.2252
 1813POPS   D2A21750  12.229  13.035   7.763 -0.1491  0.0183  0.2221
 1813POPS   C3A21751  12.327  13.211   7.373  0.1472 -0.0983  0.1181
 1813POPS   C4A21752  12.461  13.156   6.943 -0.2335  0.3502  0.0660
 1813POPS   C1B21753  12.819  13.202   7.879  0.0236 -0.0516  0.1833
 1813POPS   C2B21754  12.686  12.829   7.690 -0.2025 -0.0649 -0.0989
 1813POPS   C3B21755  12.449  12.706   7.346  0.0196 -0.0265  0.0101
 1813POPS   C4B21756  12.524  12.508   6.905  0.3653  0.3590  0.0361
 1814POPS   CNO21757   1.362   3.325   9.480  0.0017 -0.1008 -0.0376
 1814POPS   PO421758   1.588   3.285   9.188  0.0852  0.1189  0.0916
 1814POPS   GL121759   1.477   3.431   8.821 -0.1416 -0.1608  0.1542
 1814POPS   GL221760   1.204   3.387   8.762 -0.0311 -0.1008 -0.1755
 1814POPS   C1A21761   1.492   3.256   8.359  0.3855 -0.2737 -0.1185
 1814POPS   D2A21762   1.566   3.259   7.930  0.1798 -0.2620  0.1852
 1814POPS   C3A21763   1.861   3.500   7.667 -0.2185  0.0858  0.0715
 1814POPS   C4A21764   1.661   3.642   7.289 -0.1418  0.5209 -0.3066
 1814POPS   C1B21765   1.233   3.741   8.464  0.4883 -0.3353  0.1662
 1814POPS   C2B21766   1.033   3.997   8.124 -0.0433  0.2512 -0.1034
 1814POPS   C3B21767   1.086   4.304   7.821 -0.3716  0.0210 -0.0524
 1814POPS   C4B21768   1.249   4.507   7.476 -0.1733  0.4778  0.0512
 1815POPS   CNO21769   4.989   3.701  12.601 -0.0005  0.2071 -0.1616
 1815POPS   PO421770   5.260   3.924  12.551  0.1150 -0.0698  0.2609
 1815POPS   GL121771   5.566   4.128  12.786  0.3098 -0.0532 -0.2282
 1815POPS   GL221772   5.508   4.294  13.044 -0.0250  0.1909  0.4987
 1815POPS   C1A21773   5.994   4.063  12.996 -0.0832 -0.0273  0.2579
 1815POPS   D2A21774   6.426   4.208  13.002  0.3241 -0.1218 -0.2310
 1815POPS   C3A21775   6.818   4.343  13.101 -0.0254  0.1030 -0.0889
 1815POPS   C4A21776   7.128   4.655  13.322  0.0816 -0.1016  0.0468
 1815POPS   C1B21777   5.889   4.562  12.973 -0.1653  0.2961 -0.0924
 1815POPS   C2B21778   6.319   4.671  13.128 -0.0175  0.1620 -0.3206
 1815POPS   C3B21779   6.672   4.961  13.214 -0.2307  0.0447 -0.4072
 1815POPS   C4B21780   6.956   5.190  13.518  0.0726 -0.1908 -0.0268
 1816POPS   CNO21781  12.260  12.419   9.603 -0.0809  0.1010  0.0369
 1816POPS   PO421782  12.043  12.059   9.572 -0.0161  0.0975 -0.0679
 1816POPS   GL121783  12.199  11.734   9.379  0.1920 -0.1159 -0.1372
 1816POPS   GL221784  12.109  11.791   9.150  0.0268 -0.0399  0.0361
 1816POPS   C1A21785  12.337  11.347   9.119  0.2566  0.2285  0.0082
 1816POPS   D2A21786  12.703  11.235   8.838 -0.0515 -0.1876  0.0340
 1816POPS   C3A21787  12.583  10.922   8.602  0.1552  0.2159  0.2520
 1816POPS   C4A21788  12.811  10.577   8.279 -0.2699  0.0452  0.1734
 1816POPS   C1B21789  11.804  11.669   8.801 -0.1078  0.2755  0.0228
 1816POPS   C2B21790  11.722  11.805   8.395  0.0977 -0.1520 -0.0487
 1816POPS   C3B21791  11.670  11.845   7.948  0.1911 -0.2746 -0.0353
 1816POPS   C4B21792  11.326  11.919   7.660  0.1187  0.1170  0.1653
 1817POPS   CNO21793   0.087  16.121   8.274 -0.2167 -0.0151 -0.0126
 1817POPS   PO421794   0.202  15.804   8.122 -0.1627  0.0413 -0.1780
 1817POPS   GL121795   0.136  16.051   7.790  0.1235 -0.0596 -0.1201
 1817POPS   GL221796   0.236  15.844   7.572  0.2296  0.1686 -0.1797
 1817POPS   C1A21797   0.239  16.359   7.476 -0.1290 -0.2626 -0.0324
 1817POPS   D2A21798   0.201  16.680   7.158 -0.0548  0.2643  0.3476
 1817POPS   C3A21799   0.242  16.710   6.730 -0.1509  0.1203  0.2894
 1817POPS   C4A21800   0.475  16.865   6.337 -0.0572  0.0103 -0.2622
 1817POPS   C1B21801   0.219  15.905   7.143 -0.0331  0.0851 -0.0728
 1817POPS   C2B21802   0.370  16.246   6.886 -0.0191  0.1204  0.2171
 1817POPS   C3B21803   0.606  16.390   6.504 -0.0091  0.0467 -0.2106
 1817POPS   C4B21804   0.815  16.186   6.145 -0.0477 -0.0529  0.2318
 1818POPS   CNO21805   7.328  13.083   8.985 -0.1055  0.0204 -0.3467
 1818POPS   PO421806   6.974  13.151   8.953 -0.0971  0.3586  0.1069
 1818POPS   GL121807   6.821  13.118   8.565  0.0316 -0.4072  0.0472
 1818POPS   GL221808   6.997  12.930   8.414 -0.1045  0.2038  0.1138
 1818POPS   C1A21809   6.804  13.307   8.176 -0.2982  0.2596  0.2548
 1818POPS   D2A21810   6.878  13.396   7.731  0.2323  0.3954 -0.3188
 1818POPS   C3A21811   7.304  13.404   7.484 -0.0135 -0.0627 -0.1127
 1818POPS   C4A21812   7.461  13.401   7.063  0.0679 -0.1766 -0.3038
 1818POPS   C1B21813   7.124  12.496   8.115  0.1748 -0.3123 -0.1737
 1818POPS   C2B21814   7.451  12.408   7.714 -0.0137 -0.4584  0.0084
 1818POPS   C3B21815   7.659  12.263   7.348  0.0780  0.1733 -0.0030
 1818POPS   C4B21816   7.956  12.121   6.990 -0.0776  0.2584  0.0793
 1819POPS   CNO21817  16.042  32.274  16.246 -0.0495  0.0206  0.0198
 1819POPS   PO421818  15.732  32.074  16.214  0.2437  0.3863 -0.0074
 1819POPS   GL121819  15.871  32.030  16.588 -0.0489  0.0459 -0.0856
 1819POPS   GL221820  15.892  32.298  16.748 -0.1304  0.3728  0.0928
 1819POPS   C1A21821  15.879  31.929  17.056 -0.0936 -0.2390 -0.0461
 1819POPS   D2A21822  16.158  32.096  17.415  0.0329  0.1844 -0.0391
 1819POPS   C3A21823  16.439  32.302  17.734 -0.0023  0.2796 -0.1677
 1819POPS   C4A21824  16.608  32.346  18.073 -0.1819 -0.0663  0.1890
 1819POPS   C1B21825  16.161  32.473  17.033  0.2878  0.1619  0.0502
 1819POPS   C2B21826  16.123  32.789  17.420 -0.0928  0.0113  0.0028
 1819POPS   C3B21827  16.125  32.699  17.892  0.1217  0.1314  0.0321
 1819POPS   C4B21828  15.895  32.589  18.281  0.0676  0.0107  0.0474
 1820POPS   CNO21829  17.174  12.898   8.919 -0.0559  0.2144 -0.1056
 1820POPS   PO421830  16.980  12.952   8.615 -0.0781 -0.0491  0.2700
 1820POPS   GL121831  17.027  12.929   8.155  0.3477  0.3607  0.1570
 1820POPS   GL221832  17.178  12.700   8.106  0.1349  0.1850 -0.1950
 1820POPS   C1A21833  16.987  12.973   7.661 -0.1945  0.0388 -0.0825
 1820POPS   D2A21834  17.047  13.096   7.221  0.3973 -0.1081 -0.0465
 1820POPS   C3A21835  17.055  12.607   7.225 -0.2266  0.0675  0.4910
 1820POPS   C4A21836  17.050  12.216   7.063 -0.1568 -0.3306  0.1122
 1820POPS   C1B21837  17.031  12.464   7.673 -0.0833  0.0566 -0.4919
 1820POPS   C2B21838  16.715  12.254   7.424 -0.1013 -0.0205 -0.3121
 1820POPS   C3B21839  16.553  11.960   7.122  0.0607 -0.1913  0.0280
 1820POPS   C4B21840  16.502  11.512   6.977  0.0749 -0.3802  0.0119
 1821POPS   CNO21841  15.800   5.599  10.350  0.0840  0.0082 -0.3833
 1821POPS   PO421842  15.812   5.606   9.955 -0.0341  0.0331 -0.0579
 1821POPS   GL121843  15.571   5.577   9.695  0.0178 -0.0908  0.1621
 1821POPS   GL221844  15.525   5.253   9.639 -0.1217  0.0139  0.1104
 1821POPS   C1A21845  15.171   5.607   9.473  0.0265 -0.1506  0.4906
 1821POPS   D2A21846  15.002   5.676   9.030  0.0696  0.3722 -0.3137
 1821POPS   C3A21847  14.745   6.056   8.852  0.3296 -0.0770 -0.3632
 1821POPS   C4A21848  14.364   6.089   8.598  0.1592 -0.6382 -0.0499
 1821POPS   C1B21849  15.233   5.109   9.398  0.2835  0.2427 -0.1458
 1821POPS   C2B21850  15.079   5.201   8.973 -0.2818  0.2566  0.1493
 1821POPS   C3B21851  14.730   5.358   8.640  0.3758 -0.0077 -0.4672
 1821POPS   C4B21852  14.361   5.588   8.514  0.0811  0.0807 -0.2133
 1822POPS   CNO21853  11.153  15.020   9.070 -0.0649  0.1263 -0.1469
 1822POPS   PO421854  10.808  14.946   8.994  0.0083  0.0945 -0.2061
 1822POPS   GL121855  10.685  14.919   8.524  0.0986 -0.2225 -0.1586
 1822POPS   GL221856  10.755  14.753   8.308  0.0173  0.0863  0.1988
 1822POPS   C1A21857  10.459  15.184   8.259  0.1696 -0.2509 -0.0001
 1822POPS   D2A21858  10.140  15.059   7.985 -0.0168 -0.0047  0.1799
 1822POPS   C3A21859  10.311  15.111   7.583 -0.0484 -0.0539  0.1555
 1822POPS   C4A21860  10.567  15.403   7.287 -0.3679 -0.0865  0.1648
 1822POPS   C1B21861  10.630  14.832   7.888  0.1394 -0.3159  0.1745
 1822POPS   C2B21862  10.429  14.618   7.475  0.1150  0.2804  0.1586
 1822POPS   C3B21863  10.040  14.649   7.146 -0.2933 -0.1943 -0.1577
 1822POPS   C4B21864   9.821  14.269   7.216 -0.1616 -0.0610 -0.3830
 1823POPS   CNO21865   1.068  10.834   8.843 -0.2123  0.0685 -0.2093
 1823POPS   PO421866   1.198  10.579   8.596 -0.0799  0.1645  0.0401
 1823POPS   GL121867   1.233  10.581   8.193 -0.0599  0.0063 -0.0636
 1823POPS   GL221868   1.119  10.311   8.092  0.3642 -0.1393  0.0620
 1823POPS   C1A21869   1.534  10.577   7.823 -0.1646 -0.0920 -0.0945
 1823POPS   D2A21870   1.554  10.626   7.408  0.2695  0.2224 -0.1165
 1823POPS   C3A21871   1.818  10.435   7.072 -0.0807 -0.0984  0.0091
 1823POPS   C4A21872   2.059  10.351   6.691 -0.1324  0.0382  0.1090
 1823POPS   C1B21873   0.977   9.997   7.795 -0.2096  0.3534 -0.0060
 1823POPS   C2B21874   1.123   9.837   7.388 -0.0597  0.0498 -0.1844
 1823POPS   C3B21875   1.028   9.870   6.958 -0.3039  0.1948  0.0817
 1823POPS   C4B21876   0.725   9.961   6.643 -0.0108 -0.0532  0.3103
 1824POPS   CNO21877   3.493   0.442  15.675  0.0351  0.1110 -0.1700
 1824POPS   PO421878   3.270   0.706  15.689  0.0901 -0.1076  0.0180
 1824POPS   GL121879   3.346   0.996  15.926 -0.1606  0.4457 -0.2138
 1824POPS   GL221880   3.626   1.166  15.950 -0.0100 -0.1837 -0.0570
 1824POPS   C1A21881   3.388   0.982  16.384  0.3413 -0.1128  0.4713
 1824POPS   D2A21882   3.483   1.261  16.658  0.0850  0.0288  0.0676
 1824POPS   C3A21883   3.547   1.200  17.124 -0.1383  0.1500 -0.0466
 1824POPS   C4A21884   3.560   1.309  17.566 -0.0822  0.0742 -0.1296
 1824POPS   C1B21885   3.910   1.140  16.353 -0.0104  0.1022  0.2198
 1824POPS   C2B21886   4.077   1.280  16.774  0.0305 -0.2480  0.2057
 1824POPS   C3B21887   4.151   1.386  17.249  0.1544 -0.1126  0.0616
 1824POPS   C4B21888   4.436   1.561  17.597  0.0256  0.1148 -0.1032
 1825POPS   CNO21889  14.281   4.347  12.353 -0.2113 -0.1705  0.0707
 1825POPS   PO421890  14.302   4.560  12.034 -0.3825  0.0074 -0.1928
 1825POPS   GL121891  13.888   4.661  11.905 -0.1300 -0.5884  0.3829
 1825POPS   GL221892  13.809   4.504  12.170  0.0679 -0.2332 -0.0875
 1825POPS   C1A21893  13.414   4.691  11.930 -0.0181  0.1702 -0.0976
 1825POPS   D2A21894  13.072   4.890  12.207 -0.4070  0.2752  0.1983
 1825POPS   C3A21895  12.670   5.003  12.057  0.0600  0.0390  0.1133
 1825POPS   C4A21896  12.283   5.247  12.080 -0.4887 -0.1633  0.0037
 1825POPS   C1B21897  13.366   4.249  12.276 -0.2120  0.0237  0.1863
 1825POPS   C2B21898  13.034   4.432  12.113  0.2703  0.3383 -0.1134
 1825POPS   C3B21899  12.573   4.489  12.076  0.2761 -0.1242 -0.0134
 1825POPS   C4B21900  12.128   4.530  12.160  0.0340  0.4245  0.1187
 1826POPS   CNO21901   7.282   1.013  13.741 -0.1826 -0.0526 -0.0017
 1826POPS   PO421902   7.137   1.089  13.413 -0.3711 -0.2846  0.0427
 1826POPS   GL121903   7.069   1.399  13.699 -0.2704  0.3126 -0.0380
 1826POPS   GL221904   7.117   1.554  13.565 -0.0080  0.2609 -0.1133
 1826POPS   C1A21905   7.126   1.693  14.052  0.1353  0.0020  0.3744
 1826POPS   D2A21906   7.416   1.682  14.391  0.0461 -0.0550 -0.0474
 1826POPS   C3A21907   7.309   1.992  14.769 -0.1190 -0.1436 -0.0507
 1826POPS   C4A21908   7.327   2.133  15.208  0.0180  0.0899  0.0856
 1826POPS   C1B21909   7.372   1.893  13.418 -0.0453  0.1730  0.3941
 1826POPS   C2B21910   7.407   2.305  13.202 -0.2620 -0.0042 -0.1370
 1826POPS   C3B21911   7.682   2.655  13.262 -0.1924 -0.1460  0.1133
 1826POPS   C4B21912   7.865   2.987  13.527 -0.3374 -0.2084  0.0275
 1827POPS   CNO21913  15.105  11.504   9.365 -0.2043 -0.0499 -0.0130
 1827POPS   PO421914  14.777  11.672   9.340  0.2098  0.2152  0.0045
 1827POPS   GL121915  14.730  11.559   8.938  0.1095  0.1919 -0.4004
 1827POPS   GL221916  14.853  11.278   9.009  0.1741  0.2122 -0.0231
 1827POPS   C1A21917  14.406  11.311   8.727  0.1389 -0.1720 -0.0676
 1827POPS   D2A21918  14.436  11.261   8.209 -0.3267 -0.1339  0.0925
 1827POPS   C3A21919  14.281  11.374   7.755 -0.0607  0.1806 -0.4492
 1827POPS   C4A21920  14.276  11.460   7.304  0.0596 -0.1687  0.3143
 1827POPS   C1B21921  15.102  11.370   8.666 -0.2143  0.1624 -0.3265
 1827POPS   C2B21922  15.343  11.252   8.303  0.2753 -0.2025 -0.1318
 1827POPS   C3B21923  15.406  11.170   7.857 -0.1074  0.1256 -0.0534
 1827POPS   C4B21924  15.447  11.236   7.379  0.0723  0.4659 -0.1899
 1828POPS   CNO21925  15.249   4.471  10.789  0.0544  0.0578 -0.1249
 1828POPS   PO421926  15.087   4.591  10.482 -0.0438 -0.2929  0.2486
 1828POPS   GL121927  14.824   4.639  10.219  0.1194 -0.0086  0.1335
 1828POPS   GL221928  14.711   4.760   9.990 -0.0838  0.2262  0.1429
 1828POPS   C1A21929  14.589   4.302   9.943  0.2363  0.4046 -0.3381
 1828POPS   D2A21930  14.160   4.289   9.593 -0.0777 -0.2583 -0.3321
 1828POPS   C3A21931  13.807   4.017   9.410 -0.3074  0.0545  0.0619
 1828POPS   C4A21932  13.452   3.757   9.186 -0.2579  0.0301  0.1997
 1828POPS   C1B21933  14.258   4.675   9.924  0.1957 -0.0081  0.0572
 1828POPS   C2B21934  13.957   4.727   9.665  0.1586 -0.1283  0.1688
 1828POPS   C3B21935  13.636   4.485   9.343  0.0183 -0.1331 -0.1042
 1828POPS   C4B21936  13.192   4.304   9.274 -0.2817 -0.0530  0.0559
 1829POPS   CNO21937  31.800   0.266   8.608  0.0832 -0.2727  0.0257
 1829POPS   PO421938  31.777   0.084   8.295 -0.4280 -0.0087 -0.0116
 1829POPS   GL121939  31.870   0.466   8.081 -0.1511  0.2833  0.0156
 1829POPS   GL221940  31.621   0.532   7.987 -0.1605  0.0844 -0.1348
 1829POPS   C1A21941  32.231   0.609   7.851 -0.1094 -0.1546 -0.0538
 1829POPS   D2A21942  32.697   0.583   7.860 -0.1230  0.1965 -0.0557
 1829POPS   C3A21943  32.942   0.631   7.497  0.2703 -0.2480  0.0825
 1829POPS   C4A21944  33.208   0.604   7.125 -0.1557 -0.0371  0.0495
 1829POPS   C1B21945  31.741   0.676   7.539  0.2749  0.0481 -0.2636
 1829POPS   C2B21946  31.836   0.844   7.121  0.0440 -0.1227  0.1001
 1829POPS   C3B21947  31.839   1.056   6.670 -0.0183 -0.2531 -0.0261
 1829POPS   C4B21948  31.734   1.475   6.472  0.4768 -0.0370  0.0136
 1830POPS   CNO21949  32.691  10.690   9.267 -0.1924  0.0829 -0.2325
 1830POPS   PO421950  32.557  10.646   8.933 -0.3821 -0.4301  0.2745
 1830POPS   GL121951  32.642  10.477   8.543 -0.1707 -0.0907  0.2980
 1830POPS   GL221952  32.752  10.757   8.421 -0.2538 -0.1527  0.0729
 1830POPS   C1A21953  32.470  10.127   8.343 -0.0220 -0.0005 -0.6435
 1830POPS   D2A21954  32.161  10.173   8.002 -0.4244  0.1093 -0.3116
 1830POPS   C3A21955  32.132  10.005   7.541  0.0923  0.2084 -0.0550
 1830POPS   C4A21956  32.495   9.765   7.369  0.1475  0.1082 -0.1177
 1830POPS   C1B21957  32.780  10.840   7.977 -0.0693 -0.0858 -0.0292
 1830POPS   C2B21958  32.825  10.941   7.521 -0.1865 -0.0918  0.0341
 1830POPS   C3B21959  32.667  10.795   7.100  0.2106 -0.0447 -0.1787
 1830POPS   C4B21960  32.374  10.654   6.755  0.4231 -0.2926  0.0708
 1831POPS   CNO21961  15.263   5.107  10.535 -0.0263  0.2076 -0.1348
 1831POPS   PO421962  14.959   5.130  10.351  0.2213 -0.0885 -0.3196
 1831POPS   GL121963  14.782   5.214  10.127 -0.0515 -0.0560 -0.0190
 1831POPS   GL221964  14.971   5.282   9.842 -0.0171 -0.2038 -0.1199
 1831POPS   C1A21965  14.397   5.143   9.879  0.0414  0.4556 -0.1916
 1831POPS   D2A21966  13.978   5.127   9.993 -0.2527  0.1372 -0.0541
 1831POPS   C3A21967  13.739   4.860  10.226 -0.1382  0.0538 -0.1656
 1831POPS   C4A21968  13.417   4.837  10.600 -0.2513  0.1549  0.0132
 1831POPS   C1B21969  14.781   4.892   9.565 -0.2295 -0.1053 -0.0753
 1831POPS   C2B21970  14.383   4.821   9.415  0.1521  0.2246  0.2069
 1831POPS   C3B21971  14.102   4.804   9.073  0.1880  0.0633  0.0718
 1831POPS   C4B21972  13.768   5.014   8.817  0.3362 -0.0211 -0.2573
 1832POPS   CNO21973   3.917  12.659   8.210 -0.3164  0.2339 -0.1594
 1832POPS   PO421974   3.795  12.285   8.186  0.2571 -0.4444 -0.1175
 1832POPS   GL121975   3.656  12.162   7.827  0.2515 -0.4097  0.0172
 1832POPS   GL221976   3.403  12.165   7.834  0.2472  0.3631 -0.2048
 1832POPS   C1A21977   3.872  12.393   7.401  0.0818 -0.0129  0.0955
 1832POPS   D2A21978   4.179  12.549   7.197  0.0240 -0.1937 -0.4866
 1832POPS   C3A21979   4.486  12.348   7.440 -0.1916 -0.6581 -0.1921
 1832POPS   C4A21980   4.667  12.468   7.843 -0.2945 -0.0725 -0.0797
 1832POPS   C1B21981   3.406  12.185   7.405  0.3059 -0.2689  0.1416
 1832POPS   C2B21982   3.661  12.103   7.029 -0.1226 -0.0131  0.2169
 1832POPS   C3B21983   3.916  12.288   6.734 -0.3764  0.0644 -0.1326
 1832POPS   C4B21984   4.077  12.287   6.286 -0.2489 -0.6977  0.0483
 1833POPS   CNO21985   0.669   5.882   9.423 -0.2129 -0.0985 -0.2193
 1833POPS   PO421986   0.966   6.054   9.657  0.1153  0.0373 -0.0833
 1833POPS   GL121987   1.200   5.991   9.253  0.0059 -0.1273  0.1470
 1833POPS   GL221988   0.989   5.910   9.061  0.0729  0.2958 -0.0492
 1833POPS   C1A21989   1.225   6.332   8.873 -0.0374  0.2204 -0.1320
 1833POPS   D2A21990   1.098   6.295   8.435 -0.0372 -0.0051  0.3062
 1833POPS   C3A21991   0.982   6.420   8.031  0.1857  0.1111 -0.3334
 1833POPS   C4A21992   1.203   6.357   7.631  0.1414 -0.2295  0.2331
 1833POPS   C1B21993   1.050   5.757   8.579 -0.1159 -0.1735 -0.0021
 1833POPS   C2B21994   1.054   5.892   8.053 -0.0554  0.1246 -0.1650
 1833POPS   C3B21995   0.851   5.932   7.650 -0.0789  0.1023 -0.0358
 1833POPS   C4B21996   0.814   5.761   7.230 -0.0230  0.0755  0.0396
 1834POPS   CNO21997   3.381  11.794   8.987 -0.2606  0.1357  0.0685
 1834POPS   PO421998   3.350  11.663   8.593  0.4552  0.0152  0.0255
 1834POPS   GL121999   3.464  11.506   8.280  0.2278  0.1415  0.0182
 1834POPS   GL222000   3.660  11.699   8.159  0.0191 -0.1435 -0.1547
 1834POPS   C1A22001   3.375  11.505   7.768  0.1073  0.0195  0.0729
 1834POPS   D2A22002   3.356  11.589   7.281  0.0087 -0.0205  0.4813
 1834POPS   C3A22003   3.559  11.641   6.869  0.1433  0.2490 -0.2616
 1834POPS   C4A22004   3.769  11.852   6.551 -0.0807  0.2514 -0.0758
 1834POPS   C1B22005   3.804  11.761   7.740  0.1574 -0.1320 -0.0052
 1834POPS   C2B22006   3.828  11.655   7.297  0.1462 -0.1820  0.2406
 1834POPS   C3B22007   4.075  11.866   6.968 -0.2002 -0.2792 -0.2543
 1834POPS   C4B22008   4.297  11.924   6.567  0.0372  0.0204 -0.1455
 1835POPS   CNO22009   3.718   1.753   9.221  0.1562 -0.0283  0.1392
 1835POPS   PO422010   3.484   1.827   8.927 -0.0489  0.2082 -0.2065
 1835POPS   GL122011   3.520   1.553   8.645 -0.2652 -0.0780  0.0950
 1835POPS   GL222012   3.287   1.377   8.557 -0.4291  0.1472  0.0462
 1835POPS   C1A22013   3.765   1.475   8.196  0.2856 -0.3390 -0.1331
 1835POPS   D2A22014   3.590   1.668   7.868  0.0616  0.0734 -0.1262
 1835POPS   C3A22015   3.556   1.458   7.444  0.2415 -0.2557 -0.0568
 1835POPS   C4A22016   3.699   1.457   6.963 -0.1786  0.1426 -0.0141
 1835POPS   C1B22017   3.285   1.375   8.087  0.1727 -0.3415 -0.0890
 1835POPS   C2B22018   3.290   1.116   7.711 -0.4223  0.1676  0.3252
 1835POPS   C3B22019   3.222   0.768   7.395  0.0845  0.0056 -0.0932
 1835POPS   C4B22020   3.022   0.524   7.004  0.0514  0.1271 -0.1197
 1836POPS   CNO22021   6.207   8.866  11.380 -0.2499 -0.2629  0.2521
 1836POPS   PO422022   6.514   9.093  11.428 -0.0210 -0.2393 -0.0977
 1836POPS   GL122023   6.791   8.810  11.597 -0.0708  0.1013 -0.0387
 1836POPS   GL222024   6.989   9.120  11.622  0.3636  0.1388  0.0943
 1836POPS   C1A22025   6.988   8.400  11.474  0.0722 -0.1438 -0.1933
 1836POPS   D2A22026   7.214   8.100  11.163  0.0542 -0.1019  0.0536
 1836POPS   C3A22027   7.370   7.675  11.043 -0.0141  0.1483 -0.2689
 1836POPS   C4A22028   7.151   7.287  11.074  0.0361  0.3620  0.0215
 1836POPS   C1B22029   7.330   8.764  11.637  0.0627 -0.0675 -0.0446
 1836POPS   C2B22030   7.510   8.300  11.490 -0.0153 -0.0414  0.1396
 1836POPS   C3B22031   7.672   7.899  11.405 -0.1878 -0.0586 -0.1378
 1836POPS   C4B22032   7.960   7.742  11.717  0.2240 -0.1180 -0.3951
 1837POPS   CNO22033   0.744   5.358   9.251 -0.5192 -0.0821  0.0283
 1837POPS   PO422034   0.593   5.588   9.021 -0.0081  0.2063 -0.2349
 1837POPS   GL122035   0.382   5.363   8.710  0.1572 -0.0337 -0.1552
 1837POPS   GL222036   0.480   5.592   8.519 -0.0618 -0.1578  0.0742
 1837POPS   C1A22037   0.320   5.129   8.310  0.0875 -0.0178  0.0745
 1837POPS   D2A22038   0.004   4.887   8.056  0.2150  0.2193 -0.0551
 1837POPS   C3A22039  -0.223   4.934   7.633 -0.4067 -0.1520  0.0059
 1837POPS   C4A22040  -0.244   4.747   7.179 -0.1445 -0.3011 -0.2564
 1837POPS   C1B22041   0.507   5.903   8.163 -0.0789 -0.0034 -0.1326
 1837POPS   C2B22042   0.408   6.116   7.778  0.2158 -0.2338  0.2483
 1837POPS   C3B22043   0.070   6.155   7.504 -0.0709  0.2982 -0.2498
 1837POPS   C4B22044  -0.111   6.245   7.063  0.0814 -0.0115 -0.0216
 1838POPS   CNO22045  17.469   7.622   9.472 -0.0483 -0.0939 -0.0205
 1838POPS   PO422046  17.268   7.346   9.316  0.1273  0.0952  0.1581
 1838POPS   GL122047  17.348   7.107   8.968 -0.3457 -0.0979 -0.0665
 1838POPS   GL222048  17.340   6.799   9.060 -0.0572 -0.0049  0.1388
 1838POPS   C1A22049  17.344   7.263   8.512 -0.0714  0.3079  0.2749
 1838POPS   D2A22050  17.301   7.497   8.077 -0.0307 -0.2374 -0.0485
 1838POPS   C3A22051  17.264   7.156   7.696  0.1309 -0.0438  0.1711
 1838POPS   C4A22052  17.340   7.120   7.192  0.1367 -0.2652  0.2828
 1838POPS   C1B22053  17.250   6.683   8.647 -0.0928  0.1763  0.1195
 1838POPS   C2B22054  17.172   6.876   8.230 -0.0413  0.0245 -0.0715
 1838POPS   C3B22055  16.822   7.097   7.989 -0.0060  0.1385  0.4200
 1838POPS   C4B22056  16.539   6.914   7.678 -0.0539 -0.0786 -0.0322
 1839POPS   CNO22057  13.487  16.068   9.227 -0.2559 -0.0350  0.2900
 1839POPS   PO422058  13.447  16.119   8.863 -0.2130 -0.2302  0.1146
 1839POPS   GL122059  13.440  16.179   8.470  0.1819 -0.5027 -0.2006
 1839POPS   GL222060  13.290  16.435   8.381 -0.1580  0.0063 -0.1513
 1839POPS   C1A22061  13.476  16.249   8.027 -0.1916 -0.0305  0.1116
 1839POPS   D2A22062  13.445  16.502   7.631  0.1168  0.0783  0.0903
 1839POPS   C3A22063  13.439  16.915   7.379  0.0680  0.0348 -0.0430
 1839POPS   C4A22064  13.097  17.148   7.189 -0.3215  0.1386 -0.0776
 1839POPS   C1B22065  13.225  16.742   8.018  0.1552  0.0367  0.4044
 1839POPS   C2B22066  13.149  17.117   7.754 -0.0388 -0.2586  0.0017
 1839POPS   C3B22067  13.035  17.531   7.584  0.0489  0.1574  0.0855
 1839POPS   C4B22068  12.864  17.963   7.584 -0.1694 -0.3706 -0.0661
 1840POPS   CNO22069   1.541  11.640   8.594  0.1264 -0.0187  0.0196
 1840POPS   PO422070   1.571  11.308   8.408  0.2030 -0.0876  0.0945
 1840POPS   GL122071   1.578  11.185   8.059  0.1964  0.2625 -0.1078
 1840POPS   GL222072   1.366  11.113   7.979  0.2308 -0.2692  0.5250
 1840POPS   C1A22073   1.793  10.948   7.711 -0.2613  0.0663 -0.0069
 1840POPS   D2A22074   2.056  10.570   7.871 -0.0809  0.0605  0.1839
 1840POPS   C3A22075   2.122  10.281   7.503 -0.1203  0.0313  0.0903
 1840POPS   C4A22076   2.330  10.289   7.085  0.0431  0.1634 -0.4084
 1840POPS   C1B22077   1.241  11.006   7.537  0.0612  0.1203  0.3053
 1840POPS   C2B22078   1.141  10.722   7.173 -0.0376  0.0501  0.2038
 1840POPS   C3B22079   1.085  10.532   6.766  0.0013 -0.1815  0.0563
 1840POPS   C4B22080   1.073  10.258   6.449  0.0730  0.2143 -0.1238
 1841POPS   CNO22081   6.608  15.027   9.030  0.3036 -0.0997  0.0749
 1841POPS   PO422082   6.788  15.012   8.685  0.2831  0.3902  0.0355
 1841POPS   GL122083   7.073  14.971   8.331 -0.0283  0.2288 -0.2069
 1841POPS   GL222084   6.849  15.128   8.144 -0.0739  0.2850  0.2668
 1841POPS   C1A22085   7.154  14.702   7.974  0.0731  0.0591 -0.0273
 1841POPS   D2A22086   7.331  14.355   7.708  0.0889 -0.1019  0.2809
 1841POPS   C3A22087   7.563  14.257   7.347  0.3797 -0.4104 -0.2554
 1841POPS   C4A22088   7.983  14.226   7.205 -0.1320 -0.0724 -0.4817
 1841POPS   C1B22089   6.752  15.503   7.885 -0.0489 -0.2009 -0.0716
 1841POPS   C2B22090   6.611  15.611   7.499  0.1675 -0.2203 -0.1710
 1841POPS   C3B22091   6.672  15.994   7.200  0.2486  0.2452  0.0948
 1841POPS   C4B22092   6.671  16.244   6.789  0.0419  0.0405 -0.0532
 1842POPS   CNO22093   4.090  15.018   9.003  0.2738  0.1446  0.0298
 1842POPS   PO422094   4.072  15.086   8.640 -0.3999 -0.0992  0.1362
 1842POPS   GL122095   4.152  15.121   8.294  0.0606 -0.0736  0.2340
 1842POPS   GL222096   3.960  15.261   8.132  0.0833 -0.1246  0.0196
 1842POPS   C1A22097   4.266  14.972   7.831 -0.0694 -0.3254  0.0774
 1842POPS   D2A22098   4.291  14.611   7.492 -0.2986  0.1075  0.0183
 1842POPS   C3A22099   4.086  14.326   7.189  0.0859  0.2895  0.0467
 1842POPS   C4A22100   3.857  14.206   6.800 -0.1623 -0.0456 -0.0366
 1842POPS   C1B22101   3.820  15.536   7.813 -0.0452  0.3328 -0.0446
 1842POPS   C2B22102   3.952  15.643   7.369  0.1680 -0.1365 -0.3770
 1842POPS   C3B22103   4.161  15.558   6.988  0.0111  0.1325 -0.5968
 1842POPS   C4B22104   4.262  15.556   6.570 -0.0622  0.1456  0.0193
 1843POPS   CNO22105  11.455   0.359  14.660 -0.2829  0.0220  0.0912
 1843POPS   PO422106  11.815   0.425  14.739  0.0163 -0.1395 -0.0557
 1843POPS   GL122107  11.638   0.783  14.679 -0.0905  0.2135  0.0637
 1843POPS   GL222108  11.910   0.884  14.516  0.3508  0.4509  0.3427
 1843POPS   C1A22109  11.257   1.094  14.800 -0.0632  0.1351  0.1692
 1843POPS   D2A22110  11.039   1.202  15.194  0.1131 -0.0140  0.2162
 1843POPS   C3A22111  10.826   1.533  15.458  0.0241  0.0562  0.1473
 1843POPS   C4A22112  10.937   1.770  15.847  0.0437 -0.1430 -0.0542
 1843POPS   C1B22113  11.840   1.223  14.829  0.2112 -0.1392  0.1906
 1843POPS   C2B22114  11.535   1.392  15.110  0.0997  0.1673 -0.1369
 1843POPS   C3B22115  11.271   1.780  15.257  0.1716  0.3289  0.0138
 1843POPS   C4B22116  11.031   2.117  15.415 -0.0594  0.1505 -0.3693
 1844POPS   CNO22117   8.781   4.768   8.376 -0.3516  0.0415  0.0445
 1844POPS   PO422118   8.487   4.875   8.174  0.0397 -0.0516 -0.0929
 1844POPS   GL122119   8.309   4.625   8.448  0.2362 -0.2231  0.0737
 1844POPS   GL222120   8.465   4.618   8.717  0.2055  0.4791 -0.0388
 1844POPS   C1A22121   7.864   4.750   8.624 -0.2721  0.2418  0.1678
 1844POPS   D2A22122   7.522   4.520   8.383  0.1836  0.1854  0.1220
 1844POPS   C3A22123   7.306   4.217   8.652 -0.0501  0.1150 -0.2516
 1844POPS   C4A22124   7.037   3.912   8.879 -0.1360 -0.1950 -0.0877
 1844POPS   C1B22125   8.103   4.521   8.951 -0.0828 -0.3680 -0.1449
 1844POPS   C2B22126   7.778   4.334   9.264 -0.1634  0.0672  0.0239
 1844POPS   C3B22127   7.340   4.417   9.401  0.3808  0.1542  0.2541
 1844POPS   C4B22128   6.992   4.355   9.129  0.0065 -0.0438 -0.0217
 1845POPS   CNO22129  12.741   3.997   6.134 -0.2089  0.0252 -0.2266
 1845POPS   PO422130  13.036   3.855   6.211 -0.1721  0.1018  0.1551
 1845POPS   GL122131  12.973   4.108   6.604 -0.0272  0.0009  0.0986
 1845POPS   GL222132  13.076   3.822   6.708 -0.2656 -0.0241  0.1689
 1845POPS   C1A22133  13.160   4.158   7.049  0.3122 -0.1259  0.1044
 1845POPS   D2A22134  13.438   4.456   7.315 -0.0152 -0.1331  0.2381
 1845POPS   C3A22135  13.423   4.512   7.817 -0.1417 -0.0599  0.0120
 1845POPS   C4A22136  13.613   4.431   8.191  0.0355 -0.1535  0.0844
 1845POPS   C1B22137  13.362   3.646   7.017 -0.0668  0.1618  0.1423
 1845POPS   C2B22138  13.533   3.481   7.420 -0.2064 -0.2814  0.0879
 1845POPS   C3B22139  13.829   3.223   7.719 -0.2452  0.0219 -0.1195
 1845POPS   C4B22140  13.780   2.916   8.067 -0.1074  0.1157  0.0224
 1846POPS   CNO22141  15.195   0.588   4.478 -0.2700  0.1479  0.1509
 1846POPS   PO422142  14.857   0.442   4.587 -0.3314  0.0204 -0.1401
 1846POPS   GL122143  15.056   0.351   4.907  0.0271 -0.3798 -0.0464
 1846POPS   GL222144  14.782   0.394   5.060 -0.2672  0.1329  0.0064
 1846POPS   C1A22145  15.149   0.561   5.292  0.2803 -0.1229  0.1972
 1846POPS   D2A22146  15.295   0.969   5.311 -0.1573 -0.0069  0.0488
 1846POPS   C3A22147  15.675   1.080   5.554  0.0237  0.2048 -0.2625
 1846POPS   C4A22148  15.940   1.110   5.876 -0.0874 -0.0082 -0.0183
 1846POPS   C1B22149  14.967   0.138   5.424  0.0459  0.1740 -0.0944
 1846POPS   C2B22150  14.805  -0.277   5.565  0.1506  0.1461 -0.1298
 1846POPS   C3B22151  14.735  -0.358   6.059 -0.2340  0.0823  0.0951
 1846POPS   C4B22152  14.958  -0.631   6.360  0.0133  0.0509  0.0246
 1847POPS   CNO22153   8.920   7.606   8.730  0.1827 -0.0958  0.0845
 1847POPS   PO422154   9.081   7.450   9.018  0.2537  0.0116  0.0758
 1847POPS   GL122155   9.247   7.722   9.252  0.1514 -0.0459 -0.0056
 1847POPS   GL222156   9.467   7.684   9.379  0.0518  0.0257  0.0280
 1847POPS   C1A22157   9.168   8.009   9.567 -0.1348 -0.2396  0.0016
 1847POPS   D2A22158   8.894   8.357   9.770  0.0804 -0.1203 -0.2307
 1847POPS   C3A22159   8.748   8.659  10.103 -0.1024 -0.0836  0.0900
 1847POPS   C4A22160   8.765   8.993  10.415  0.1084 -0.0845  0.1728
 1847POPS   C1B22161   9.681   7.973   9.643 -0.1114 -0.1494 -0.0096
 1847POPS   C2B22162   9.523   8.358   9.760 -0.0041 -0.3134  0.3934
 1847POPS   C3B22163   9.196   8.637   9.924  0.0382 -0.2136 -0.0850
 1847POPS   C4B22164   9.250   9.098   9.913  0.0396 -0.0985  0.2214
 1848POPS   CNO22165  10.474   4.797   8.386 -0.4248  0.1608 -0.1754
 1848POPS   PO422166  10.406   4.454   8.290  0.2427 -0.0369  0.3727
 1848POPS   GL122167  10.627   4.012   8.292  0.0856 -0.0150  0.2654
 1848POPS   GL222168  10.590   3.968   8.576  0.0799 -0.0021  0.1055
 1848POPS   C1A22169  10.581   3.524   8.340 -0.1143  0.0701 -0.2363
 1848POPS   D2A22170  10.804   3.099   8.397 -0.1602 -0.1288 -0.1896
 1848POPS   C3A22171  10.880   2.629   8.341 -0.2598 -0.0101 -0.1518
 1848POPS   C4A22172  11.255   2.325   8.375  0.1214  0.3099  0.0862
 1848POPS   C1B22173  10.800   3.590   8.757  0.0386  0.0835  0.2722
 1848POPS   C2B22174  10.848   3.142   8.870  0.1201 -0.1428 -0.0776
 1848POPS   C3B22175  11.127   2.750   8.754 -0.2588 -0.2530  0.0931
 1848POPS   C4B22176  11.472   2.394   8.846  0.1140  0.1980 -0.1935
 1849POPS   CNO22177  12.530   5.055   6.811  0.3527 -0.3545 -0.0849
 1849POPS   PO422178  12.305   4.769   6.661 -0.0109 -0.0079  0.0438
 1849POPS   GL122179  12.390   4.609   7.036  0.2592 -0.0443 -0.2114
 1849POPS   GL222180  12.513   4.784   7.267  0.0724 -0.5736 -0.0741
 1849POPS   C1A22181  12.643   4.200   7.123 -0.0677  0.0246 -0.1338
 1849POPS   D2A22182  12.756   3.723   7.083 -0.2019  0.3462 -0.0112
 1849POPS   C3A22183  12.847   3.389   7.413  0.3183 -0.1561  0.0598
 1849POPS   C4A22184  12.765   3.179   7.809  0.1367  0.1323 -0.3005
 1849POPS   C1B22185  12.875   4.585   7.457 -0.0385  0.2909  0.1145
 1849POPS   C2B22186  13.038   4.213   7.610  0.0289  0.0134 -0.0305
 1849POPS   C3B22187  13.172   3.972   7.903 -0.1671  0.3405 -0.3133
 1849POPS   C4B22188  13.234   3.495   7.923  0.0588 -0.1025 -0.0156
 1850POPS   CNO22189   9.933   3.361   7.271 -0.0982 -0.0675  0.0650
 1850POPS   PO422190  10.065   3.423   7.587 -0.0853 -0.0083 -0.2105
 1850POPS   GL122191   9.715   3.178   7.649 -0.1983  0.1965  0.1382
 1850POPS   GL222192   9.761   3.244   7.962  0.1228 -0.0177  0.0132
 1850POPS   C1A22193   9.551   2.747   7.830  0.0217  0.4503  0.1228
 1850POPS   D2A22194   9.445   2.612   8.261  0.1027 -0.3241 -0.1131
 1850POPS   C3A22195   9.485   2.224   8.569 -0.0144  0.1107 -0.2445
 1850POPS   C4A22196   9.389   1.796   8.836  0.3486 -0.0799 -0.1851
 1850POPS   C1B22197   9.752   2.989   8.328  0.1165 -0.0415  0.0524
 1850POPS   C2B22198   9.866   2.646   8.611 -0.0595  0.1300  0.1940
 1850POPS   C3B22199  10.221   2.413   8.877  0.2367  0.1810  0.2096
 1850POPS   C4B22200  10.375   2.382   9.284  0.0698  0.0304 -0.1697
 1851POPS   CNO22201   2.047  15.176   3.624 -0.0665 -0.3225 -0.0302
 1851POPS   PO422202   2.281  15.218   3.920 -0.0100  0.0139 -0.2668
 1851POPS   GL122203   2.332  15.177   4.348 -0.0639  0.1970 -0.2562
 1851POPS   GL222204   2.104  15.017   4.420  0.5980  0.0009  0.1162
 1851POPS   C1A22205   2.458  14.861   4.618  0.1118 -0.2917 -0.0170
 1851POPS   D2A22206   2.243  14.436   4.699 -0.1598  0.0795 -0.1006
 1851POPS   C3A22207   2.162  14.257   5.132 -0.1982 -0.0918 -0.2671
 1851POPS   C4A22208   2.160  14.246   5.584  0.1945  0.2160  0.1365
 1851POPS   C1B22209   1.929  14.880   4.837 -0.0745 -0.0244 -0.0305
 1851POPS   C2B22210   1.745  14.636   5.173 -0.0750 -0.1374  0.0119
 1851POPS   C3B22211   1.581  14.317   5.476  0.0074 -0.2550 -0.1947
 1851POPS   C4B22212   1.327  14.153   5.851  0.0114 -0.2901  0.1954
 1852POPS   CNO22213   6.214   6.577   6.115 -0.2747  0.1390  0.2055
 1852POPS   PO422214   6.094   6.272   6.273 -0.2243  0.0532 -0.1663
 1852POPS   GL122215   5.944   6.258   6.672  0.0609 -0.0524  0.2722
 1852POPS   GL222216   6.138   6.137   6.917  0.0184 -0.0804  0.1899
 1852POPS   C1A22217   5.602   6.133   6.927 -0.0702 -0.0719 -0.2174
 1852POPS   D2A22218   5.217   6.066   7.125  0.0147  0.3162 -0.1010
 1852POPS   C3A22219   5.246   6.227   7.582  0.1303  0.3316 -0.2545
 1852POPS   C4A22220   4.961   6.406   7.885 -0.2240  0.0754 -0.0658
 1852POPS   C1B22221   5.888   5.835   7.204 -0.0645  0.0792  0.0985
 1852POPS   C2B22222   5.441   5.782   7.495 -0.0193  0.1089  0.1324
 1852POPS   C3B22223   5.372   5.763   8.003 -0.0301  0.0063 -0.0847
 1852POPS   C4B22224   5.145   5.728   8.432 -0.2343  0.0486 -0.1096
 1853POPS   CNO22225  11.894  14.302   4.604 -0.4391  0.1697  0.0042
 1853POPS   PO422226  11.870  13.963   4.651 -0.0908 -0.0605 -0.0075
 1853POPS   GL122227  11.821  13.925   4.986  0.3781 -0.1871 -0.1378
 1853POPS   GL222228  11.698  13.641   5.059  0.0122 -0.0959 -0.1027
 1853POPS   C1A22229  12.160  13.939   5.300 -0.0069 -0.0117 -0.1040
 1853POPS   D2A22230  12.284  13.835   5.753 -0.0235 -0.0575 -0.3214
 1853POPS   C3A22231  12.174  13.880   6.214 -0.2199 -0.1291  0.1914
 1853POPS   C4A22232  12.273  14.025   6.659  0.0343 -0.0857 -0.0799
 1853POPS   C1B22233  11.660  13.600   5.529 -0.0626  0.1469  0.0082
 1853POPS   C2B22234  11.614  13.545   6.007  0.2799  0.2894 -0.1432
 1853POPS   C3B22235  11.876  13.512   6.395  0.1914 -0.1971  0.0555
 1853POPS   C4B22236  12.046  13.372   6.815  0.3024 -0.1593  0.1097
 1854POPS   CNO22237   1.713  16.223   4.296 -0.2787 -0.0504  0.1712
 1854POPS   PO422238   1.981  15.970   4.172  0.1167 -0.0463 -0.0509
 1854POPS   GL122239   2.168  15.843   4.474  0.1558 -0.1214  0.3880
 1854POPS   GL222240   2.106  15.526   4.491  0.1674  0.0106 -0.0739
 1854POPS   C1A22241   2.184  15.785   4.925  0.1898  0.3081  0.2364
 1854POPS   D2A22242   2.124  15.640   5.345  0.1028 -0.0520  0.0113
 1854POPS   C3A22243   1.977  15.324   5.690 -0.1516 -0.0965  0.0560
 1854POPS   C4A22244   2.315  15.201   6.040 -0.0407  0.4379 -0.1551
 1854POPS   C1B22245   2.281  15.295   4.839 -0.0411  0.1303  0.0390
 1854POPS   C2B22246   2.306  14.883   5.115  0.1197  0.1049 -0.2641
 1854POPS   C3B22247   2.544  14.627   5.426 -0.1355  0.0082 -0.3021
 1854POPS   C4B22248   2.945  14.643   5.644 -0.0617 -0.1689 -0.1134
 1855POPS   CNO22249  10.217  14.669   4.814  0.3166 -0.1387  0.0855
 1855POPS   PO422250  10.515  14.474   4.938  0.1317 -0.0010 -0.1203
 1855POPS   GL122251  10.358  14.530   5.271 -0.0701  0.2720 -0.0075
 1855POPS   GL222252  10.550  14.695   5.433 -0.0352 -0.2101  0.0111
 1855POPS   C1A22253  10.107  14.228   5.552 -0.2472 -0.0268  0.1452
 1855POPS   D2A22254  10.205  14.033   5.945  0.1563  0.0286 -0.0563
 1855POPS   C3A22255  10.049  14.150   6.399 -0.0448 -0.2507  0.0159
 1855POPS   C4A22256   9.952  14.393   6.720  0.2731 -0.0293  0.1059
 1855POPS   C1B22257  10.698  14.312   5.694 -0.2931 -0.3315  0.0316
 1855POPS   C2B22258  10.921  14.208   6.106  0.0147 -0.0378  0.2272
 1855POPS   C3B22259  10.998  13.977   6.504 -0.2107  0.2762  0.3128
 1855POPS   C4B22260  10.649  13.949   6.860  0.1075  0.1061 -0.3940
 1856POPS   CNO22261   9.944   5.663  11.328  0.0898 -0.2531 -0.4759
 1856POPS   PO422262   9.693   5.377  11.252  0.1803  0.1604  0.2213
 1856POPS   GL122263   9.356   5.192  11.201 -0.0524 -0.2330  0.0995
 1856POPS   GL222264   9.408   4.927  11.321 -0.1263  0.1105  0.0241
 1856POPS   C1A22265   9.129   4.898  10.888 -0.1973  0.3049 -0.1241
 1856POPS   D2A22266   8.934   4.525  10.950  0.1239 -0.0883  0.0641
 1856POPS   C3A22267   8.527   4.361  10.796 -0.0480 -0.0069 -0.0408
 1856POPS   C4A22268   8.328   3.967  10.823 -0.0461  0.0048  0.0208
 1856POPS   C1B22269   8.934   4.804  11.361 -0.2641  0.2463  0.0691
 1856POPS   C2B22270   8.553   4.809  11.113 -0.1191  0.0211  0.1383
 1856POPS   C3B22271   8.121   4.922  11.305  0.0639  0.1374 -0.1754
 1856POPS   C4B22272   7.726   5.113  11.439  0.0831  0.1543 -0.1748
 1857POPS   CNO22273   2.236   9.925   4.399 -0.0479 -0.2320  0.2854
 1857POPS   PO422274   2.399  10.220   4.421  0.0343 -0.0246  0.1370
 1857POPS   GL122275   2.136  10.356   4.660  0.4701 -0.0365 -0.0520
 1857POPS   GL222276   2.081  10.139   4.851  0.1391  0.0963 -0.1389
 1857POPS   C1A22277   1.876  10.665   4.913  0.2450  0.0855  0.0601
 1857POPS   D2A22278   1.787  10.845   5.355  0.0467 -0.1750  0.0575
 1857POPS   C3A22279   1.535  10.676   5.673  0.1945 -0.0860  0.0349
 1857POPS   C4A22280   1.361  10.533   6.116 -0.0769  0.0577  0.1130
 1857POPS   C1B22281   2.223  10.409   5.205 -0.2101  0.0516  0.2634
 1857POPS   C2B22282   2.324  10.875   5.352 -0.1550  0.1332  0.1379
 1857POPS   C3B22283   2.064  11.028   5.765 -0.1197 -0.1275  0.2624
 1857POPS   C4B22284   1.899  11.116   6.159 -0.1910  0.1110 -0.1709
 1858POPS   CNO22285  31.576  14.191   3.492 -0.1007 -0.0751 -0.1689
 1858POPS   PO422286  31.496  14.192   3.862 -0.1622 -0.0900  0.0595
 1858POPS   GL122287  31.845  14.257   4.091  0.1659 -0.2231 -0.2445
 1858POPS   GL222288  31.730  14.514   4.240  0.2454 -0.1086 -0.1169
 1858POPS   C1A22289  32.148  14.210   4.494 -0.0024 -0.0962 -0.1176
 1858POPS   D2A22290  32.260  13.783   4.664 -0.1190 -0.1054  0.2863
 1858POPS   C3A22291  32.678  13.802   4.845 -0.0546 -0.0353 -0.1151
 1858POPS   C4A22292  32.950  13.896   5.224 -0.1581 -0.2626  0.0099
 1858POPS   C1B22293  31.869  14.546   4.690 -0.0051  0.1348 -0.1453
 1858POPS   C2B22294  32.079  14.629   5.091  0.0973  0.1645 -0.2210
 1858POPS   C3B22295  32.342  14.894   5.309 -0.1182  0.0370 -0.4094
 1858POPS   C4B22296  32.420  15.057   5.763  0.1460  0.1723 -0.2142
 1859POPS   CNO22297  13.340   7.298   6.661 -0.1360  0.0305  0.0956
 1859POPS   PO422298  13.290   7.276   7.071  0.2642 -0.0425  0.2064
 1859POPS   GL122299  13.554   7.497   7.218 -0.0819 -0.3542 -0.2600
 1859POPS   GL222300  13.404   7.424   7.513 -0.2935  0.0426  0.2114
 1859POPS   C1A22301  13.876   7.294   7.475  0.1249  0.2775  0.2598
 1859POPS   D2A22302  14.178   7.322   7.784 -0.1272  0.0085  0.0720
 1859POPS   C3A22303  14.078   7.580   8.127  0.0411 -0.0850 -0.0691
 1859POPS   C4A22304  13.746   7.758   8.376  0.0142 -0.2691 -0.3435
 1859POPS   C1B22305  13.694   7.291   7.913  0.0779 -0.1127 -0.1418
 1859POPS   C2B22306  14.013   7.095   8.210 -0.0877  0.1788  0.3073
 1859POPS   C3B22307  14.462   7.091   8.104  0.1019  0.1974  0.2212
 1859POPS   C4B22308  14.675   7.211   7.727 -0.5473  0.0096  0.2419
 1860POPS   CNO22309   9.784   5.621  10.773  0.0680 -0.0495 -0.0839
 1860POPS   PO422310   9.445   5.604  10.884  0.0731  0.1207  0.0063
 1860POPS   GL122311   9.150   5.357  10.753  0.1631 -0.0065 -0.0710
 1860POPS   GL222312   9.044   5.459  10.529  0.0232 -0.1452 -0.2525
 1860POPS   C1A22313   8.854   5.250  11.116  0.0170  0.3187 -0.0280
 1860POPS   D2A22314   8.585   5.261  11.468 -0.0954  0.0219 -0.1925
 1860POPS   C3A22315   8.261   5.462  11.216 -0.3194 -0.0700 -0.4057
 1860POPS   C4A22316   7.968   5.287  10.929 -0.0163  0.1146  0.0550
 1860POPS   C1B22317   8.667   5.165  10.672  0.0479  0.0085  0.0077
 1860POPS   C2B22318   8.304   4.904  10.673  0.3799  0.1375 -0.2934
 1860POPS   C3B22319   8.068   4.582  10.913 -0.0973 -0.1166 -0.1645
 1860POPS   C4B22320   7.779   4.265  10.746 -0.3736 -0.1139  0.0490
 1861POPS   CNO22321  14.814   4.461   5.084 -0.2006 -0.2411  0.0507
 1861POPS   PO422322  14.798   4.342   5.434 -0.0549 -0.0905 -0.1864
 1861POPS   GL122323  14.864   4.026   5.723  0.0433 -0.1194  0.1998
 1861POPS   GL222324  14.744   3.757   5.598  0.1906  0.0885  0.2589
 1861POPS   C1A22325  15.202   4.154   6.063  0.0664 -0.2138  0.0401
 1861POPS   D2A22326  15.562   4.184   6.319  0.3046 -0.2235  0.3907
 1861POPS   C3A22327  15.567   3.875   6.575  0.1671 -0.0553 -0.2322
 1861POPS   C4A22328  15.690   3.968   6.989 -0.0135  0.0290  0.2142
 1861POPS   C1B22329  14.542   3.817   5.936  0.0480 -0.1546  0.1583
 1861POPS   C2B22330  14.567   3.821   6.407 -0.0083 -0.0581 -0.0635
 1861POPS   C3B22331  14.607   3.788   6.837  0.1090 -0.0694  0.0061
 1861POPS   C4B22332  14.391   3.800   7.232  0.2183  0.1306 -0.1646
 1862POPS   CNO22333   7.081   3.023   5.931 -0.3464  0.1019 -0.3513
 1862POPS   PO422334   7.196   2.959   6.297  0.3019 -0.0080 -0.0917
 1862POPS   GL122335   7.045   2.798   6.664  0.3024 -0.1879  0.3927
 1862POPS   GL222336   6.826   2.897   6.763  0.1301 -0.1781  0.0137
 1862POPS   C1A22337   6.896   2.492   6.992  0.0622 -0.1126  0.2811
 1862POPS   D2A22338   6.509   2.487   7.263 -0.0165 -0.3818 -0.0421
 1862POPS   C3A22339   6.548   2.141   7.594 -0.0172  0.0697  0.0506
 1862POPS   C4A22340   6.544   1.702   7.588 -0.1773  0.0007 -0.3559
 1862POPS   C1B22341   6.689   2.928   7.166 -0.0260 -0.1773  0.1830
 1862POPS   C2B22342   6.591   2.869   7.576  0.0651  0.0931 -0.0569
 1862POPS   C3B22343   6.869   2.920   7.963  0.0727 -0.2014  0.0776
 1862POPS   C4B22344   7.023   3.151   8.318  0.2783  0.1288 -0.0578
 1863POPS   CNO22345   2.494   6.834   5.173  0.3276  0.1869  0.0604
 1863POPS   PO422346   2.240   7.058   5.086 -0.2052  0.0278 -0.4022
 1863POPS   GL122347   2.176   7.131   5.423 -0.2278 -0.0308  0.0083
 1863POPS   GL222348   2.030   7.360   5.477  0.0978 -0.2949  0.0318
 1863POPS   C1A22349   2.370   6.943   5.819  0.0334  0.0111 -0.2970
 1863POPS   D2A22350   2.350   6.477   5.909 -0.3392 -0.2102 -0.0004
 1863POPS   C3A22351   2.440   6.311   6.358 -0.1531  0.3146 -0.5128
 1863POPS   C4A22352   2.810   6.269   6.649 -0.1237  0.2517  0.0279
 1863POPS   C1B22353   1.924   7.483   5.916 -0.0733  0.1834 -0.0625
 1863POPS   C2B22354   1.913   7.258   6.350  0.1853 -0.1672 -0.0340
 1863POPS   C3B22355   1.855   6.842   6.568  0.1107 -0.3046 -0.0304
 1863POPS   C4B22356   1.887   6.557   6.939  0.2861 -0.2277 -0.2859
 1864POPS   CNO22357  15.638  15.765   3.481  0.0153 -0.1581  0.2169
 1864POPS   PO422358  15.377  15.640   3.764  0.0181 -0.0777  0.0763
 1864POPS   GL122359  15.366  15.596   4.254 -0.1672  0.1055  0.2076
 1864POPS   GL222360  15.567  15.812   4.320  0.2178  0.1671  0.3026
 1864POPS   C1A22361  15.462  15.272   4.567  0.0697  0.0007 -0.0903
 1864POPS   D2A22362  15.300  14.996   4.875 -0.0278  0.3668 -0.3335
 1864POPS   C3A22363  15.591  14.642   4.996  0.3818 -0.0867 -0.2129
 1864POPS   C4A22364  15.637  14.655   5.473 -0.0026  0.1626 -0.0507
 1864POPS   C1B22365  15.896  16.123   4.507  0.0983  0.4242  0.4247
 1864POPS   C2B22366  15.856  16.478   4.695  0.1173 -0.3054 -0.1285
 1864POPS   C3B22367  15.961  16.839   4.992 -0.1920 -0.2934 -0.0153
 1864POPS   C4B22368  15.785  16.929   5.432  0.2421 -0.1941  0.0214
 1865POPS   CNO22369   7.684   5.142   7.368  0.0786  0.1683  0.0479
 1865POPS   PO422370   7.812   5.218   7.683  0.1157 -0.0123  0.1960
 1865POPS   GL122371   7.451   5.100   7.914  0.2726  0.1163 -0.0694
 1865POPS   GL222372   7.622   5.025   8.178  0.1224  0.0805  0.1323
 1865POPS   C1A22373   7.470   4.655   7.824  0.0288  0.0205 -0.0318
 1865POPS   D2A22374   7.644   4.246   7.875  0.0603 -0.1755  0.2623
 1865POPS   C3A22375   7.549   3.971   8.221 -0.3908  0.1765  0.0994
 1865POPS   C4A22376   7.462   3.641   8.557 -0.3496  0.0512  0.0965
 1865POPS   C1B22377   7.207   4.862   8.227 -0.1556 -0.1782  0.2037
 1865POPS   C2B22378   6.833   4.610   8.269 -0.2547 -0.2766 -0.1302
 1865POPS   C3B22379   6.561   4.245   8.104 -0.3169 -0.1477 -0.0151
 1865POPS   C4B22380   6.267   3.990   7.815 -0.1124  0.1971  0.0443
 1866POPS   CNO22381  10.611  11.283   5.767  0.1693 -0.4494 -0.0344
 1866POPS   PO422382  10.943  11.169   5.806  0.2932  0.1878 -0.2876
 1866POPS   GL122383  10.925  11.307   6.113  0.3661  0.3470 -0.2520
 1866POPS   GL222384  10.842  11.620   6.000  0.1745 -0.1889  0.3240
 1866POPS   C1A22385  11.249  11.283   6.361  0.2036 -0.1209 -0.1593
 1866POPS   D2A22386  11.281  11.123   6.835 -0.0431 -0.0261 -0.0091
 1866POPS   C3A22387  11.206  11.416   7.152  0.0045  0.0384 -0.2420
 1866POPS   C4A22388  10.938  11.580   7.437  0.3688  0.3511  0.0803
 1866POPS   C1B22389  11.011  11.691   6.420  0.0233  0.0994 -0.0454
 1866POPS   C2B22390  11.116  11.826   6.835  0.3114 -0.1870 -0.3023
 1866POPS   C3B22391  11.354  12.073   7.145  0.1296 -0.3133  0.1547
 1866POPS   C4B22392  11.607  12.455   7.056 -0.0304  0.1665 -0.2303
 1867POPS   CNO22393   5.242  15.378   4.095  0.1937  0.0697  0.1847
 1867POPS   PO422394   4.949  15.320   4.310 -0.2273 -0.1184 -0.0357
 1867POPS   GL122395   4.952  15.274   4.664  0.0472 -0.0901 -0.0998
 1867POPS   GL222396   4.740  15.408   4.820 -0.0235  0.0056  0.1821
 1867POPS   C1A22397   4.849  14.971   5.004 -0.3825  0.0832 -0.1856
 1867POPS   D2A22398   4.577  14.808   5.393  0.0436  0.1310  0.0549
 1867POPS   C3A22399   4.623  15.060   5.781 -0.1721 -0.1747 -0.3657
 1867POPS   C4A22400   4.290  15.118   6.116 -0.0586  0.0677 -0.1246
 1867POPS   C1B22401   4.651  15.316   5.277 -0.0851  0.0968  0.0788
 1867POPS   C2B22402   4.601  15.554   5.659  0.2893 -0.2526 -0.3976
 1867POPS   C3B22403   4.405  15.682   6.086  0.0080  0.1179  0.0322
 1867POPS   C4B22404   4.235  16.081   6.250 -0.0414 -0.3509 -0.2534
 1868POPS   CNO22405   9.287  10.616   5.899  0.0022 -0.2666  0.2823
 1868POPS   PO422406   9.252  10.954   6.101  0.2029  0.1855  0.0285
 1868POPS   GL122407   9.111  11.098   6.344  0.0677 -0.4144  0.1656
 1868POPS   GL222408   9.012  11.403   6.300 -0.2257  0.1357 -0.2585
 1868POPS   C1A22409   9.391  10.965   6.722 -0.0230  0.2579 -0.1827
 1868POPS   D2A22410   9.387  10.776   7.121 -0.2183  0.1742 -0.3639
 1868POPS   C3A22411   9.265  10.952   7.526 -0.1398 -0.0810  0.0473
 1868POPS   C4A22412   9.271  11.346   7.801  0.0374  0.2415  0.0236
 1868POPS   C1B22413   9.206  11.392   6.764 -0.2868  0.0528  0.0890
 1868POPS   C2B22414   9.420  11.347   7.233  0.1554  0.2084 -0.0398
 1868POPS   C3B22415   9.711  11.204   7.580  0.3325  0.0352 -0.0689
 1868POPS   C4B22416   9.956  11.093   8.049  0.0856  0.2670 -0.1110
 1869POPS   CNO22417  10.927   6.761   9.887 -0.0442  0.1367  0.0578
 1869POPS   PO422418  10.840   6.407   9.876 -0.0267  0.0564  0.2681
 1869POPS   GL122419  11.219   6.390   9.882  0.0858 -0.2146  0.2081
 1869POPS   GL222420  11.252   6.392  10.214  0.0960  0.0842 -0.4868
 1869POPS   C1A22421  11.673   6.426   9.883 -0.1238  0.0506  0.0361
 1869POPS   D2A22422  12.065   6.616  10.118 -0.1275  0.3410  0.1572
 1869POPS   C3A22423  12.325   6.854   9.769  0.2115  0.1952  0.1241
 1869POPS   C4A22424  12.089   7.095   9.416 -0.2586 -0.1125  0.0095
 1869POPS   C1B22425  11.611   6.677  10.411  0.0977  0.1350  0.4110
 1869POPS   C2B22426  11.824   7.045  10.361 -0.0747 -0.2049 -0.1837
 1869POPS   C3B22427  11.726   7.462  10.156 -0.3101 -0.1305 -0.1346
 1869POPS   C4B22428  11.730   7.888   9.996  0.0567 -0.1323 -0.0831
 1870POPS   CNO22429   0.858  16.084   4.326 -0.2141 -0.1817  0.1050
 1870POPS   PO422430   1.030  15.764   4.203 -0.0857  0.0954  0.0547
 1870POPS   GL122431   1.094  15.634   4.553  0.3932  0.0870 -0.2094
 1870POPS   GL222432   1.172  15.415   4.665 -0.1139 -0.1393  0.2571
 1870POPS   C1A22433   0.809  15.753   4.984 -0.3456 -0.0490  0.3139
 1870POPS   D2A22434   0.629  15.985   5.343 -0.0578 -0.3403  0.3062
 1870POPS   C3A22435   0.764  15.900   5.776  0.0064 -0.0145  0.2333
 1870POPS   C4A22436   1.047  15.675   6.038 -0.1432  0.1979 -0.0496
 1870POPS   C1B22437   1.238  15.411   5.107  0.1560  0.2757 -0.0742
 1870POPS   C2B22438   1.412  15.083   5.316  0.1066  0.3516  0.1557
 1870POPS   C3B22439   1.533  14.789   5.631  0.2682 -0.1832 -0.1096
 1870POPS   C4B22440   1.856  14.941   6.026 -0.1738  0.1886  0.3446
 1871POPS   CNO22441  11.235   9.180   6.287  0.0891 -0.0146 -0.1364
 1871POPS   PO422442  11.519   9.269   6.509  0.0177 -0.3065 -0.1817
 1871POPS   GL122443  11.383   9.499   6.867  0.5011 -0.0680 -0.3488
 1871POPS   GL222444  11.331   9.353   7.093 -0.0899 -0.0642  0.0619
 1871POPS   C1A22445  11.397   9.870   7.126 -0.2138  0.0796  0.0495
 1871POPS   D2A22446  11.585   9.936   7.532  0.2140 -0.1039 -0.0770
 1871POPS   C3A22447  11.702   9.656   7.952  0.0969 -0.0235  0.1333
 1871POPS   C4A22448  11.667   9.347   8.368 -0.2086 -0.2257  0.2644
 1871POPS   C1B22449  11.207   9.611   7.499  0.0183  0.2642 -0.1325
 1871POPS   C2B22450  11.071   9.867   7.860  0.0272  0.1499  0.0741
 1871POPS   C3B22451  10.732   9.932   8.138  0.1356  0.1175 -0.0337
 1871POPS   C4B22452  10.576  10.082   8.536 -0.0865 -0.0317  0.2250
 1872POPS   CNO22453   3.900  12.934   4.241 -0.1867  0.4923  0.1146
 1872POPS   PO422454   3.959  12.611   4.056  0.0308  0.3184 -0.0617
 1872POPS   GL122455   3.963  12.439   4.399  0.1314  0.2014 -0.0811
 1872POPS   GL222456   4.165  12.700   4.600  0.0319 -0.2054 -0.1213
 1872POPS   C1A22457   4.225  12.318   4.823 -0.1574  0.4101 -0.0156
 1872POPS   D2A22458   4.412  12.027   5.099  0.3075  0.1982  0.0822
 1872POPS   C3A22459   4.367  11.980   5.566  0.0512 -0.0086  0.0266
 1872POPS   C4A22460   3.998  12.022   5.839  0.2266 -0.1900  0.0470
 1872POPS   C1B22461   3.764  12.715   4.830 -0.0609 -0.2680  0.1580
 1872POPS   C2B22462   3.342  12.815   5.044 -0.0034  0.1592  0.0459
 1872POPS   C3B22463   3.101  13.181   5.199  0.3008  0.0839  0.1772
 1872POPS   C4B22464   2.861  13.241   5.533 -0.2920  0.0020  0.1411
 1873POPS   CNO22465   3.271   2.574   4.366  0.1609 -0.0318 -0.0659
 1873POPS   PO422466   3.190   2.511   4.711 -0.0849 -0.0603 -0.1099
 1873POPS   GL122467   2.992   2.400   5.055 -0.0007 -0.0072  0.0233
 1873POPS   GL222468   3.127   2.338   5.321 -0.2076  0.0602 -0.0083
 1873POPS   C1A22469   2.611   2.269   5.316 -0.0732 -0.0729  0.2313
 1873POPS   D2A22470   2.286   2.351   5.680 -0.0005 -0.0821 -0.1803
 1873POPS   C3A22471   2.120   2.495   5.345  0.0776  0.1355 -0.1321
 1873POPS   C4A22472   2.082   2.907   5.154  0.2370  0.1187  0.1094
 1873POPS   C1B22473   2.902   2.663   5.497 -0.2170 -0.1823  0.2286
 1873POPS   C2B22474   2.602   2.605   5.877 -0.2413  0.1781 -0.1496
 1873POPS   C3B22475   2.292   2.481   6.188  0.0987  0.0784  0.1647
 1873POPS   C4B22476   1.791   2.412   6.339  0.1757 -0.0035 -0.1719
 1874POPS   CNO22477   2.036   3.712   4.691  0.2237 -0.1840  0.1752
 1874POPS   PO422478   2.078   3.969   5.003 -0.1054 -0.0408  0.2351
 1874POPS   GL122479   2.272   3.786   5.403  0.1353 -0.0868  0.2185
 1874POPS   GL222480   2.044   3.764   5.584 -0.0706 -0.0218 -0.1212
 1874POPS   C1A22481   2.268   3.326   5.518  0.2005  0.2336 -0.1838
 1874POPS   D2A22482   2.327   3.086   5.940 -0.1167  0.4805  0.2310
 1874POPS   C3A22483   2.016   2.936   6.186  0.2359  0.1827 -0.2228
 1874POPS   C4A22484   1.836   3.052   6.637  0.0672 -0.1412 -0.0960
 1874POPS   C1B22485   2.080   3.541   6.004  0.1089 -0.3150 -0.2691
 1874POPS   C2B22486   2.171   3.342   6.372  0.1953 -0.2472 -0.0540
 1874POPS   C3B22487   2.402   3.244   6.760  0.0377 -0.1798  0.0030
 1874POPS   C4B22488   2.629   3.204   7.113  0.1744  0.0323 -0.1656
 1875POPS   CNO22489   6.296   3.168   5.392 -0.0668 -0.0754 -0.0169
 1875POPS   PO422490   6.093   3.183   5.691  0.0502  0.0921 -0.2930
 1875POPS   GL122491   5.841   3.241   6.000  0.3237 -0.4506  0.0909
 1875POPS   GL222492   5.600   3.042   6.079 -0.0966  0.2018 -0.0615
 1875POPS   C1A22493   5.737   3.584   6.355  0.2320  0.1692  0.2181
 1875POPS   D2A22494   5.649   3.671   6.766  0.1762 -0.1499  0.2521
 1875POPS   C3A22495   5.274   3.860   6.984 -0.2603  0.1732  0.2538
 1875POPS   C4A22496   5.063   4.109   7.254  0.1079 -0.1498 -0.1124
 1875POPS   C1B22497   5.885   3.095   6.464  0.0219  0.0579 -0.1605
 1875POPS   C2B22498   5.838   3.195   6.966  0.3386  0.0622  0.2652
 1875POPS   C3B22499   5.645   3.228   7.390 -0.0766 -0.3327  0.0658
 1875POPS   C4B22500   5.467   3.454   7.726 -0.1937 -0.2584  0.0714
 1876POPS   CNO22501  10.518   8.021   7.424 -0.1349 -0.0909  0.1238
 1876POPS   PO422502  10.807   8.198   7.541  0.0979  0.1613  0.3187
 1876POPS   GL122503  10.804   8.155   7.873 -0.1219  0.0417  0.1938
 1876POPS   GL222504  11.032   8.269   8.033 -0.1464 -0.3164 -0.1659
 1876POPS   C1A22505  10.659   8.394   8.269 -0.2477 -0.1971  0.2823
 1876POPS   D2A22506  10.265   8.692   8.332  0.0956 -0.1656  0.0675
 1876POPS   C3A22507  10.250   9.042   8.576  0.0149 -0.0704  0.0490
 1876POPS   C4A22508  10.179   9.357   8.951 -0.1346  0.0538  0.0569
 1876POPS   C1B22509  11.195   8.524   8.393 -0.0670 -0.0061  0.0027
 1876POPS   C2B22510  11.474   8.859   8.536  0.0650 -0.1424 -0.0389
 1876POPS   C3B22511  11.578   9.207   8.873  0.0933  0.0902 -0.6284
 1876POPS   C4B22512  12.039   9.298   9.064 -0.0668  0.0959  0.1830
 1877POPS   CNO22513   7.435  10.393   5.508 -0.1876 -0.0047 -0.1742
 1877POPS   PO422514   7.155  10.306   5.735  0.2411  0.0285  0.3237
 1877POPS   GL122515   7.131  10.447   6.109 -0.0593  0.0302 -0.0978
 1877POPS   GL222516   6.902  10.309   6.175 -0.0342  0.0103 -0.0190
 1877POPS   C1A22517   7.154  10.792   6.446  0.1093  0.4368 -0.2967
 1877POPS   D2A22518   6.879  10.885   6.798 -0.0456 -0.0582 -0.3074
 1877POPS   C3A22519   7.001  10.775   7.237 -0.2263  0.0295 -0.3878
 1877POPS   C4A22520   7.129  10.452   7.508 -0.0306 -0.1522 -0.0067
 1877POPS   C1B22521   6.748  10.336   6.563  0.1342  0.0270 -0.0289
 1877POPS   C2B22522   6.725  10.416   7.056  0.2028 -0.0131  0.0466
 1877POPS   C3B22523   6.683  10.147   7.423 -0.0245 -0.0856  0.1505
 1877POPS   C4B22524   6.515   9.743   7.535 -0.1217 -0.0100 -0.1574
 1878POPS   CNO22525   1.290   9.241   4.310  0.3228 -0.0479  0.3054
 1878POPS   PO422526   1.088   9.154   4.627 -0.1158 -0.0305 -0.1143
 1878POPS   GL122527   0.968   9.339   4.948  0.1876 -0.1809 -0.1720
 1878POPS   GL222528   0.670   9.239   4.961  0.2667  0.1374  0.0267
 1878POPS   C1A22529   0.895   9.189   5.379 -0.2986  0.0279 -0.1749
 1878POPS   D2A22530   0.923   9.095   5.840  0.2567  0.0382 -0.2926
 1878POPS   C3A22531   1.248   9.162   6.253 -0.1333 -0.0934  0.1809
 1878POPS   C4A22532   1.278   8.955   6.696 -0.3042 -0.0523 -0.2211
 1878POPS   C1B22533   0.597   9.654   5.162  0.0245 -0.0234  0.0368
 1878POPS   C2B22534   0.445  10.003   5.360 -0.3500 -0.4171  0.1174
 1878POPS   C3B22535   0.673  10.193   5.641  0.0657 -0.0114 -0.0816
 1878POPS   C4B22536   0.850  10.597   5.836  0.2497 -0.1566  0.0886
 1879POPS   CNO22537   6.636   9.624   5.579 -0.4225  0.2924  0.2976
 1879POPS   PO422538   6.507   9.289   5.644 -0.2127 -0.2427  0.0290
 1879POPS   GL122539   6.465   9.511   5.943  0.0703 -0.3809  0.0501
 1879POPS   GL222540   6.402   9.865   5.988 -0.1616  0.3461 -0.1959
 1879POPS   C1A22541   6.353   9.539   6.393 -0.0915  0.3136 -0.0043
 1879POPS   D2A22542   6.543   9.320   6.736 -0.2043 -0.0976  0.1124
 1879POPS   C3A22543   6.320   9.431   7.097  0.0002 -0.1190 -0.2080
 1879POPS   C4A22544   6.107   9.511   7.498 -0.1872 -0.2306  0.2493
 1879POPS   C1B22545   6.404  10.263   6.221  0.0435 -0.1380 -0.1051
 1879POPS   C2B22546   6.308  10.513   6.667 -0.3715 -0.2167 -0.0828
 1879POPS   C3B22547   6.276  10.965   6.848  0.3627  0.1187 -0.2232
 1879POPS   C4B22548   6.481  11.269   7.154  0.0722  0.1150 -0.0213
 1880POPS   CNO22549   0.497   3.727   4.723 -0.0824 -0.0258 -0.1983
 1880POPS   PO422550   0.277   4.040   4.799 -0.0133  0.1115 -0.0486
 1880POPS   GL122551   0.017   4.258   5.171  0.2875  0.2918  0.3059
 1880POPS   GL222552  -0.189   4.100   5.240  0.2402 -0.0378  0.0375
 1880POPS   C1A22553   0.078   4.263   5.631 -0.1697 -0.1529  0.1914
 1880POPS   D2A22554   0.168   4.216   6.064  0.1484 -0.0578  0.3790
 1880POPS   C3A22555  -0.111   4.448   6.351 -0.0475 -0.2031  0.2498
 1880POPS   C4A22556  -0.304   4.480   6.791 -0.1549 -0.2609 -0.0788
 1880POPS   C1B22557  -0.126   3.816   5.623  0.0426  0.0232  0.2267
 1880POPS   C2B22558   0.099   3.636   5.968 -0.2246  0.0081 -0.1953
 1880POPS   C3B22559   0.212   3.392   6.344  0.0685  0.0115 -0.3701
 1880POPS   C4B22560   0.160   3.052   6.658 -0.0672 -0.3068 -0.1226
 1881POPS   CNO22561  10.484   6.177  11.343  0.1129  0.2116  0.2754
 1881POPS   PO422562  10.803   6.400  11.321  0.0371 -0.2577  0.2035
 1881POPS   GL122563  10.782   6.700  11.613 -0.0278  0.0310 -0.4071
 1881POPS   GL222564  10.999   6.703  11.777 -0.1372  0.0230  0.3105
 1881POPS   C1A22565  10.627   6.845  12.053 -0.0690 -0.0691  0.2158
 1881POPS   D2A22566  10.378   7.161  12.308 -0.0650  0.0842 -0.1176
 1881POPS   C3A22567  10.303   7.598  12.306 -0.1181  0.1133 -0.0628
 1881POPS   C4A22568  10.098   7.956  12.107 -0.2585  0.1420 -0.0536
 1881POPS   C1B22569  11.227   6.899  12.100  0.0003  0.1644  0.1929
 1881POPS   C2B22570  11.679   6.941  12.109 -0.2617  0.3801  0.2800
 1881POPS   C3B22571  11.973   7.254  12.354 -0.0689 -0.1912 -0.3173
 1881POPS   C4B22572  11.942   7.737  12.393  0.1999 -0.0412  0.3124
 1882POPS   CNO22573   3.616   9.574   4.390  0.1571  0.0368 -0.0598
 1882POPS   PO422574   3.591   9.476   4.740 -0.1284 -0.3227  0.0554
 1882POPS   GL122575   3.479   9.696   5.102  0.1033 -0.3326 -0.1618
 1882POPS   GL222576   3.454   9.947   4.984  0.0268  0.1371  0.3815
 1882POPS   C1A22577   3.454   9.625   5.544  0.1490  0.0315 -0.1497
 1882POPS   D2A22578   3.291   9.941   5.933  0.2160  0.2329 -0.0711
 1882POPS   C3A22579   2.899   9.808   6.179  0.0014 -0.0515 -0.4713
 1882POPS   C4A22580   2.804   9.595   6.528 -0.1177  0.0704 -0.0601
 1882POPS   C1B22581   3.498  10.110   5.395  0.1951 -0.1502 -0.1540
 1882POPS   C2B22582   3.358  10.371   5.672 -0.0918  0.0756  0.1298
 1882POPS   C3B22583   3.314  10.795   5.898 -0.1435  0.0358 -0.2756
 1882POPS   C4B22584   3.684  11.096   5.838 -0.0802 -0.0638 -0.0211
 1883POPS   CNO22585  10.343   7.154  10.882  0.0782  0.0157  0.1238
 1883POPS   PO422586  10.067   7.256  11.065  0.0424  0.0154  0.1698
 1883POPS   GL122587  10.017   7.597  10.905  0.3145 -0.1978  0.2498
 1883POPS   GL222588  10.241   7.708  10.990  0.5058  0.1389 -0.2856
 1883POPS   C1A22589   9.709   7.931  11.034 -0.2760  0.2545  0.0798
 1883POPS   D2A22590   9.672   8.394  11.105  0.1511 -0.0727  0.3692
 1883POPS   C3A22591   9.693   8.633  11.460 -0.4002  0.0976 -0.0338
 1883POPS   C4A22592   9.823   8.452  11.855  0.1499 -0.1017 -0.0596
 1883POPS   C1B22593  10.186   8.143  10.948 -0.1547 -0.2014 -0.0816
 1883POPS   C2B22594  10.105   8.601  10.919  0.0016 -0.1451 -0.1369
 1883POPS   C3B22595  10.123   8.982  11.246  0.1992 -0.3401 -0.1168
 1883POPS   C4B22596   9.834   9.368  11.427 -0.1903  0.0639  0.1615
 1884POPS   CNO22597   7.722  12.252   4.766 -0.0859 -0.0727 -0.1005
 1884POPS   PO422598   7.461  12.531   4.819  0.1150 -0.0267 -0.0163
 1884POPS   GL122599   7.669  12.559   5.128 -0.1860 -0.2902 -0.0349
 1884POPS   GL222600   7.670  12.335   5.329  0.0769 -0.1475 -0.1850
 1884POPS   C1A22601   7.974  12.906   5.311  0.0044  0.2685 -0.2514
 1884POPS   D2A22602   8.254  13.296   5.400  0.1237 -0.3475 -0.1382
 1884POPS   C3A22603   8.197  13.241   5.872  0.0113 -0.0979  0.0109
 1884POPS   C4A22604   8.197  13.541   6.230  0.0489  0.0025  0.1250
 1884POPS   C1B22605   7.580  12.576   5.687  0.2905  0.0423 -0.0370
 1884POPS   C2B22606   7.369  12.693   6.105 -0.3236 -0.1676  0.3953
 1884POPS   C3B22607   7.101  12.881   6.375  0.1417 -0.0341  0.0958
 1884POPS   C4B22608   7.246  12.915   6.851 -0.2319 -0.1294 -0.2427
 1885POPS   CNO22609   7.609  11.861   5.032  0.0428  0.0477  0.1072
 1885POPS   PO422610   7.299  12.036   5.101 -0.1913  0.0522 -0.1233
 1885POPS   GL122611   7.277  12.147   5.464 -0.0459  0.1132  0.0026
 1885POPS   GL222612   7.123  12.309   5.470  0.2075 -0.1954  0.0778
 1885POPS   C1A22613   7.285  12.031   5.926  0.0286 -0.0742 -0.0064
 1885POPS   D2A22614   7.173  12.157   6.295 -0.2965 -0.2951 -0.1195
 1885POPS   C3A22615   6.987  12.401   6.602 -0.2525 -0.0826  0.0826
 1885POPS   C4A22616   6.746  12.354   6.956  0.0555 -0.0049 -0.0930
 1885POPS   C1B22617   6.869  12.319   5.903 -0.0833 -0.2715  0.0936
 1885POPS   C2B22618   6.673  12.636   6.249  0.1516 -0.2682 -0.1060
 1885POPS   C3B22619   6.223  12.613   6.420  0.0371 -0.1898 -0.0126
 1885POPS   C4B22620   6.051  12.973   6.613  0.1013 -0.0136  0.1505
 1886POPS   CNO22621  13.628  15.408   4.322 -0.1994  0.1280 -0.1067
 1886POPS   PO422622  13.417  15.636   4.548 -0.1211  0.1684  0.2167
 1886POPS   GL122623  13.278  15.502   4.897  0.2192 -0.0908  0.0414
 1886POPS   GL222624  13.163  15.683   4.947  0.4577 -0.0914 -0.3348
 1886POPS   C1A22625  13.557  15.484   5.243  0.0726 -0.1064 -0.0844
 1886POPS   D2A22626  13.901  15.321   5.503  0.1112 -0.0670  0.1804
 1886POPS   C3A22627  13.865  15.426   5.964  0.3336  0.1343 -0.2343
 1886POPS   C4A22628  13.901  15.703   6.293  0.0781 -0.2742 -0.1293
 1886POPS   C1B22629  13.122  15.634   5.421  0.0771 -0.0292  0.0779
 1886POPS   C2B22630  13.141  15.828   5.812  0.0686  0.1374 -0.1421
 1886POPS   C3B22631  13.414  15.860   6.204 -0.0019  0.2408 -0.0889
 1886POPS   C4B22632  13.312  15.777   6.633  0.1263 -0.0687 -0.0098
 1887POPS   CNO22633  13.329  11.592   4.804  0.0571 -0.3770 -0.0671
 1887POPS   PO422634  13.008  11.564   5.020 -0.2286 -0.0304  0.1114
 1887POPS   GL122635  13.102  11.786   5.396  0.3792 -0.2377  0.2110
 1887POPS   GL222636  13.355  11.630   5.414 -0.1091  0.0243  0.2092
 1887POPS   C1A22637  12.827  12.164   5.527 -0.1489  0.1877  0.0860
 1887POPS   D2A22638  12.638  12.267   5.949  0.0791  0.1876  0.0603
 1887POPS   C3A22639  12.589  12.700   6.072  0.1018  0.0461 -0.1104
 1887POPS   C4A22640  12.669  12.924   6.501 -0.1573 -0.3590 -0.0424
 1887POPS   C1B22641  13.439  12.016   5.584 -0.1109 -0.2974  0.0498
 1887POPS   C2B22642  13.537  12.297   5.917  0.2002  0.1381  0.0939
 1887POPS   C3B22643  13.573  12.466   6.380  0.1924 -0.1284 -0.0228
 1887POPS   C4B22644  13.344  12.642   6.751 -0.2725  0.0470 -0.0729
 1888POPS   CNO22645  10.724   6.638   8.943  0.3382 -0.1976 -0.2008
 1888POPS   PO422646  10.888   6.953   9.006  0.1032 -0.0247 -0.4277
 1888POPS   GL122647  11.329   7.046   9.078  0.0598 -0.0277  0.0308
 1888POPS   GL222648  11.233   7.048   9.373 -0.1850 -0.1795 -0.1958
 1888POPS   C1A22649  11.721   7.288   8.985  0.0307 -0.1400  0.1152
 1888POPS   D2A22650  12.161   7.356   8.954  0.0855  0.0245  0.2611
 1888POPS   C3A22651  12.467   7.566   9.283 -0.0151  0.0378 -0.1574
 1888POPS   C4A22652  12.856   7.352   9.476  0.2371  0.2531 -0.1438
 1888POPS   C1B22653  11.423   7.488   9.289  0.2889  0.3326 -0.2010
 1888POPS   C2B22654  11.471   7.918   9.493  0.1504  0.2756  0.0631
 1888POPS   C3B22655  11.441   8.402   9.530 -0.0992 -0.1747 -0.1438
 1888POPS   C4B22656  11.329   8.817   9.673 -0.4631 -0.1674  0.0980
 1889POPS   CNO22657   8.084   5.168   8.234  0.0398  0.0421 -0.2853
 1889POPS   PO422658   8.044   5.470   8.439  0.3710 -0.3318  0.0510
 1889POPS   GL122659   7.694   5.457   8.452  0.0201  0.0505  0.2049
 1889POPS   GL222660   7.641   5.268   8.611 -0.2644 -0.0646 -0.1472
 1889POPS   C1A22661   7.276   5.358   8.300 -0.0596  0.2801  0.1683
 1889POPS   D2A22662   6.799   5.159   8.278 -0.2701 -0.2882  0.0092
 1889POPS   C3A22663   6.474   4.889   8.555 -0.2499 -0.0861  0.3501
 1889POPS   C4A22664   6.183   5.007   8.801 -0.1025 -0.0684  0.0723
 1889POPS   C1B22665   7.399   4.903   8.769  0.3078  0.2078  0.2743
 1889POPS   C2B22666   7.061   4.656   8.735  0.0952 -0.1257  0.3984
 1889POPS   C3B22667   6.604   4.530   8.924 -0.2549  0.1134  0.0392
 1889POPS   C4B22668   6.305   4.556   9.310 -0.1761  0.2471 -0.0334
 1890POPS   CNO22669   1.845   0.702   4.141  0.0511  0.1280 -0.2906
 1890POPS   PO422670   1.920   1.000   4.437 -0.3127  0.0316 -0.0693
 1890POPS   GL122671   1.600   0.775   4.621 -0.1857  0.1948  0.0241
 1890POPS   GL222672   1.413   0.957   4.462 -0.1730 -0.1039 -0.1305
 1890POPS   C1A22673   1.544   0.418   4.944  0.1251  0.2367  0.1828
 1890POPS   D2A22674   1.532   0.050   5.266  0.0910  0.1598 -0.1746
 1890POPS   C3A22675   1.776  -0.341   5.384 -0.2216  0.0825 -0.0690
 1890POPS   C4A22676   1.632  -0.686   5.641  0.2110 -0.3852  0.1046
 1890POPS   C1B22677   1.356   0.919   4.951 -0.3736  0.2732 -0.1825
 1890POPS   C2B22678   1.274   0.643   5.313  0.0071 -0.0860 -0.1907
 1890POPS   C3B22679   1.379   0.330   5.642  0.1060 -0.0866 -0.2114
 1890POPS   C4B22680   1.590  -0.014   5.729  0.2044  0.0656 -0.2504
 1891POPS   CNO22681  12.934  13.127   4.406  0.0379 -0.0388  0.0574
 1891POPS   PO422682  12.783  12.886   4.658 -0.0116 -0.1406  0.0029
 1891POPS   GL122683  13.156  12.987   4.919  0.2218 -0.0620  0.1841
 1891POPS   GL222684  13.088  13.263   4.909 -0.3681  0.1598  0.1927
 1891POPS   C1A22685  13.403  12.874   5.359 -0.1301 -0.1648  0.1106
 1891POPS   D2A22686  13.478  12.861   5.819  0.0839 -0.2461  0.1913
 1891POPS   C3A22687  13.693  12.978   6.235 -0.3796 -0.0721 -0.0603
 1891POPS   C4A22688  13.793  13.346   6.415  0.1281  0.1864  0.2072
 1891POPS   C1B22689  13.312  13.444   5.258 -0.1022 -0.1009 -0.1389
 1891POPS   C2B22690  13.498  13.714   5.540  0.1852  0.0603  0.1812
 1891POPS   C3B22691  13.426  14.008   5.839 -0.0129  0.1261 -0.4062
 1891POPS   C4B22692  13.423  14.420   6.077 -0.3001 -0.1045 -0.1224
 1892POPS   CNO22693  13.567   9.871   5.055  0.3236  0.2925 -0.1819
 1892POPS   PO422694  13.488   9.879   5.433  0.0085  0.0078 -0.3334
 1892POPS   GL122695  13.553  10.063   5.762  0.0565 -0.0378  0.0164
 1892POPS   GL222696  13.774  10.229   5.861 -0.1237 -0.1105 -0.0104
 1892POPS   C1A22697  13.384   9.985   6.199 -0.0983  0.2068  0.0120
 1892POPS   D2A22698  13.097  10.114   6.559 -0.3485 -0.0494  0.2629
 1892POPS   C3A22699  12.980  10.148   6.991  0.0556 -0.0514 -0.2092
 1892POPS   C4A22700  12.656  10.282   7.308 -0.0525 -0.0788 -0.1879
 1892POPS   C1B22701  13.989  10.497   6.225 -0.1495 -0.0941 -0.1623
 1892POPS   C2B22702  14.221  10.723   6.611  0.4247  0.0950  0.3211
 1892POPS   C3B22703  14.213  11.034   6.991 -0.3038 -0.1441  0.0284
 1892POPS   C4B22704  13.881  11.307   6.913  0.0984 -0.0017 -0.0336
 1893POPS   CNO22705   8.642   6.935   8.446  0.1048  0.0111  0.0931
 1893POPS   PO422706   8.482   6.784   8.754 -0.1755 -0.0671  0.1964
 1893POPS   GL122707   8.312   6.855   9.087  0.1549 -0.1432 -0.0015
 1893POPS   GL222708   8.314   6.672   9.344  0.0475  0.0673  0.2916
 1893POPS   C1A22709   8.137   7.191   9.323  0.1246 -0.1645 -0.2876
 1893POPS   D2A22710   7.958   7.406   9.665 -0.2184  0.2811 -0.2172
 1893POPS   C3A22711   7.657   7.737   9.530  0.0974 -0.1813 -0.0510
 1893POPS   C4A22712   7.285   7.965   9.746  0.2453 -0.4302  0.0841
 1893POPS   C1B22713   8.000   6.857   9.652 -0.3071 -0.1218 -0.0049
 1893POPS   C2B22714   7.679   7.072   9.903 -0.0007  0.0185 -0.3399
 1893POPS   C3B22715   7.453   7.358  10.214 -0.0260 -0.2155 -0.1961
 1893POPS   C4B22716   7.687   7.696  10.043  0.0508 -0.1641 -0.2940
 1894POPS   CNO22717   9.110   7.586   8.257 -0.1274  0.2373 -0.0440
 1894POPS   PO422718   9.385   7.707   8.496  0.0584  0.0347 -0.0648
 1894POPS   GL122719   9.438   7.845   8.847  0.1608 -0.2406  0.2472
 1894POPS   GL222720   9.152   8.025   8.807 -0.1292 -0.2252 -0.1011
 1894POPS   C1A22721   9.496   8.146   9.193  0.0094 -0.2379 -0.2545
 1894POPS   D2A22722   9.644   8.581   9.270  0.4380  0.1909 -0.0837
 1894POPS   C3A22723   9.549   8.869   9.590 -0.1218 -0.2745 -0.0827
 1894POPS   C4A22724   9.825   8.990   9.986 -0.0331 -0.1514  0.3485
 1894POPS   C1B22725   9.054   8.336   9.131  0.2197  0.1207  0.0902
 1894POPS   C2B22726   9.171   8.703   9.361  0.4908  0.0075 -0.0636
 1894POPS   C3B22727   9.075   9.147   9.344  0.1776  0.1472  0.0513
 1894POPS   C4B22728   9.047   9.546   9.554 -0.3978  0.0257  0.1009
 1895POPS   CNO22729   4.804   6.594  12.948  0.2673 -0.0149 -0.3882
 1895POPS   PO422730   4.892   6.710  13.292 -0.2109  0.0236  0.2142
 1895POPS   GL122731   5.225   6.500  13.319  0.2939 -0.2342  0.0629
 1895POPS   GL222732   5.345   6.628  13.627  0.1024  0.0099 -0.3009
 1895POPS   C1A22733   5.493   6.185  13.555 -0.0170  0.0640 -0.0692
 1895POPS   D2A22734   5.561   5.783  13.823  0.1717 -0.1572 -0.0567
 1895POPS   C3A22735   5.901   5.789  14.174 -0.1348  0.0531 -0.1680
 1895POPS   C4A22736   6.223   5.734  14.514 -0.1577 -0.2263  0.0724
 1895POPS   C1B22737   5.761   6.595  13.765 -0.0829 -0.0785  0.0161
 1895POPS   C2B22738   6.033   6.640  14.151  0.0783 -0.2314  0.2132
 1895POPS   C3B22739   6.432   6.624  14.396  0.1622 -0.1673 -0.2771
 1895POPS   C4B22740   6.844   6.700  14.267 -0.0128 -0.2357 -0.1898
 1896POPS   CNO22741   3.315   2.074  15.402  0.3021 -0.0674 -0.0864
 1896POPS   PO422742   3.093   1.983  15.691 -0.2682  0.1659  0.1976
 1896POPS   GL122743   3.329   2.005  16.026 -0.1895 -0.0434  0.1074
 1896POPS   GL222744   3.616   2.033  15.957  0.0447 -0.0172 -0.0784
 1896POPS   C1A22745   3.324   2.388  16.359 -0.3079 -0.1932  0.0420
 1896POPS   D2A22746   3.226   2.749  16.656  0.2116 -0.0712 -0.1362
 1896POPS   C3A22747   3.055   3.103  16.842 -0.0909 -0.1007 -0.2106
 1896POPS   C4A22748   2.802   3.257  17.212  0.1748 -0.2552  0.2674
 1896POPS   C1B22749   3.793   2.140  16.363 -0.0180 -0.3068  0.1530
 1896POPS   C2B22750   3.673   2.306  16.842  0.0374 -0.0193  0.4270
 1896POPS   C3B22751   3.497   2.658  17.056  0.0291 -0.1967  0.1740
 1896POPS   C4B22752   3.140   2.848  17.274 -0.2325  0.1153 -0.1422
 1897POPS   CNO22753  10.358   0.957  12.694  0.6037  0.0776  0.2328
 1897POPS   PO422754  10.565   1.081  12.442  0.0534 -0.3561 -0.2272
 1897POPS   GL122755  10.520   1.448  12.516 -0.0539  0.1478 -0.2583
 1897POPS   GL222756  10.764   1.448  12.739  0.1774  0.0564 -0.2222
 1897POPS   C1A22757  10.448   1.872  12.645  0.2100 -0.1696 -0.3426
 1897POPS   D2A22758  10.489   2.324  12.788 -0.1169 -0.1379  0.1781
 1897POPS   C3A22759  10.564   2.763  12.924  0.1323  0.0516  0.0180
 1897POPS   C4A22760  10.491   3.181  12.769  0.1997 -0.0565  0.0216
 1897POPS   C1B22761  10.832   1.931  12.886 -0.1854 -0.3132  0.2626
 1897POPS   C2B22762  11.090   2.298  13.059  0.4166 -0.0485  0.1291
 1897POPS   C3B22763  10.934   2.705  13.230  0.0307 -0.0635 -0.0168
 1897POPS   C4B22764  10.815   3.164  13.264 -0.0636 -0.1738 -0.0346
 1898POPS   CNO22765   8.951  13.640  16.067  0.0313 -0.0842 -0.5570
 1898POPS   PO422766   8.693  13.897  15.919  0.1123 -0.1964  0.2857
 1898POPS   GL122767   8.761  14.036  16.265 -0.0389 -0.0018  0.1129
 1898POPS   GL222768   8.923  13.898  16.503  0.3653 -0.0946 -0.0670
 1898POPS   C1A22769   8.512  14.343  16.547 -0.2007 -0.2008  0.2846
 1898POPS   D2A22770   8.558  14.796  16.582  0.1889  0.0120 -0.0462
 1898POPS   C3A22771   8.576  14.897  17.022  0.0678  0.2451 -0.0692
 1898POPS   C4A22772   8.681  15.070  17.452 -0.2290 -0.0532 -0.1315
 1898POPS   C1B22773   9.218  14.114  16.834 -0.0221  0.0055  0.0218
 1898POPS   C2B22774   9.070  14.194  17.268 -0.0754 -0.0472  0.0980
 1898POPS   C3B22775   9.188  14.173  17.740  0.1673  0.0366  0.2624
 1898POPS   C4B22776   9.057  13.838  18.001 -0.2734  0.0533 -0.0515
 1899POPS   CNO22777   2.753  13.752  16.283 -0.1135  0.1970 -0.1267
 1899POPS   PO422778   3.086  13.613  16.435 -0.0932 -0.2672 -0.2648
 1899POPS   GL122779   3.165  13.685  16.711  0.2232  0.1013  0.1858
 1899POPS   GL222780   3.005  13.606  16.966  0.0880 -0.2533  0.0614
 1899POPS   C1A22781   3.515  13.530  16.936 -0.3745  0.2270 -0.2882
 1899POPS   D2A22782   3.787  13.634  17.325  0.1611 -0.5320  0.1428
 1899POPS   C3A22783   3.765  13.564  17.785  0.0478 -0.1926 -0.0296
 1899POPS   C4A22784   3.740  13.595  18.210  0.0226  0.2566  0.0796
 1899POPS   C1B22785   2.870  13.743  17.409 -0.1444 -0.1716  0.0671
 1899POPS   C2B22786   2.914  13.753  17.820 -0.1391  0.1016  0.0488
 1899POPS   C3B22787   2.686  13.793  18.203  0.3406  0.0315  0.1621
 1899POPS   C4B22788   2.758  13.908  18.615 -0.0941  0.2382 -0.0760
 1900POPS   CNO22789   5.248  15.522  15.891 -0.3959 -0.1797 -0.1323
 1900POPS   PO422790   5.525  15.332  16.050 -0.0136  0.0326 -0.0279
 1900POPS   GL122791   5.402  15.344  16.411  0.0505  0.0883  0.0508
 1900POPS   GL222792   5.264  15.591  16.450  0.0206 -0.1482 -0.0492
 1900POPS   C1A22793   5.605  15.279  16.799  0.1313  0.1203  0.0256
 1900POPS   D2A22794   5.803  15.508  17.180 -0.3622 -0.1539  0.0818
 1900POPS   C3A22795   5.908  15.314  17.598  0.3470 -0.2142 -0.0494
 1900POPS   C4A22796   5.663  14.947  17.816  0.1386 -0.3468  0.1989
 1900POPS   C1B22797   5.444  15.773  16.804  0.0972  0.1696  0.0127
 1900POPS   C2B22798   5.463  15.880  17.217  0.1057 -0.2568  0.1105
 1900POPS   C3B22799   5.702  15.885  17.663  0.2269  0.2729 -0.0810
 1900POPS   C4B22800   5.848  15.611  18.050  0.0387  0.1053 -0.0471
 1901POPS   CNO22801   6.035   9.569  10.872  0.4711  0.0906 -0.1327
 1901POPS   PO422802   6.086   9.817  10.580  0.1906 -0.1387  0.0544
 1901POPS   GL122803   6.150   9.586  10.364  0.2203  0.1567 -0.1620
 1901POPS   GL222804   6.354   9.621  10.147  0.0683 -0.1696 -0.0472
 1901POPS   C1A22805   6.338   9.188  10.370  0.0481 -0.0486 -0.1944
 1901POPS   D2A22806   6.642   9.022  10.108 -0.1162 -0.1516  0.1208
 1901POPS   C3A22807   6.442   8.624  10.167  0.1819  0.3479 -0.0504
 1901POPS   C4A22808   6.211   8.310   9.925  0.1271 -0.1787  0.0185
 1901POPS   C1B22809   6.392   9.342   9.812 -0.2448  0.0727 -0.2228
 1901POPS   C2B22810   6.545   8.987   9.607 -0.0171  0.0776 -0.2742
 1901POPS   C3B22811   6.635   8.551   9.735  0.0614 -0.2400 -0.0204
 1901POPS   C4B22812   6.671   8.171   9.923 -0.1149 -0.0266  0.0206
 1902POPS   CNO22813  14.640   9.034  10.741 -0.4197  0.0782 -0.3532
 1902POPS   PO422814  14.341   9.279  10.611  0.0365 -0.1268 -0.2639
 1902POPS   GL122815  14.042   9.161  10.366  0.1350 -0.2254  0.1812
 1902POPS   GL222816  13.797   9.319  10.457 -0.1735  0.0249  0.0894
 1902POPS   C1A22817  14.091   8.951   9.946 -0.0586 -0.3381 -0.1483
 1902POPS   D2A22818  14.002   8.613   9.593  0.0335 -0.4990 -0.3021
 1902POPS   C3A22819  13.676   8.843   9.357  0.2448 -0.0266 -0.2909
 1902POPS   C4A22820  13.298   8.999   9.068 -0.1145 -0.0074 -0.0824
 1902POPS   C1B22821  13.600   9.034  10.121  0.2190  0.0740  0.1982
 1902POPS   C2B22822  13.555   8.699   9.890  0.1816 -0.1287  0.5597
 1902POPS   C3B22823  13.203   8.687   9.514  0.0005 -0.6672  0.0040
 1902POPS   C4B22824  12.774   8.941   9.567  0.0753 -0.1382 -0.0665
 1903POPS   CNO22825  10.824  13.544  15.934  0.1895  0.2505 -0.1636
 1903POPS   PO422826  10.746  13.855  16.095  0.1092 -0.0540  0.0463
 1903POPS   GL122827  10.550  13.959  16.430 -0.1434 -0.0410 -0.0065
 1903POPS   GL222828  10.457  13.650  16.509 -0.2539 -0.0272 -0.4126
 1903POPS   C1A22829  10.619  14.055  16.880 -0.1956 -0.0998  0.2707
 1903POPS   D2A22830  10.713  13.922  17.269 -0.0724  0.1087 -0.2900
 1903POPS   C3A22831  10.797  14.021  17.684  0.1409  0.0663  0.1164
 1903POPS   C4A22832  10.889  14.081  18.137  0.0010  0.3430 -0.1333
 1903POPS   C1B22833  10.753  13.546  16.883  0.2785 -0.0566 -0.0905
 1903POPS   C2B22834  10.858  13.459  17.296 -0.0557  0.2381 -0.1351
 1903POPS   C3B22835  10.780  13.485  17.742  0.0431 -0.0327 -0.0019
 1903POPS   C4B22836  10.572  13.654  18.127 -0.0490  0.0757 -0.0716
 1904POPS   CNO22837   6.446  10.375  14.976  0.3688 -0.1803 -0.0030
 1904POPS   PO422838   6.581  10.382  15.339 -0.0339 -0.0719 -0.0764
 1904POPS   GL122839   6.596  10.110  15.562  0.1832  0.1776 -0.0562
 1904POPS   GL222840   6.922  10.099  15.709 -0.1678  0.2714  0.0115
 1904POPS   C1A22841   6.760   9.698  15.492  0.0190 -0.0121 -0.0929
 1904POPS   D2A22842   6.800   9.311  15.723 -0.0244 -0.3200 -0.2459
 1904POPS   C3A22843   7.114   9.030  15.916 -0.0807 -0.1949 -0.3701
 1904POPS   C4A22844   7.036   8.682  16.266  0.0489 -0.2041  0.1160
 1904POPS   C1B22845   6.931   9.760  15.998 -0.0137 -0.0454  0.3035
 1904POPS   C2B22846   6.923   9.446  16.285  0.0870 -0.2561 -0.1794
 1904POPS   C3B22847   6.937   9.110  16.607  0.0918  0.0300  0.0641
 1904POPS   C4B22848   7.235   9.005  17.010  0.2601 -0.2321 -0.1064
 1905POPS   CNO22849   1.892   1.528  15.668  0.1042  0.2704  0.0877
 1905POPS   PO422850   2.051   1.231  15.777 -0.0610 -0.0006  0.2978
 1905POPS   GL122851   2.024   1.326  16.169 -0.2935 -0.1854  0.0936
 1905POPS   GL222852   2.116   1.125  16.276 -0.2634  0.0306  0.0394
 1905POPS   C1A22853   1.857   1.561  16.530  0.0898  0.4321  0.2635
 1905POPS   D2A22854   1.726   1.533  17.020  0.1446 -0.2262 -0.0447
 1905POPS   C3A22855   1.687   1.744  17.420 -0.0790  0.0743  0.1404
 1905POPS   C4A22856   1.761   1.884  17.882  0.1510  0.0296 -0.3646
 1905POPS   C1B22857   2.284   1.393  16.567  0.0771 -0.0338  0.2065
 1905POPS   C2B22858   2.560   1.565  16.952  0.1321  0.0128 -0.1006
 1905POPS   C3B22859   2.548   1.440  17.414 -0.1015 -0.0024  0.1945
 1905POPS   C4B22860   2.488   1.341  17.887  0.1972 -0.2656 -0.0272
 1906POPS   CNO22861  14.484   8.866  15.358  0.0830  0.0489 -0.1278
 1906POPS   PO422862  14.492   8.888  15.725 -0.6290  0.3167 -0.1046
 1906POPS   GL122863  14.433   9.123  16.074  0.1951  0.2367  0.2029
 1906POPS   GL222864  14.172   9.043  16.159 -0.1404 -0.0679 -0.0165
 1906POPS   C1A22865  14.503   9.092  16.576  0.1863 -0.1362  0.0953
 1906POPS   D2A22866  14.567   8.950  17.013 -0.1377  0.0120  0.1238
 1906POPS   C3A22867  14.866   9.127  17.303 -0.0354  0.2672  0.0825
 1906POPS   C4A22868  14.998   9.106  17.690 -0.3885 -0.1237  0.0958
 1906POPS   C1B22869  13.919   8.939  16.515 -0.2284  0.2716  0.2665
 1906POPS   C2B22870  13.495   8.809  16.612  0.0175  0.3633 -0.1189
 1906POPS   C3B22871  13.174   8.782  16.957 -0.0594  0.1155  0.0792
 1906POPS   C4B22872  12.894   8.587  17.230 -0.1120 -0.2661 -0.2501
 1907POPS   CNO22873   3.769  14.279  16.405 -0.0372 -0.0601  0.2450
 1907POPS   PO422874   3.787  14.220  16.763 -0.1378 -0.0136 -0.4403
 1907POPS   GL122875   3.678  14.405  17.100 -0.2822  0.0698 -0.0470
 1907POPS   GL222876   3.817  14.161  17.292  0.0829  0.0404  0.1205
 1907POPS   C1A22877   3.877  14.620  17.440  0.0984 -0.0306  0.1223
 1907POPS   D2A22878   3.900  14.948  17.790 -0.0721 -0.4683 -0.0387
 1907POPS   C3A22879   3.825  14.786  18.219 -0.1511  0.2439 -0.0474
 1907POPS   C4A22880   4.040  14.587  18.572 -0.0215 -0.2292  0.1867
 1907POPS   C1B22881   3.621  14.257  17.711 -0.1726 -0.0259  0.0117
 1907POPS   C2B22882   3.515  14.409  18.116  0.5185  0.0767 -0.1357
 1907POPS   C3B22883   3.396  14.706  18.478 -0.0740 -0.0219 -0.1994
 1907POPS   C4B22884   3.572  15.116  18.722  0.1474  0.1455 -0.0430
 1908POPS   CNO22885  14.822   7.419  10.625  0.0755  0.0483  0.2859
 1908POPS   PO422886  14.810   7.818  10.668 -0.0788 -0.2372  0.3507
 1908POPS   GL122887  14.498   7.755  10.488 -0.1754  0.2931 -0.2453
 1908POPS   GL222888  14.397   7.938  10.312 -0.0867  0.4151  0.0762
 1908POPS   C1A22889  14.357   7.409  10.224 -0.5259  0.1111 -0.0674
 1908POPS   D2A22890  14.081   7.311   9.872 -0.2588  0.0959  0.3427
 1908POPS   C3A22891  13.935   6.959   9.633  0.0343  0.1112 -0.3479
 1908POPS   C4A22892  13.542   6.666   9.547  0.1321 -0.1275 -0.0836
 1908POPS   C1B22893  14.075   7.883   9.947 -0.0913 -0.3832  0.0784
 1908POPS   C2B22894  13.705   7.728   9.731  0.1017  0.0658  0.1749
 1908POPS   C3B22895  13.361   7.559   9.456 -0.1312  0.2861  0.2033
 1908POPS   C4B22896  13.106   7.704   9.095 -0.0799  0.3759  0.2087
 1909POPS   CNO22897   2.857   5.719  15.285 -0.0935 -0.0528 -0.1529
 1909POPS   PO422898   2.922   5.406  15.479  0.1065 -0.1170  0.0635
 1909POPS   GL122899   3.049   5.541  15.740  0.0711 -0.2134 -0.1202
 1909POPS   GL222900   2.908   5.767  15.902 -0.3445 -0.1832 -0.2432
 1909POPS   C1A22901   3.410   5.592  16.040  0.0938 -0.1598  0.1657
 1909POPS   D2A22902   3.774   5.669  16.238 -0.1620  0.1002 -0.1164
 1909POPS   C3A22903   3.890   5.475  16.648 -0.1225  0.0868 -0.1517
 1909POPS   C4A22904   4.020   5.192  17.048  0.1878 -0.2003  0.1525
 1909POPS   C1B22905   3.085   5.859  16.278  0.2934 -0.1363 -0.0898
 1909POPS   C2B22906   3.015   5.863  16.735  0.0957 -0.2613 -0.1522
 1909POPS   C3B22907   2.995   5.481  17.031  0.0906 -0.0407 -0.0833
 1909POPS   C4B22908   3.174   5.145  17.324 -0.1114  0.1829  0.1571
 1910POPS   CNO22909  12.860   9.648  11.043 -0.1054  0.1377  0.0653
 1910POPS   PO422910  12.762   9.585  11.427 -0.0759  0.1313 -0.0060
 1910POPS   GL122911  12.606   9.235  11.512 -0.3412 -0.0284  0.0069
 1910POPS   GL222912  12.532   9.027  11.303 -0.0863 -0.0554 -0.0293
 1910POPS   C1A22913  12.210   9.031  11.654 -0.0197  0.0779  0.0990
 1910POPS   D2A22914  12.024   8.672  11.774  0.0282  0.1399 -0.1113
 1910POPS   C3A22915  11.949   8.310  11.508 -0.0788 -0.1459 -0.0928
 1910POPS   C4A22916  11.923   7.865  11.481 -0.0533  0.0403 -0.1847
 1910POPS   C1B22917  12.118   8.951  11.169  0.0121  0.1143 -0.2341
 1910POPS   C2B22918  11.785   8.659  11.163 -0.2556 -0.1756  0.0390
 1910POPS   C3B22919  11.581   8.246  11.021 -0.0897 -0.1345 -0.0029
 1910POPS   C4B22920  11.530   7.776  10.979 -0.1473 -0.0690 -0.1295
 1911POPS   CNO22921   9.439  12.214  10.340 -0.0646  0.0695 -0.1327
 1911POPS   PO422922   9.754  12.123  10.218  0.1244 -0.2597  0.1318
 1911POPS   GL122923   9.439  12.256   9.867  0.3472  0.0681 -0.1266
 1911POPS   GL222924   9.105  12.263   9.826 -0.0754  0.0115  0.1123
 1911POPS   C1A22925   9.531  12.007   9.474 -0.3155  0.1007  0.0748
 1911POPS   D2A22926   9.374  11.623   9.229 -0.1042  0.0152  0.0463
 1911POPS   C3A22927   9.284  11.615   8.793 -0.1778  0.0463  0.2361
 1911POPS   C4A22928   9.008  11.394   8.370  0.0563  0.2883 -0.0983
 1911POPS   C1B22929   9.124  12.192   9.354 -0.1232 -0.1742 -0.2526
 1911POPS   C2B22930   9.095  12.062   8.930  0.1520 -0.0828  0.1789
 1911POPS   C3B22931   9.156  11.951   8.465 -0.1799  0.1908 -0.0408
 1911POPS   C4B22932   9.279  11.731   8.097 -0.2679  0.0816  0.0316
 1912POPS   CNO22933   7.050  10.093  11.449  0.2452 -0.0368 -0.2608
 1912POPS   PO422934   7.004   9.833  11.680 -0.0120  0.1669  0.0294
 1912POPS   GL122935   7.463   9.813  11.539 -0.0256  0.1633 -0.1460
 1912POPS   GL222936   7.400   9.774  11.299  0.2218  0.0248 -0.1766
 1912POPS   C1A22937   7.884   9.999  11.477  0.0275 -0.0008  0.2153
 1912POPS   D2A22938   8.210   9.719  11.295  0.1673 -0.1640 -0.3677
 1912POPS   C3A22939   8.200   9.301  11.311  0.0757  0.0849  0.2720
 1912POPS   C4A22940   8.443   8.878  11.294  0.0329 -0.1235  0.0150
 1912POPS   C1B22941   7.596   9.399  11.300 -0.0707 -0.2540 -0.1023
 1912POPS   C2B22942   7.737   9.004  11.118  0.1184 -0.2953 -0.3145
 1912POPS   C3B22943   7.887   8.693  11.419  0.3132 -0.0462 -0.1298
 1912POPS   C4B22944   7.971   8.301  11.650 -0.1255 -0.1907  0.4085
 1913POPS   CNO22945  13.961   1.624  13.731 -0.0974 -0.0327  0.2975
 1913POPS   PO422946  13.700   1.484  13.971 -0.0371  0.0733  0.0939
 1913POPS   GL122947  13.494   1.748  13.651 -0.1188 -0.0230 -0.3185
 1913POPS   GL222948  13.402   1.944  13.926  0.0585 -0.1117 -0.2209
 1913POPS   C1A22949  13.583   2.120  13.421 -0.0279  0.2536 -0.0533
 1913POPS   D2A22950  13.603   2.588  13.391 -0.2309  0.0438 -0.2945
 1913POPS   C3A22951  13.397   2.864  13.714  0.1056 -0.0020 -0.2598
 1913POPS   C4A22952  13.267   3.166  14.071  0.1050  0.0571  0.0316
 1913POPS   C1B22953  13.172   2.301  13.735 -0.1515 -0.0023 -0.3975
 1913POPS   C2B22954  12.854   2.682  13.692 -0.1942  0.0793  0.2734
 1913POPS   C3B22955  12.459   2.928  13.806  0.0885 -0.1197 -0.1561
 1913POPS   C4B22956  11.984   2.996  13.929 -0.1556 -0.1236  0.1238
 1914POPS   CNO22957   3.524  13.803  16.504 -0.0814  0.0470 -0.1164
 1914POPS   PO422958   3.336  14.104  16.502 -0.2110 -0.0541  0.0217
 1914POPS   GL122959   3.181  14.013  16.912  0.0783 -0.0980 -0.0822
 1914POPS   GL222960   3.371  13.999  17.081 -0.0029  0.1376 -0.1288
 1914POPS   C1A22961   2.798  14.186  17.178  0.0113  0.1629  0.0801
 1914POPS   D2A22962   2.508  14.478  17.392  0.1879  0.1573 -0.0955
 1914POPS   C3A22963   2.585  14.402  17.880 -0.1253  0.1805 -0.1372
 1914POPS   C4A22964   2.663  14.406  18.367  0.0952  0.2658  0.2220
 1914POPS   C1B22965   3.416  13.811  17.561  0.0163 -0.5419 -0.2617
 1914POPS   C2B22966   3.402  13.851  18.017  0.2679 -0.2099 -0.1112
 1914POPS   C3B22967   3.508  13.976  18.421  0.1542 -0.0790 -0.0320
 1914POPS   C4B22968   3.615  14.344  18.721 -0.1787  0.1546  0.0108
 1915POPS   CNO22969   3.949  15.096  16.278  0.2362 -0.1952  0.0088
 1915POPS   PO422970   3.688  14.844  16.282  0.0199  0.0952 -0.5101
 1915POPS   GL122971   3.633  14.970  16.552  0.1312  0.1880  0.1171
 1915POPS   GL222972   3.665  14.799  16.830 -0.0641  0.0276 -0.1055
 1915POPS   C1A22973   3.888  15.322  16.755  0.2682 -0.0484 -0.2628
 1915POPS   D2A22974   4.232  15.396  17.066  0.2193 -0.2798  0.0753
 1915POPS   C3A22975   4.363  15.103  17.430  0.0575  0.0543  0.0331
 1915POPS   C4A22976   4.510  14.891  17.774  0.1909 -0.1753 -0.0289
 1915POPS   C1B22977   3.409  14.864  17.221 -0.1585  0.2671  0.1579
 1915POPS   C2B22978   3.447  14.748  17.671  0.0597 -0.2127  0.2626
 1915POPS   C3B22979   3.382  14.975  18.078 -0.0356 -0.1130  0.0965
 1915POPS   C4B22980   3.169  15.316  18.269  0.1622  0.0313 -0.3272
 1916POPS   CNO22981  15.338   3.815  15.138 -0.2987  0.0449  0.1591
 1916POPS   PO422982  15.609   4.049  15.251 -0.2151 -0.2638 -0.1735
 1916POPS   GL122983  15.419   4.045  15.546 -0.2318 -0.3384  0.1008
 1916POPS   GL222984  15.220   3.906  15.637  0.0747  0.2625 -0.4627
 1916POPS   C1A22985  15.559   4.160  15.973 -0.0776  0.0448 -0.0615
 1916POPS   D2A22986  15.795   4.298  16.329  0.1614  0.0627 -0.0679
 1916POPS   C3A22987  15.678   4.453  16.759 -0.0384  0.0330 -0.1978
 1916POPS   C4A22988  15.575   4.350  17.233  0.0088  0.0396  0.2719
 1916POPS   C1B22989  15.160   3.844  16.087  0.3770 -0.0396 -0.1510
 1916POPS   C2B22990  15.017   3.895  16.543  0.0657 -0.2906 -0.1037
 1916POPS   C3B22991  15.282   3.963  16.925  0.0674 -0.4315  0.0635
 1916POPS   C4B22992  15.656   3.701  17.095  0.1173  0.0198  0.0400
 1917POPS   CNO22993  15.938  11.909  16.284  0.0962 -0.0726 -0.2425
 1917POPS   PO422994  15.934  11.885  16.624  0.1124 -0.0779 -0.1472
 1917POPS   GL122995  16.165  11.904  16.884  0.0068 -0.2207  0.2387
 1917POPS   GL222996  16.212  12.090  17.084 -0.2021  0.1550 -0.2193
 1917POPS   C1A22997  16.236  11.588  17.255  0.3762  0.2044 -0.1110
 1917POPS   D2A22998  16.325  11.107  17.400  0.1646  0.1523  0.2034
 1917POPS   C3A22999  16.436  10.983  17.824 -0.0335 -0.0954 -0.1138
 1917POPS   C4A23000  16.541  10.830  18.216  0.2120 -0.0775 -0.1771
 1917POPS   C1B23001  16.349  11.956  17.495 -0.0029 -0.0919 -0.2142
 1917POPS   C2B23002  16.354  11.704  17.889 -0.1996 -0.1219 -0.4262
 1917POPS   C3B23003  16.015  11.666  18.277 -0.0817 -0.0677  0.3942
 1917POPS   C4B23004  15.582  11.600  18.320 -0.1124  0.2369 -0.3047
 1918POPS   CNO23005   4.956   9.039  14.084 -0.0950  0.0411 -0.2531
 1918POPS   PO423006   5.139   8.673  14.088 -0.0685 -0.2279 -0.2566
 1918POPS   GL123007   5.488   8.703  13.933  0.0308 -0.1873  0.2400
 1918POPS   GL223008   5.554   8.433  13.815 -0.0182 -0.1503 -0.2241
 1918POPS   C1A23009   5.908   8.768  14.187  0.3876  0.1311  0.3116
 1918POPS   D2A23010   6.242   8.755  14.511 -0.0266  0.0559 -0.3318
 1918POPS   C3A23011   6.388   8.322  14.662 -0.0122  0.2122  0.1127
 1918POPS   C4A23012   6.539   8.032  14.982  0.1137 -0.0448  0.1055
 1918POPS   C1B23013   5.820   8.150  14.055 -0.0135 -0.0023 -0.2206
 1918POPS   C2B23014   6.215   8.112  14.256 -0.0229  0.0147  0.0680
 1918POPS   C3B23015   6.501   7.779  14.393  0.4170 -0.0296 -0.0600
 1918POPS   C4B23016   6.762   7.618  14.762 -0.0124 -0.0245 -0.0750
 1919POPS   CNO23017   4.357   5.409  14.319  0.1764 -0.2431 -0.2314
 1919POPS   PO423018   4.378   5.721  14.150 -0.0050  0.2622  0.0170
 1919POPS   GL123019   4.832   5.763  14.246 -0.0840 -0.5060  0.0658
 1919POPS   GL223020   5.068   5.748  14.072  0.4944  0.0042 -0.0289
 1919POPS   C1A23021   4.971   5.715  14.714  0.0301 -0.2605 -0.1713
 1919POPS   D2A23022   4.987   5.313  14.922 -0.0818 -0.0649  0.1917
 1919POPS   C3A23023   4.888   5.259  15.370 -0.3481  0.4006  0.3689
 1919POPS   C4A23024   5.019   4.991  15.766 -0.0074  0.1571 -0.2308
 1919POPS   C1B23025   5.369   5.717  14.436  0.2660  0.1229 -0.2569
 1919POPS   C2B23026   5.758   5.581  14.684 -0.2378 -0.1045  0.0220
 1919POPS   C3B23027   6.134   5.407  14.963  0.0407  0.0125 -0.0809
 1919POPS   C4B23028   6.304   5.542  15.342  0.0879 -0.0278  0.2273
 1920POPS   CNO23029   9.649  12.958   9.812  0.0829  0.0116 -0.1769
 1920POPS   PO423030   9.905  12.665   9.737 -0.1235 -0.0964  0.2723
 1920POPS   GL123031   9.908  12.525   9.423  0.1027  0.1256 -0.3594
 1920POPS   GL223032   9.951  12.620   9.132 -0.1359  0.0749 -0.3200
 1920POPS   C1A23033   9.961  12.117   9.183 -0.0192  0.1447  0.1095
 1920POPS   D2A23034   9.938  11.673   9.131 -0.2061 -0.1461 -0.4253
 1920POPS   C3A23035  10.214  11.377   8.890  0.1165 -0.1205 -0.2308
 1920POPS   C4A23036  10.600  11.380   8.603 -0.1327  0.1108 -0.0924
 1920POPS   C1B23037  10.118  12.389   8.775  0.0145  0.2589 -0.1139
 1920POPS   C2B23038  10.045  12.242   8.382 -0.0350  0.0747 -0.0639
 1920POPS   C3B23039  10.013  11.984   7.974 -0.2245  0.1993  0.1874
 1920POPS   C4B23040  10.117  12.102   7.518 -0.1687 -0.1266  0.0278
 1921POPS   CNO23041   3.713  12.427  16.530 -0.2284  0.0562  0.2476
 1921POPS   PO423042   3.713  12.154  16.801 -0.4027 -0.0055 -0.0345
 1921POPS   GL123043   3.533  12.238  17.152  0.3344 -0.0652  0.1632
 1921POPS   GL223044   3.238  12.369  17.233  0.0438 -0.2206  0.0279
 1921POPS   C1A23045   3.675  12.236  17.607  0.2599  0.1283  0.2930
 1921POPS   D2A23046   3.888  12.530  17.823  0.2046 -0.3751  0.1395
 1921POPS   C3A23047   3.822  12.649  18.290 -0.0903  0.3005  0.1466
 1921POPS   C4A23048   3.685  12.821  18.729 -0.0848 -0.0389 -0.2042
 1921POPS   C1B23049   3.255  12.614  17.614 -0.1117 -0.2532  0.2014
 1921POPS   C2B23050   3.295  12.747  18.007 -0.0521  0.0904  0.1168
 1921POPS   C3B23051   3.023  12.946  18.279  0.1043 -0.3102  0.1435
 1921POPS   C4B23052   2.732  12.771  18.623  0.0518  0.0951 -0.0090
 1922POPS   CNO23053   0.545   2.735  15.476 -0.1456 -0.0392  0.2324
 1922POPS   PO423054   0.532   2.614  15.838  0.0515  0.0094  0.1699
 1922POPS   GL123055   0.402   2.352  16.166  0.1467  0.0745  0.0706
 1922POPS   GL223056   0.333   2.560  16.360  0.2960 -0.1396 -0.2796
 1922POPS   C1A23057   0.663   2.236  16.578 -0.5050 -0.2091  0.3130
 1922POPS   D2A23058   0.808   2.342  17.021  0.0368 -0.1635 -0.4190
 1922POPS   C3A23059   0.663   2.316  17.507 -0.1472  0.0476  0.3517
 1922POPS   C4A23060   0.494   2.604  17.832  0.2145  0.0270 -0.0022
 1922POPS   C1B23061   0.542   2.683  16.754 -0.3329  0.1228  0.2547
 1922POPS   C2B23062   0.402   2.759  17.217  0.2377 -0.0684 -0.2214
 1922POPS   C3B23063   0.154   2.857  17.615  0.1609  0.0306 -0.0254
 1922POPS   C4B23064   0.032   2.791  18.027 -0.0414  0.0654 -0.1559
 1923POPS   CNO23065   2.565  15.804  16.001  0.2108 -0.1395 -0.0608
 1923POPS   PO423066   2.507  16.016  16.302 -0.0287 -0.1891 -0.0322
 1923POPS   GL123067   2.541  15.926  16.680  0.0196 -0.0502  0.1159
 1923POPS   GL223068   2.436  15.678  16.711 -0.0862 -0.1544 -0.0373
 1923POPS   C1A23069   2.707  15.935  17.104  0.1254 -0.2233 -0.0702
 1923POPS   D2A23070   2.843  16.037  17.539 -0.3640 -0.3063  0.1604
 1923POPS   C3A23071   3.280  15.997  17.677  0.2173  0.0405 -0.0090
 1923POPS   C4A23072   3.568  15.806  17.970 -0.0890 -0.0855 -0.2086
 1923POPS   C1B23073   2.510  15.498  17.133  0.0677  0.0506 -0.0877
 1923POPS   C2B23074   2.544  15.381  17.593  0.0123 -0.2604  0.1911
 1923POPS   C3B23075   2.831  15.657  17.858  0.0238  0.3567  0.3023
 1923POPS   C4B23076   2.928  15.925  18.276  0.0423  0.1671 -0.0942
 1924POPS   CNO23077   8.134  11.481  15.423  0.2462  0.1080  0.0218
 1924POPS   PO423078   8.011  11.162  15.636  0.1528  0.0209  0.3950
 1924POPS   GL123079   8.111  10.977  16.009  0.2178 -0.2643 -0.3184
 1924POPS   GL223080   8.046  11.192  16.211 -0.1092  0.2445 -0.0318
 1924POPS   C1A23081   8.193  10.489  16.118  0.1398 -0.0100 -0.0525
 1924POPS   D2A23082   7.993  10.138  16.395 -0.1685 -0.2748  0.1999
 1924POPS   C3A23083   8.208   9.834  16.624 -0.0303 -0.1462 -0.1946
 1924POPS   C4A23084   8.372   9.731  17.008 -0.1129 -0.1381  0.1801
 1924POPS   C1B23085   8.045  11.153  16.664  0.0172 -0.0767 -0.0815
 1924POPS   C2B23086   8.163  10.987  17.040 -0.3998 -0.1457 -0.1022
 1924POPS   C3B23087   8.342  10.905  17.481 -0.2175 -0.1319  0.0600
 1924POPS   C4B23088   8.313  10.841  17.907  0.3307  0.1495  0.0831
 1925POPS   CNO23089   8.302  14.165  15.648  0.0610 -0.1032  0.1318
 1925POPS   PO423090   7.971  14.050  15.720  0.1178 -0.0487  0.3022
 1925POPS   GL123091   7.831  14.260  16.152  0.0140  0.0160  0.2435
 1925POPS   GL223092   7.593  14.398  16.269 -0.0965  0.0834 -0.3651
 1925POPS   C1A23093   7.983  14.071  16.536 -0.1196  0.1435 -0.1737
 1925POPS   D2A23094   8.119  14.229  16.964  0.2346  0.4412  0.0324
 1925POPS   C3A23095   8.315  14.527  17.310  0.0507  0.4591 -0.1029
 1925POPS   C4A23096   8.382  14.719  17.723  0.2511 -0.0881  0.3625
 1925POPS   C1B23097   7.741  14.449  16.703 -0.0456 -0.2385  0.1773
 1925POPS   C2B23098   7.684  14.608  17.138  0.0953 -0.1998 -0.2180
 1925POPS   C3B23099   7.841  14.575  17.608  0.4059  0.0443  0.2587
 1925POPS   C4B23100   7.899  14.893  17.917  0.0204 -0.1367 -0.3004
 1926POPS   CNO23101  12.256   0.639  13.302 -0.2339 -0.1913  0.1284
 1926POPS   PO423102  12.422   0.926  13.052 -0.0083  0.1622  0.4336
 1926POPS   GL123103  12.594   1.311  12.947  0.3055  0.0089  0.0315
 1926POPS   GL223104  12.444   1.353  12.787 -0.0584 -0.0432 -0.1778
 1926POPS   C1A23105  12.540   1.731  13.216  0.2579  0.2584  0.0800
 1926POPS   D2A23106  12.342   1.999  13.542  0.1070 -0.4493 -0.0299
 1926POPS   C3A23107  11.906   2.129  13.498 -0.1519 -0.3564  0.0928
 1926POPS   C4A23108  11.468   2.202  13.370  0.5085 -0.1883  0.2512
 1926POPS   C1B23109  12.256   1.764  12.776 -0.0211  0.0346  0.0737
 1926POPS   C2B23110  12.050   2.238  12.621  0.2041  0.2003 -0.0163
 1926POPS   C3B23111  11.715   2.528  12.447  0.0406  0.1794 -0.0504
 1926POPS   C4B23112  11.745   2.922  12.259  0.2367  0.3230 -0.1047
 1927POPS   CNO23113  16.389   7.605  15.860 -0.1087  0.0079 -0.4127
 1927POPS   PO423114  16.182   7.291  15.960  0.2427  0.1828  0.1636
 1927POPS   GL123115  15.841   7.132  16.145  0.2246  0.0114  0.2906
 1927POPS   GL223116  15.805   7.407  16.296 -0.1540  0.0250  0.2462
 1927POPS   C1A23117  15.886   6.747  16.365 -0.1566 -0.3323  0.0301
 1927POPS   D2A23118  16.285   6.487  16.457  0.1455  0.1931 -0.2274
 1927POPS   C3A23119  16.435   6.606  16.896  0.3862  0.2590 -0.1276
 1927POPS   C4A23120  16.162   6.570  17.293 -0.0577  0.0556 -0.4094
 1927POPS   C1B23121  15.713   7.220  16.675  0.0088 -0.0451  0.1180
 1927POPS   C2B23122  15.609   7.243  17.152 -0.0025 -0.1504 -0.5010
 1927POPS   C3B23123  15.723   7.265  17.608 -0.1123  0.0771 -0.4405
 1927POPS   C4B23124  15.988   7.202  18.018  0.1271 -0.0991  0.1712
 1928POPS   CNO23125  13.148  12.499  16.383 -0.1383  0.2137 -0.1518
 1928POPS   PO423126  12.951  12.678  16.651 -0.1356 -0.1986 -0.2883
 1928POPS   GL123127  13.085  12.467  16.935  0.1072 -0.0663 -0.1448
 1928POPS   GL223128  12.994  12.681  17.152  0.1457 -0.0773 -0.3264
 1928POPS   C1A23129  13.338  12.296  17.299 -0.0758  0.0427 -0.0588
 1928POPS   D2A23130  13.453  12.164  17.703  0.0819  0.0490 -0.3268
 1928POPS   C3A23131  13.213  11.939  18.062 -0.0263 -0.1274 -0.1901
 1928POPS   C4A23132  12.864  11.829  18.399 -0.0283 -0.0046 -0.2108
 1928POPS   C1B23133  13.095  12.635  17.580 -0.0097  0.1201 -0.0986
 1928POPS   C2B23134  12.963  12.720  18.020 -0.2459  0.1484 -0.1147
 1928POPS   C3B23135  12.716  12.847  18.364  0.1373  0.1854 -0.3034
 1928POPS   C4B23136  12.299  12.937  18.396  0.0340  0.1499  0.0625
 1929POPS   CNO23137  15.397   8.481  10.088 -0.2794  0.2161 -0.0157
 1929POPS   PO423138  15.389   8.636   9.771 -0.2872 -0.2781 -0.0045
 1929POPS   GL123139  15.051   8.629   9.616 -0.4237 -0.3487 -0.5085
 1929POPS   GL223140  15.105   8.851   9.411 -0.1826 -0.3257  0.0057
 1929POPS   C1A23141  14.692   8.450   9.419 -0.2722 -0.0525 -0.1198
 1929POPS   D2A23142  14.288   8.507   9.243 -0.1447  0.2775 -0.0686
 1929POPS   C3A23143  13.882   8.365   9.071 -0.1143 -0.1654 -0.0181
 1929POPS   C4A23144  13.455   8.543   9.018 -0.2396  0.1102  0.0557
 1929POPS   C1B23145  14.947   8.819   9.011  0.0372  0.1855 -0.1225
 1929POPS   C2B23146  14.840   8.740   8.560 -0.1380 -0.0203 -0.1801
 1929POPS   C3B23147  14.645   8.825   8.091  0.1050 -0.0128 -0.2595
 1929POPS   C4B23148  14.439   9.208   7.898 -0.2110  0.4336  0.2250
 1930POPS   CNO23149  13.984  14.182  15.968 -0.3567 -0.0110 -0.2999
 1930POPS   PO423150  13.763  14.174  16.269  0.1532 -0.0952 -0.0234
 1930POPS   GL123151  13.828  14.249  16.720  0.0717 -0.1552 -0.0540
 1930POPS   GL223152  13.681  14.548  16.645 -0.1190  0.1270 -0.3455
 1930POPS   C1A23153  13.754  14.311  17.170 -0.1088 -0.0849 -0.2094
 1930POPS   D2A23154  13.754  14.472  17.660  0.2120 -0.0641 -0.1039
 1930POPS   C3A23155  13.555  14.616  18.100  0.0492 -0.1962  0.1045
 1930POPS   C4A23156  13.542  15.059  18.149 -0.0772 -0.0143 -0.3236
 1930POPS   C1B23157  13.334  14.551  16.893  0.0314  0.0816 -0.2113
 1930POPS   C2B23158  13.035  14.707  17.170  0.2342  0.2149 -0.1302
 1930POPS   C3B23159  12.719  14.427  17.356 -0.1874 -0.0816  0.1697
 1930POPS   C4B23160  12.380  14.512  17.614 -0.2011  0.1020 -0.1294
 1931POPS   CNO23161   1.371   9.063  15.660  0.1397  0.1238  0.1893
 1931POPS   PO423162   1.614   8.830  15.878 -0.0195  0.0048  0.0677
 1931POPS   GL123163   1.594   8.677  16.276  0.2370 -0.4353 -0.1822
 1931POPS   GL223164   1.319   8.519  16.306 -0.2458  0.0460 -0.1941
 1931POPS   C1A23165   1.609   8.742  16.742  0.2816 -0.1792 -0.0355
 1931POPS   D2A23166   1.660   8.673  17.194  0.0628 -0.0126  0.0428
 1931POPS   C3A23167   1.791   8.533  17.611 -0.1147  0.1042  0.3200
 1931POPS   C4A23168   2.013   8.395  17.998 -0.1987 -0.1331 -0.1774
 1931POPS   C1B23169   1.002   8.460  16.699  0.0413 -0.0894  0.2222
 1931POPS   C2B23170   0.742   8.372  17.046 -0.4199  0.0913 -0.0223
 1931POPS   C3B23171   0.371   8.424  17.355 -0.0790  0.2213 -0.3118
 1931POPS   C4B23172   0.177   8.347  17.741 -0.0269  0.0564  0.1927
 1932POPS   CNO23173   7.440  10.705  15.362  0.1749 -0.1156  0.1523
 1932POPS   PO423174   7.537  11.048  15.483 -0.0072 -0.2877 -0.2321
 1932POPS   GL123175   7.676  10.741  15.747 -0.2845  0.0306 -0.3874
 1932POPS   GL223176   7.642  10.909  15.959 -0.1399 -0.1683 -0.1772
 1932POPS   C1A23177   7.654  10.325  16.011 -0.3274  0.1648 -0.2050
 1932POPS   D2A23178   7.353  10.014  16.008  0.0309  0.2080 -0.0967
 1932POPS   C3A23179   7.387   9.703  16.315  0.2776 -0.1475  0.1690
 1932POPS   C4A23180   7.402   9.417  16.668 -0.1688 -0.1611 -0.0728
 1932POPS   C1B23181   7.850  10.710  16.370 -0.0834 -0.1172 -0.1797
 1932POPS   C2B23182   7.917  10.531  16.780  0.1802 -0.2125  0.2146
 1932POPS   C3B23183   7.970  10.161  17.046  0.0671 -0.1145  0.1466
 1932POPS   C4B23184   8.117   9.978  17.467  0.0796 -0.0043 -0.1323
 1933POPS   CNO23185  12.900  11.062  15.606 -0.1766  0.1840 -0.2418
 1933POPS   PO423186  12.579  10.914  15.724  0.1025  0.0841  0.1128
 1933POPS   GL123187  12.633  10.577  15.997 -0.1415 -0.0722  0.2258
 1933POPS   GL223188  12.642  10.547  16.297 -0.0398  0.0606 -0.1277
 1933POPS   C1A23189  12.354  10.237  16.071 -0.2305  0.0444  0.0762
 1933POPS   D2A23190  12.256   9.808  16.215 -0.0402 -0.2120  0.1921
 1933POPS   C3A23191  12.020   9.623  16.554 -0.0333 -0.0667 -0.0240
 1933POPS   C4A23192  11.825   9.224  16.650 -0.0358 -0.1618 -0.1351
 1933POPS   C1B23193  12.663  10.147  16.528 -0.0184  0.0145 -0.3214
 1933POPS   C2B23194  12.585   9.839  16.820  0.3180  0.2588 -0.0221
 1933POPS   C3B23195  12.582   9.645  17.231 -0.0260  0.4977 -0.3299
 1933POPS   C4B23196  12.983   9.566  17.529  0.2146 -0.2497  0.0535
 1934POPS   CNO23197  13.501  15.884  15.187 -0.0157  0.0405 -0.2175
 1934POPS   PO423198  13.807  15.775  15.403  0.0271  0.0214  0.1873
 1934POPS   GL123199  13.845  15.944  15.749 -0.2874  0.2310 -0.0910
 1934POPS   GL223200  13.954  15.665  15.922  0.1821 -0.1847 -0.1094
 1934POPS   C1A23201  13.825  16.315  16.024  0.1847  0.2524  0.0919
 1934POPS   D2A23202  13.964  16.763  16.208  0.1918 -0.2290  0.1171
 1934POPS   C3A23203  13.607  17.080  16.350 -0.0453  0.1686 -0.0978
 1934POPS   C4A23204  13.435  17.306  16.687 -0.2364 -0.0918 -0.4196
 1934POPS   C1B23205  13.766  15.613  16.345 -0.1773 -0.1301  0.1394
 1934POPS   C2B23206  13.865  15.795  16.738  0.0345  0.1146  0.1583
 1934POPS   C3B23207  14.045  16.088  17.119 -0.0062 -0.0949 -0.1829
 1934POPS   C4B23208  14.170  16.328  17.532 -0.1430 -0.1208 -0.0222
 1935POPS   CNO23209   2.021  15.171  16.290  0.1781 -0.3799  0.1910
 1935POPS   PO423210   2.298  15.142  16.573  0.1048  0.1255 -0.0695
 1935POPS   GL123211   2.114  15.349  16.770  0.3833 -0.0697  0.0580
 1935POPS   GL223212   1.890  15.477  16.645  0.1033 -0.0171 -0.0039
 1935POPS   C1A23213   2.021  15.350  17.194 -0.2860  0.0314  0.1617
 1935POPS   D2A23214   2.017  15.402  17.628 -0.3920 -0.1114  0.0513
 1935POPS   C3A23215   2.199  15.672  17.959  0.0012 -0.0703 -0.3127
 1935POPS   C4A23216   2.292  15.810  18.407 -0.0379 -0.1490 -0.0916
 1935POPS   C1B23217   1.565  15.532  17.000 -0.1096 -0.1001  0.1106
 1935POPS   C2B23218   1.633  15.793  17.362 -0.0499 -0.1056  0.0895
 1935POPS   C3B23219   1.521  16.014  17.770 -0.0346  0.3289  0.1151
 1935POPS   C4B23220   1.556  16.249  18.188 -0.1670 -0.0606 -0.1899
 1936POPS   CNO23221   8.283  11.034  15.164 -0.1004 -0.3589  0.0752
 1936POPS   PO423222   8.026  10.963  14.903 -0.0051 -0.1047  0.1580
 1936POPS   GL123223   8.049  10.652  15.104  0.0876 -0.2600  0.0394
 1936POPS   GL223224   7.929  10.737  15.348 -0.1215 -0.4278 -0.0303
 1936POPS   C1A23225   8.190  10.229  15.169  0.2003  0.1293 -0.2900
 1936POPS   D2A23226   8.232   9.774  15.335 -0.0279 -0.1900  0.3793
 1936POPS   C3A23227   8.084   9.449  15.626  0.1506 -0.2876 -0.0126
 1936POPS   C4A23228   8.101   9.108  15.933 -0.3714 -0.0515  0.1630
 1936POPS   C1B23229   7.990  10.352  15.642  0.1042 -0.2257  0.2622
 1936POPS   C2B23230   8.201  10.015  15.858  0.1824  0.0164  0.0510
 1936POPS   C3B23231   8.260   9.644  16.077 -0.2312  0.2037 -0.0948
 1936POPS   C4B23232   8.320   9.331  16.380 -0.0524 -0.1609  0.0282
 1937POPS   CNO23233   1.626   7.390  16.000  0.4142  0.1067 -0.1952
 1937POPS   PO423234   1.805   7.678  16.107 -0.1263 -0.0443 -0.0371
 1937POPS   GL123235   1.861   7.582  16.532  0.0818  0.3031  0.2104
 1937POPS   GL223236   1.622   7.326  16.492 -0.2836 -0.3432 -0.0255
 1937POPS   C1A23237   2.224   7.590  16.816  0.0823  0.2434  0.0676
 1937POPS   D2A23238   2.290   7.634  17.293  0.1496  0.3512 -0.0177
 1937POPS   C3A23239   2.580   7.849  17.556 -0.0368  0.1220  0.0047
 1937POPS   C4A23240   2.527   8.219  17.813  0.0003  0.0027  0.0858
 1937POPS   C1B23241   1.413   7.584  16.823  0.1206 -0.1040 -0.5802
 1937POPS   C2B23242   1.494   7.764  17.262 -0.1599 -0.0491 -0.3375
 1937POPS   C3B23243   1.289   7.772  17.704  0.1212 -0.0851 -0.1021
 1937POPS   C4B23244   0.892   7.928  17.839  0.0499 -0.2074 -0.0634
 1938POPS   CNO23245  10.384   0.642  13.427 -0.1909  0.3912  0.2887
 1938POPS   PO423246  10.359   0.884  13.694 -0.0318  0.2432  0.1280
 1938POPS   GL123247  10.297   1.272  13.889 -0.4251  0.2137 -0.0877
 1938POPS   GL223248  10.114   1.249  14.151  0.0021 -0.2199  0.0540
 1938POPS   C1A23249   9.956   1.560  13.764 -0.0569 -0.2037 -0.2593
 1938POPS   D2A23250   9.978   1.991  13.775  0.1738 -0.0362 -0.1980
 1938POPS   C3A23251  10.028   2.275  14.118 -0.1605  0.4228  0.1544
 1938POPS   C4A23252  10.365   2.602  14.227 -0.5068 -0.1334 -0.5264
 1938POPS   C1B23253  10.152   1.747  14.184  0.1073 -0.1217 -0.1297
 1938POPS   C2B23254  10.494   2.037  14.253 -0.1320  0.1995 -0.1550
 1938POPS   C3B23255  10.852   2.023  14.595 -0.2204 -0.0166  0.0177
 1938POPS   C4B23256  11.134   2.285  14.903  0.2634  0.1409  0.0669
 1939POPS   CNO23257  14.057   9.054  15.532  0.1692  0.4972 -0.1111
 1939POPS   PO423258  13.724   8.846  15.565  0.0477  0.2337 -0.0253
 1939POPS   GL123259  13.385   8.669  15.700 -0.0553 -0.0283 -0.0745
 1939POPS   GL223260  13.282   8.466  15.935 -0.0081  0.5365 -0.2262
 1939POPS   C1A23261  13.309   8.889  16.131  0.2105 -0.1643  0.2115
 1939POPS   D2A23262  13.424   9.238  16.347  0.1965 -0.1108 -0.0940
 1939POPS   C3A23263  13.604   9.240  16.794  0.0911 -0.0841  0.1136
 1939POPS   C4A23264  13.731   8.904  17.093  0.1297  0.1968 -0.2056
 1939POPS   C1B23265  13.176   8.426  16.376  0.0783 -0.1002 -0.3933
 1939POPS   C2B23266  12.848   8.418  16.722  0.0261  0.1244  0.3228
 1939POPS   C3B23267  12.779   8.094  17.045 -0.1556  0.1787 -0.1294
 1939POPS   C4B23268  12.978   7.759  17.309  0.0187 -0.1419  0.0880
 1940POPS   CNO23269  16.360   1.032  15.797 -0.1749  0.1814 -0.0179
 1940POPS   PO423270  16.413   0.719  16.051 -0.2590  0.4307  0.1308
 1940POPS   GL123271  16.329   0.730  16.349 -0.0396 -0.2403  0.0949
 1940POPS   GL223272  16.374   0.888  16.595 -0.1192  0.1587 -0.0645
 1940POPS   C1A23273  16.059   0.523  16.656 -0.0881 -0.2505 -0.1302
 1940POPS   D2A23274  15.591   0.419  16.734  0.0935 -0.3921 -0.2211
 1940POPS   C3A23275  15.339   0.587  17.103 -0.0973  0.2034 -0.1296
 1940POPS   C4A23276  15.173   0.418  17.497  0.0091  0.0881 -0.0743
 1940POPS   C1B23277  16.374   1.314  16.765  0.1550 -0.0043 -0.1914
 1940POPS   C2B23278  16.308   1.508  17.166  0.1775 -0.1777  0.3063
 1940POPS   C3B23279  16.356   1.624  17.572  0.1349 -0.2678 -0.1976
 1940POPS   C4B23280  16.304   1.675  18.061 -0.0265 -0.0589 -0.0032
 1941POPS   CNO23281  32.813  14.382  16.036  0.1861 -0.2948 -0.1642
 1941POPS   PO423282  32.642  14.486  16.354 -0.1133  0.1915  0.2308
 1941POPS   GL123283  32.420  14.500  16.706  0.1644 -0.0726  0.2182
 1941POPS   GL223284  32.455  14.178  16.737 -0.0060 -0.1489  0.2194
 1941POPS   C1A23285  32.332  14.841  16.998  0.3026 -0.0328  0.0276
 1941POPS   D2A23286  32.054  15.040  17.287  0.1129 -0.0261 -0.2100
 1941POPS   C3A23287  32.211  15.238  17.670 -0.0400  0.0922  0.0730
 1941POPS   C4A23288  31.958  15.347  18.060  0.1652  0.0443 -0.1877
 1941POPS   C1B23289  32.385  14.239  17.197  0.2672 -0.2720  0.2042
 1941POPS   C2B23290  32.294  14.530  17.574  0.0488  0.2514  0.3115
 1941POPS   C3B23291  32.520  14.676  17.961  0.2975 -0.0726 -0.0732
 1941POPS   C4B23292  32.824  15.056  18.154  0.2043 -0.0572  0.2600
 1942POPS   CNO23293   3.855  11.469  16.326 -0.0613 -0.0114 -0.0544
 1942POPS   PO423294   4.136  11.258  16.246  0.0113 -0.0182 -0.0654
 1942POPS   GL123295   4.074  11.077  16.598 -0.5234  0.2524 -0.1222
 1942POPS   GL223296   4.340  10.840  16.637 -0.2482  0.1275  0.2023
 1942POPS   C1A23297   4.080  10.895  17.045  0.1451 -0.0917  0.1223
 1942POPS   D2A23298   4.065  10.733  17.493  0.1462  0.0948  0.3429
 1942POPS   C3A23299   4.400  10.493  17.730  0.0805  0.1523 -0.1362
 1942POPS   C4A23300   4.748  10.175  17.744  0.3533 -0.1328  0.1645
 1942POPS   C1B23301   4.575  10.482  16.855 -0.0700  0.1447 -0.1215
 1942POPS   C2B23302   4.621  10.024  16.912  0.0301  0.1684 -0.3016
 1942POPS   C3B23303   4.854   9.633  16.964  0.0890  0.1028 -0.2765
 1942POPS   C4B23304   5.018   9.270  17.133  0.2138 -0.0844 -0.0466
 1943POPS   CNO23305  12.597   9.379  14.361 -0.1715  0.3660  0.1232
 1943POPS   PO423306  12.313   9.343  14.077  0.3381  0.2019 -0.3229
 1943POPS   GL123307  12.025   9.048  14.152 -0.2774  0.0773 -0.1640
 1943POPS   GL223308  11.885   9.234  14.339  0.1928 -0.2282 -0.2196
 1943POPS   C1A23309  11.946   8.610  14.194 -0.2155 -0.0641  0.2405
 1943POPS   D2A23310  11.581   8.341  14.128  0.2521 -0.2337  0.0694
 1943POPS   C3A23311  11.674   7.919  14.077  0.1728  0.0922 -0.2939
 1943POPS   C4A23312  11.409   7.528  13.951  0.0641 -0.2234  0.0743
 1943POPS   C1B23313  11.830   8.935  14.641 -0.1482  0.1131  0.0189
 1943POPS   C2B23314  11.583   8.670  14.902 -0.0734 -0.1683  0.1344
 1943POPS   C3B23315  11.438   8.494  15.270  0.2250  0.1972  0.0471
 1943POPS   C4B23316  11.100   8.301  15.507 -0.0289  0.3001  0.0952
 1944POPS   CNO23317   6.068  10.314  15.270 -0.0352  0.0864 -0.0823
 1944POPS   PO423318   5.767  10.072  15.275  0.3124 -0.0814  0.0600
 1944POPS   GL123319   6.126   9.928  15.479  0.1471 -0.1269  0.3367
 1944POPS   GL223320   6.143   9.698  15.437 -0.1007  0.1466  0.2416
 1944POPS   C1A23321   6.385   9.843  15.870 -0.0663  0.0691  0.0313
 1944POPS   D2A23322   6.401   9.476  16.197  0.1549  0.1133 -0.0016
 1944POPS   C3A23323   6.519   9.432  16.611 -0.3564  0.0414  0.1380
 1944POPS   C4A23324   6.901   9.514  16.867  0.0520  0.0290  0.0998
 1944POPS   C1B23325   6.286   9.267  15.591  0.0873  0.1715 -0.1185
 1944POPS   C2B23326   6.382   8.977  15.955  0.0225  0.0620 -0.0824
 1944POPS   C3B23327   6.458   8.896  16.397 -0.3238 -0.2672  0.0874
 1944POPS   C4B23328   6.464   8.646  16.849 -0.1489 -0.3812  0.2629
 1945POPS   CNO23329  32.604   3.542  15.384  0.1828 -0.1040  0.0071
 1945POPS   PO423330  32.687   3.896  15.410  0.0513  0.3062  0.2187
 1945POPS   GL123331  32.486   3.872  15.784 -0.2445  0.0664  0.1397
 1945POPS   GL223332  32.272   3.672  15.878  0.0511 -0.3923 -0.2974
 1945POPS   C1A23333  32.688   3.901  16.173  0.2860  0.1042 -0.0072
 1945POPS   D2A23334  32.899   3.770  16.513 -0.1778 -0.3095 -0.0724
 1945POPS   C3A23335  32.866   3.684  16.952 -0.2763  0.1883  0.3265
 1945POPS   C4A23336  32.661   3.851  17.308 -0.1163  0.0265 -0.0880
 1945POPS   C1B23337  32.301   3.666  16.289  0.0280 -0.4286 -0.0455
 1945POPS   C2B23338  32.428   3.918  16.649  0.3239  0.0051 -0.1269
 1945POPS   C3B23339  32.193   4.135  16.973  0.2923 -0.0915 -0.1980
 1945POPS   C4B23340  31.922   4.153  17.399 -0.0284  0.1815  0.2388
 1946POPS   CNO23341   2.100   4.917  20.224 -0.0085 -0.1819 -0.2834
 1946POPS   PO423342   2.022   4.692  19.934 -0.0787  0.0119 -0.1742
 1946POPS   GL123343   2.180   4.773  19.591  0.2451 -0.2858  0.0499
 1946POPS   GL223344   2.058   4.558  19.421 -0.1563 -0.0370  0.0383
 1946POPS   C1A23345   2.352   5.000  19.266 -0.2303  0.3872  0.0100
 1946POPS   D2A23346   2.160   5.291  18.981 -0.4600 -0.2002  0.0158
 1946POPS   C3A23347   1.790   5.508  19.161  0.2459 -0.0277 -0.1902
 1946POPS   C4A23348   1.335   5.350  19.195  0.0599 -0.0549 -0.1123
 1946POPS   C1B23349   1.789   4.170  19.280 -0.3261  0.0883  0.2237
 1946POPS   C2B23350   1.939   3.879  18.974  0.0493 -0.0006  0.1203
 1946POPS   C3B23351   1.766   3.723  18.568 -0.0257 -0.0350  0.0633
 1946POPS   C4B23352   1.916   3.797  18.154 -0.0500 -0.3682 -0.2357
 1947POPS   CNO23353  13.131  14.745  20.277  0.3294  0.1889 -0.1199
 1947POPS   PO423354  13.250  14.392  20.265 -0.0565  0.4851 -0.0894
 1947POPS   GL123355  13.143  14.373  19.817 -0.4468  0.0294 -0.2201
 1947POPS   GL223356  12.865  14.473  19.829  0.1398  0.0095  0.0027
 1947POPS   C1A23357  13.290  14.382  19.406 -0.0706 -0.3268  0.1815
 1947POPS   D2A23358  13.499  14.402  18.943 -0.1003  0.2934  0.1650
 1947POPS   C3A23359  13.341  14.104  18.571 -0.1661  0.0271 -0.2926
 1947POPS   C4A23360  13.192  13.961  18.191 -0.2612 -0.1129 -0.0997
 1947POPS   C1B23361  12.757  14.431  19.396  0.2135 -0.0252  0.0354
 1947POPS   C2B23362  13.005  14.349  19.006  0.0924  0.2612  0.0640
 1947POPS   C3B23363  13.074  14.495  18.614  0.0756  0.3983 -0.5476
 1947POPS   C4B23364  13.066  14.770  18.299  0.0493  0.0797 -0.0744
 1948POPS   CNO23365   9.156   3.010  17.603  0.1116  0.2941 -0.2391
 1948POPS   PO423366   8.866   2.943  17.355 -0.2049  0.3683  0.0868
 1948POPS   GL123367   8.813   2.619  17.177  0.0138  0.0239  0.1234
 1948POPS   GL223368   9.134   2.532  17.153  0.1256  0.0776  0.2039
 1948POPS   C1A23369   8.542   2.405  16.833 -0.1110  0.1286 -0.2125
 1948POPS   D2A23370   8.548   2.366  16.342 -0.0908  0.1130 -0.2249
 1948POPS   C3A23371   8.722   1.994  16.085 -0.2663  0.0488 -0.0365
 1948POPS   C4A23372   8.708   1.796  15.675 -0.0597  0.0568  0.2000
 1948POPS   C1B23373   8.961   2.084  17.014  0.1412 -0.4138 -0.0615
 1948POPS   C2B23374   8.758   1.922  16.687  0.0669  0.2777 -0.0453
 1948POPS   C3B23375   8.279   1.968  16.576  0.0668  0.1978  0.0486
 1948POPS   C4B23376   7.967   2.068  16.279  0.0189  0.0347 -0.3377
 1949POPS   CNO23377   3.726  10.260  20.768 -0.0535 -0.2624  0.2147
 1949POPS   PO423378   3.632  10.593  20.637 -0.1014  0.0045 -0.0886
 1949POPS   GL123379   3.661  10.322  20.339  0.3071  0.1446  0.1457
 1949POPS   GL223380   3.442  10.344  20.195  0.0145  0.1945  0.3165
 1949POPS   C1A23381   3.872  10.382  19.901 -0.1331  0.1100  0.1212
 1949POPS   D2A23382   4.171  10.407  19.575  0.1246  0.2223 -0.0369
 1949POPS   C3A23383   4.066  10.595  19.201  0.1283 -0.1467  0.1246
 1949POPS   C4A23384   3.791  10.530  18.874 -0.1549 -0.0816  0.3757
 1949POPS   C1B23385   3.397  10.439  19.713 -0.0616  0.0093  0.0930
 1949POPS   C2B23386   3.717  10.256  19.381 -0.3025  0.0649 -0.1602
 1949POPS   C3B23387   3.947  10.096  19.022 -0.5125 -0.3369 -0.1824
 1949POPS   C4B23388   3.893  10.049  18.608 -0.2235  0.1458  0.1299
 1950POPS   CNO23389  14.033   6.549  20.042 -0.0495 -0.0453 -0.1538
 1950POPS   PO423390  14.167   6.573  19.700  0.3292  0.1340 -0.0631
 1950POPS   GL123391  14.166   6.716  19.374 -0.2090  0.2784  0.1129
 1950POPS   GL223392  14.425   6.781  19.245  0.0048  0.3949 -0.1913
 1950POPS   C1A23393  14.081   6.482  18.941 -0.1019 -0.0672 -0.0108
 1950POPS   D2A23394  13.993   6.474  18.487  0.0721  0.0767  0.2156
 1950POPS   C3A23395  13.995   6.277  18.108  0.3570  0.4325 -0.1843
 1950POPS   C4A23396  13.973   6.279  17.642 -0.1961 -0.1451  0.2455
 1950POPS   C1B23397  14.592   7.173  19.111 -0.1885  0.0337 -0.0606
 1950POPS   C2B23398  14.655   7.469  18.715 -0.0746 -0.0195 -0.0719
 1950POPS   C3B23399  14.717   7.774  18.355 -0.1098 -0.2282  0.0516
 1950POPS   C4B23400  14.772   8.084  18.023  0.2278 -0.1355 -0.0805
 1951POPS   CNO23401  32.394   5.073  20.010 -0.1630 -0.3068  0.0924
 1951POPS   PO423402  32.441   4.802  19.732 -0.1744 -0.0088  0.2404
 1951POPS   GL123403  32.641   4.633  19.419  0.0732  0.4155  0.1603
 1951POPS   GL223404  32.618   4.774  19.187 -0.0928  0.0770 -0.0109
 1951POPS   C1A23405  32.922   4.374  19.110 -0.3583  0.1164  0.0286
 1951POPS   D2A23406  33.115   4.460  18.652 -0.0304  0.2173 -0.0852
 1951POPS   C3A23407  33.294   4.521  18.217  0.0420 -0.0750 -0.0038
 1951POPS   C4A23408  33.587   4.766  17.963  0.3291  0.0712  0.1626
 1951POPS   C1B23409  32.467   5.060  18.856 -0.0777 -0.0571  0.1416
 1951POPS   C2B23410  32.445   5.182  18.429  0.1189  0.1007 -0.1405
 1951POPS   C3B23411  32.087   5.323  18.172 -0.0822 -0.1118  0.2278
 1951POPS   C4B23412  31.630   5.305  18.167  0.1096  0.0617  0.2581
 1952POPS   CNO23413   2.046   1.307  20.239 -0.1458  0.0775 -0.3928
 1952POPS   PO423414   2.286   1.547  20.035  0.2325  0.0864 -0.1348
 1952POPS   GL123415   2.485   1.389  19.771 -0.2884 -0.3276  0.3403
 1952POPS   GL223416   2.347   1.116  19.788  0.1875 -0.1185 -0.0002
 1952POPS   C1A23417   2.912   1.348  19.563 -0.0979 -0.0950 -0.2683
 1952POPS   D2A23418   3.135   1.098  19.258  0.0800  0.2974 -0.0142
 1952POPS   C3A23419   3.436   0.736  19.285  0.3156  0.0598  0.1558
 1952POPS   C4A23420   3.253   0.396  19.009 -0.2166  0.0793 -0.0183
 1952POPS   C1B23421   2.272   0.778  19.518  0.1480  0.2238 -0.0212
 1952POPS   C2B23422   2.172   0.744  19.078  0.3083 -0.1084  0.0192
 1952POPS   C3B23423   2.297   0.844  18.688  0.0439 -0.2969 -0.0525
 1952POPS   C4B23424   2.493   1.212  18.394  0.2038 -0.0853  0.0215
 1953POPS   CNO23425   2.820   1.666  20.149 -0.3715  0.3962 -0.0141
 1953POPS   PO423426   3.154   1.745  19.990  0.0667 -0.2371 -0.3114
 1953POPS   GL123427   3.212   1.919  19.647 -0.3493 -0.2503  0.2505
 1953POPS   GL223428   3.346   1.675  19.490  0.0751 -0.1078 -0.4122
 1953POPS   C1A23429   2.901   1.805  19.341  0.1099 -0.0828  0.2461
 1953POPS   D2A23430   2.861   1.788  18.890 -0.1486  0.0919 -0.1153
 1953POPS   C3A23431   2.467   1.743  18.640 -0.2126 -0.0293 -0.2205
 1953POPS   C4A23432   2.186   1.697  18.280  0.2950 -0.1204  0.1184
 1953POPS   C1B23433   3.281   1.516  19.045 -0.0878  0.2086  0.0370
 1953POPS   C2B23434   3.536   1.480  18.639 -0.1805  0.0301 -0.1111
 1953POPS   C3B23435   3.570   1.844  18.288 -0.0346  0.1216  0.0311
 1953POPS   C4B23436   3.624   2.157  17.902  0.1982  0.3511  0.1615
 1954POPS   CNO23437  13.245  32.711  20.148  0.0122  0.0459 -0.0883
 1954POPS   PO423438  12.901  32.740  20.295 -0.1034  0.2069 -0.0003
 1954POPS   GL123439  12.840  32.552  20.029  0.0392 -0.1617 -0.1082
 1954POPS   GL223440  12.767  32.755  19.833  0.2326 -0.1772  0.0670
 1954POPS   C1A23441  13.107  32.516  19.634 -0.1893 -0.1390 -0.0920
 1954POPS   D2A23442  13.422  32.369  19.351 -0.1779  0.1300 -0.0355
 1954POPS   C3A23443  13.676  32.751  19.142 -0.1893 -0.0468 -0.2407
 1954POPS   C4A23444  14.031  32.823  18.890 -0.1423 -0.0897  0.3002
 1954POPS   C1B23445  12.740  32.728  19.366 -0.0759 -0.1009  0.1073
 1954POPS   C2B23446  12.967  32.549  19.007  0.3634 -0.1120 -0.0753
 1954POPS   C3B23447  12.860  32.569  18.568 -0.3544  0.2455  0.4068
 1954POPS   C4B23448  12.573  32.345  18.249 -0.4071 -0.0726  0.1723
 1955POPS   CNO23449   3.631   4.945  19.894  0.0133  0.2977  0.0868
 1955POPS   PO423450   3.671   4.920  19.535  0.0347  0.1823 -0.0095
 1955POPS   GL123451   3.459   5.336  19.365 -0.0506  0.1252 -0.0214
 1955POPS   GL223452   3.356   5.114  19.172  0.0730 -0.2031  0.2457
 1955POPS   C1A23453   3.483   5.570  18.891 -0.0320  0.0247 -0.1700
 1955POPS   D2A23454   3.368   5.517  18.445  0.0906  0.0947  0.0585
 1955POPS   C3A23455   3.097   5.664  18.113 -0.0198  0.0006  0.1410
 1955POPS   C4A23456   2.817   5.952  17.903 -0.2196 -0.2468 -0.0462
 1955POPS   C1B23457   3.500   5.087  18.695  0.1488 -0.0486  0.3375
 1955POPS   C2B23458   3.265   5.061  18.260 -0.0208 -0.2870  0.0215
 1955POPS   C3B23459   3.134   4.921  17.859  0.0358 -0.0778 -0.2237
 1955POPS   C4B23460   3.031   4.629  17.467  0.4104 -0.0168  0.4379
 1956POPS   CNO23461   8.811  15.481  20.011 -0.0839 -0.3350  0.0406
 1956POPS   PO423462   9.045  15.757  20.062 -0.0848  0.1546 -0.0941
 1956POPS   GL123463   8.983  15.654  19.604 -0.4430 -0.0237  0.2178
 1956POPS   GL223464   8.909  15.898  19.461 -0.3224 -0.1755  0.1161
 1956POPS   C1A23465   8.595  15.383  19.472 -0.1021  0.1172 -0.3603
 1956POPS   D2A23466   8.419  14.965  19.432 -0.1694 -0.1221 -0.2327
 1956POPS   C3A23467   8.248  14.823  18.998  0.0163 -0.3515 -0.0348
 1956POPS   C4A23468   8.255  14.481  18.704  0.1505 -0.1421 -0.1937
 1956POPS   C1B23469   8.770  15.686  19.082  0.1136 -0.0146  0.3570
 1956POPS   C2B23470   8.678  15.575  18.656 -0.2051 -0.1347  0.1071
 1956POPS   C3B23471   8.715  15.347  18.252 -0.3467 -0.0904 -0.0417
 1956POPS   C4B23472   8.954  15.168  17.880 -0.0343 -0.2332 -0.1317
 1957POPS   CNO23473  11.295  10.970  20.619 -0.1366 -0.0068  0.1102
 1957POPS   PO423474  11.213  11.156  20.294 -0.3494 -0.0568 -0.1674
 1957POPS   GL123475  11.301  11.394  19.990 -0.2086 -0.1671  0.2224
 1957POPS   GL223476  11.444  11.207  19.777  0.1840 -0.1622 -0.0086
 1957POPS   C1A23477  11.090  11.743  19.781  0.1037 -0.2237 -0.0714
 1957POPS   D2A23478  10.683  11.683  19.672 -0.2453 -0.0696  0.1256
 1957POPS   C3A23479  10.444  11.980  19.355 -0.1645  0.0672 -0.2567
 1957POPS   C4A23480  10.329  12.390  19.136 -0.1728  0.2961  0.0423
 1957POPS   C1B23481  11.106  11.281  19.485  0.1744  0.3786  0.3745
 1957POPS   C2B23482  11.122  11.269  19.039  0.1807  0.1070 -0.0449
 1957POPS   C3B23483  10.979  11.087  18.675  0.4966 -0.0311 -0.1773
 1957POPS   C4B23484  11.031  10.914  18.266  0.3972  0.1289 -0.0683
 1958POPS   CNO23485  10.114   5.414  12.569 -0.2618 -0.2719 -0.1925
 1958POPS   PO423486   9.961   5.071  12.607  0.2672  0.1299 -0.1259
 1958POPS   GL123487  10.022   4.620  12.679 -0.3247 -0.2456  0.1119
 1958POPS   GL223488   9.915   4.443  12.965 -0.0251  0.0845 -0.2105
 1958POPS   C1A23489   9.630   4.397  12.593  0.0941  0.1456  0.0297
 1958POPS   D2A23490   9.670   4.139  12.222 -0.4193  0.0206 -0.1091
 1958POPS   C3A23491   9.313   4.051  11.903 -0.1887 -0.1748  0.2518
 1958POPS   C4A23492   9.182   3.783  11.492  0.1559 -0.0101 -0.2996
 1958POPS   C1B23493  10.064   4.075  12.749  0.2542  0.0691  0.2033
 1958POPS   C2B23494  10.255   3.682  12.532  0.3374  0.0523 -0.0494
 1958POPS   C3B23495  10.445   3.374  12.258  0.0992 -0.0083  0.0973
 1958POPS   C4B23496  10.835   3.285  12.106  0.1033  0.1121 -0.0814
 1959POPS   CNO23497  13.548  12.368  20.776 -0.3542  0.1230  0.2534
 1959POPS   PO423498  13.803  12.171  20.550  0.1029 -0.0599  0.0445
 1959POPS   GL123499  14.001  11.934  20.445 -0.2425  0.2456 -0.3167
 1959POPS   GL223500  13.984  11.656  20.321 -0.2458  0.0600  0.1299
 1959POPS   C1A23501  14.206  12.046  20.059 -0.1213 -0.4299 -0.1756
 1959POPS   D2A23502  14.077  11.983  19.601 -0.1004  0.1132  0.1436
 1959POPS   C3A23503  13.627  12.129  19.593 -0.1191 -0.1665 -0.2311
 1959POPS   C4A23504  13.321  12.357  19.821 -0.0483  0.1582 -0.2145
 1959POPS   C1B23505  14.124  11.277  20.332 -0.2365 -0.1164 -0.2106
 1959POPS   C2B23506  14.157  11.029  19.968  0.1137 -0.2448 -0.2956
 1959POPS   C3B23507  14.510  11.070  19.702 -0.0204 -0.1315  0.0863
 1959POPS   C4B23508  14.698  11.277  19.369 -0.1529 -0.0716  0.0887
 1960POPS   CNO23509   0.371   0.632  20.443 -0.2351  0.0706 -0.0373
 1960POPS   PO423510   0.675   0.426  20.371  0.0661  0.1846  0.2505
 1960POPS   GL123511   0.677   0.193  20.027 -0.1393  0.1789  0.1059
 1960POPS   GL223512   0.508  -0.056  19.853 -0.2752  0.2904 -0.3105
 1960POPS   C1A23513   0.782   0.467  19.619  0.1485  0.0048  0.2007
 1960POPS   D2A23514   0.860   0.382  19.199  0.2201 -0.3320  0.3979
 1960POPS   C3A23515   1.128   0.467  18.811 -0.2221 -0.0539 -0.3545
 1960POPS   C4A23516   1.328   0.763  18.499  0.1146 -0.1289 -0.0452
 1960POPS   C1B23517   0.659   0.018  19.434  0.0767 -0.0705  0.1304
 1960POPS   C2B23518   0.597  -0.238  19.049  0.1892  0.0447  0.1496
 1960POPS   C3B23519   0.402  -0.349  18.652 -0.0829  0.2669 -0.3476
 1960POPS   C4B23520   0.028  -0.240  18.403  0.0389  0.4237  0.0758
 1961POPS   CNO23521  32.687   9.964  20.608 -0.1841  0.0726  0.3911
 1961POPS   PO423522  32.984   9.962  20.365  0.1193 -0.1571  0.0352
 1961POPS   GL123523  33.225   9.811  20.132  0.2601  0.0491 -0.0982
 1961POPS   GL223524  33.197   9.511  20.090  0.3270  0.0313  0.5222
 1961POPS   C1A23525  33.464   9.806  19.736  0.2084 -0.0184  0.1308
 1961POPS   D2A23526  33.873   9.999  19.624  0.0222  0.1122 -0.2143
 1961POPS   C3A23527  34.031  10.300  19.370  0.1182 -0.3420 -0.0437
 1961POPS   C4A23528  34.111  10.438  18.921  0.0796 -0.0444 -0.0414
 1961POPS   C1B23529  32.950   9.745  19.757  0.1256 -0.2194 -0.0643
 1961POPS   C2B23530  32.880   9.611  19.324 -0.1921  0.0612  0.0304
 1961POPS   C3B23531  32.728   9.628  18.857 -0.0217 -0.1341 -0.0385
 1961POPS   C4B23532  32.705   9.479  18.440 -0.0608 -0.1396 -0.3674
 1962POPS   CNO23533  10.460   5.695  11.284  0.2255  0.2695 -0.1870
 1962POPS   PO423534  10.727   5.514  11.428 -0.4178 -0.1248 -0.1932
 1962POPS   GL123535  10.634   5.159  11.552  0.2226  0.1591  0.0852
 1962POPS   GL223536  10.774   4.954  11.786 -0.0170  0.1334 -0.0697
 1962POPS   C1A23537  10.436   4.785  11.386 -0.0508 -0.1103 -0.0210
 1962POPS   D2A23538  10.558   4.455  11.111  0.3615 -0.1625 -0.1921
 1962POPS   C3A23539  10.448   4.016  11.189  0.0466  0.2044  0.1836
 1962POPS   C4A23540  10.529   3.548  11.221 -0.2352  0.1255 -0.0426
 1962POPS   C1B23541  11.114   4.616  11.766 -0.2946  0.3355  0.0208
 1962POPS   C2B23542  11.345   4.304  12.059 -0.0443 -0.0850  0.2349
 1962POPS   C3B23543  11.640   3.959  12.303 -0.2184  0.0527 -0.4291
 1962POPS   C4B23544  11.983   4.116  12.622  0.3840  0.1329  0.0750
 1963POPS   CNO23545   3.068  13.234  20.820 -0.2023  0.1351 -0.1200
 1963POPS   PO423546   3.427  13.315  20.822 -0.0249  0.0707  0.0935
 1963POPS   GL123547   3.207  13.453  20.413 -0.1129  0.2102 -0.0685
 1963POPS   GL223548   3.124  13.258  20.253 -0.1014  0.1589  0.1041
 1963POPS   C1A23549   3.340  13.685  20.028 -0.1108 -0.1414 -0.2740
 1963POPS   D2A23550   3.388  13.844  19.653 -0.3652 -0.1290  0.1290
 1963POPS   C3A23551   3.665  14.179  19.617  0.2837  0.1780 -0.1664
 1963POPS   C4A23552   3.793  14.271  19.189  0.0598 -0.1005 -0.3043
 1963POPS   C1B23553   3.287  13.045  19.916 -0.3608  0.1592 -0.0012
 1963POPS   C2B23554   3.306  12.934  19.457  0.1059  0.1996 -0.1129
 1963POPS   C3B23555   3.141  12.808  19.097 -0.3608  0.1862  0.5131
 1963POPS   C4B23556   3.216  12.598  18.712 -0.0756  0.2125 -0.2862
 1964POPS   CNO23557   8.572   4.243  15.349  0.0862 -0.1996  0.4812
 1964POPS   PO423558   8.364   4.565  15.492  0.0504  0.1828 -0.2232
 1964POPS   GL123559   8.149   4.254  15.351  0.1161  0.1626  0.1316
 1964POPS   GL223560   7.973   4.278  15.102  0.0900 -0.0032 -0.2488
 1964POPS   C1A23561   7.936   3.814  15.285 -0.1104 -0.1723  0.0636
 1964POPS   D2A23562   7.989   3.511  14.862  0.0819  0.2857 -0.0398
 1964POPS   C3A23563   8.034   3.050  14.976  0.2823  0.3340  0.0536
 1964POPS   C4A23564   8.165   2.705  14.699 -0.1490  0.0669 -0.0147
 1964POPS   C1B23565   7.797   3.989  14.793 -0.0019 -0.2106  0.1158
 1964POPS   C2B23566   7.337   3.969  14.840 -0.0773 -0.0023 -0.1468
 1964POPS   C3B23567   6.939   3.722  14.943  0.2025 -0.1862  0.0878
 1964POPS   C4B23568   6.461   3.755  14.949  0.0944  0.0574  0.2109
 1965POPS   CNO23569  10.781   5.391  16.326  0.1175 -0.0312 -0.1586
 1965POPS   PO423570  11.081   5.218  16.261  0.0333  0.3040  0.2201
 1965POPS   GL123571  11.431   5.347  16.326  0.0676 -0.1393 -0.1368
 1965POPS   GL223572  11.584   5.241  16.523 -0.0181  0.0290 -0.0848
 1965POPS   C1A23573  11.684   5.668  16.093 -0.0993 -0.3026  0.2006
 1965POPS   D2A23574  11.959   5.902  15.828  0.1907  0.0969  0.0159
 1965POPS   C3A23575  11.930   6.309  16.013  0.2849 -0.3163  0.0188
 1965POPS   C4A23576  11.682   6.636  16.171  0.4080  0.1671  0.1239
 1965POPS   C1B23577  11.968   5.185  16.299  0.2246  0.1587 -0.0091
 1965POPS   C2B23578  12.202   5.166  15.879 -0.3254  0.2395 -0.3718
 1965POPS   C3B23579  12.388   4.838  15.728 -0.2765  0.1872 -0.1274
 1965POPS   C4B23580  12.409   4.544  15.373 -0.2579  0.1861  0.0526
 1966POPS   CNO23581   5.571   2.827  19.571  0.1102  0.2299 -0.1584
 1966POPS   PO423582   5.402   2.645  19.272  0.2329 -0.0890  0.0588
 1966POPS   GL123583   5.103   2.563  19.008 -0.1083 -0.2084  0.4464
 1966POPS   GL223584   5.152   2.712  18.770 -0.0862 -0.2395 -0.0099
 1966POPS   C1A23585   5.020   2.204  18.660 -0.0451  0.0238 -0.4444
 1966POPS   D2A23586   4.964   1.763  18.490  0.2075  0.2253  0.0868
 1966POPS   C3A23587   4.789   1.636  18.040 -0.1457  0.1940 -0.1837
 1966POPS   C4A23588   4.979   1.634  17.616 -0.1309 -0.1480 -0.0064
 1966POPS   C1B23589   5.035   2.605  18.345 -0.2797 -0.3414 -0.2638
 1966POPS   C2B23590   4.734   2.669  17.983 -0.1037  0.3392 -0.0709
 1966POPS   C3B23591   4.488   2.602  17.596 -0.0267  0.1632 -0.2005
 1966POPS   C4B23592   4.061   2.535  17.330 -0.3482  0.0039 -0.2598
 1967POPS   CNO23593   0.938   5.800  20.407 -0.0166  0.2365 -0.0571
 1967POPS   PO423594   0.756   5.898  20.087 -0.2495  0.3184  0.0132
 1967POPS   GL123595   0.894   5.774  19.737 -0.3639 -0.0255  0.2571
 1967POPS   GL223596   0.747   5.543  19.658 -0.1236  0.3012 -0.2702
 1967POPS   C1A23597   1.225   5.869  19.382 -0.1181  0.1127 -0.5000
 1967POPS   D2A23598   1.520   6.196  19.420 -0.2298 -0.0704  0.2500
 1967POPS   C3A23599   1.645   6.266  18.974 -0.0970  0.1595  0.2383
 1967POPS   C4A23600   1.814   6.107  18.510 -0.0629 -0.1323 -0.0799
 1967POPS   C1B23601   0.704   5.806  19.227 -0.0179 -0.0072  0.1864
 1967POPS   C2B23602   0.634   5.735  18.784  0.1198 -0.1332  0.0833
 1967POPS   C3B23603   0.468   5.829  18.372  0.2604 -0.2066 -0.0742
 1967POPS   C4B23604   0.530   5.959  17.968 -0.3191  0.2585  0.0558
 1968POPS   CNO23605   8.503  11.578  20.185 -0.0400  0.0309 -0.2849
 1968POPS   PO423606   8.114  11.712  20.257  0.4489 -0.2163  0.2143
 1968POPS   GL123607   8.234  11.861  19.924 -0.2778 -0.2526 -0.1371
 1968POPS   GL223608   8.491  11.876  19.791  0.1499 -0.0102 -0.4257
 1968POPS   C1A23609   8.169  12.316  19.747 -0.0696  0.0116  0.2473
 1968POPS   D2A23610   8.106  12.735  19.546  0.1778 -0.1563 -0.0918
 1968POPS   C3A23611   8.517  12.944  19.498 -0.1779 -0.2250 -0.2632
 1968POPS   C4A23612   8.959  12.906  19.549  0.2600 -0.2637  0.1983
 1968POPS   C1B23613   8.558  12.029  19.385  0.2050 -0.0644 -0.3694
 1968POPS   C2B23614   8.605  12.130  18.910  0.0679 -0.1701  0.0637
 1968POPS   C3B23615   8.440  12.462  18.673 -0.2019 -0.0490 -0.0091
 1968POPS   C4B23616   8.013  12.618  18.565 -0.0704 -0.1656 -0.0692
 1969POPS   CNO23617  32.760   6.598  20.226 -0.2365  0.1018  0.1368
 1969POPS   PO423618  32.856   6.589  19.869  0.1322  0.1571  0.0020
 1969POPS   GL123619  32.985   6.536  19.465  0.1362 -0.0014 -0.0932
 1969POPS   GL223620  33.083   6.273  19.481  0.2976  0.1780 -0.2815
 1969POPS   C1A23621  32.818   6.419  19.021 -0.1603 -0.2448  0.0184
 1969POPS   D2A23622  32.703   6.027  18.816 -0.0786  0.2105 -0.1446
 1969POPS   C3A23623  32.771   6.016  18.371  0.1273  0.1548 -0.1102
 1969POPS   C4A23624  32.881   6.282  17.988 -0.2777 -0.1740  0.0946
 1969POPS   C1B23625  33.336   6.486  19.160  0.0196  0.3098  0.1016
 1969POPS   C2B23626  33.671   6.378  18.816  0.0971  0.0731  0.3894
 1969POPS   C3B23627  33.748   6.081  18.472  0.1047  0.1105  0.1143
 1969POPS   C4B23628  34.122   5.898  18.422 -0.0428 -0.3498 -0.0738
 1970POPS   CNO23629   9.898  10.580  19.567 -0.0397 -0.1789  0.0524
 1970POPS   PO423630   9.593  10.380  19.467  0.0387 -0.0304 -0.0435
 1970POPS   GL123631   9.630  10.527  19.111 -0.1243 -0.2590 -0.1205
 1970POPS   GL223632   9.696  10.291  18.967  0.0827 -0.1023  0.0337
 1970POPS   C1A23633   9.816  10.917  18.992  0.0943 -0.3999 -0.3438
 1970POPS   D2A23634  10.155  11.207  19.011 -0.2243 -0.1236  0.1546
 1970POPS   C3A23635  10.272  11.659  18.982 -0.1720  0.1784 -0.1478
 1970POPS   C4A23636  10.432  11.999  18.740  0.4636  0.0901 -0.1755
 1970POPS   C1B23637   9.582  10.580  18.576  0.1275 -0.0219  0.0057
 1970POPS   C2B23638   9.570  10.810  18.143  0.0675  0.4378  0.0339
 1970POPS   C3B23639   9.401  10.786  17.716  0.0598  0.1287 -0.0784
 1970POPS   C4B23640   9.543  10.725  17.276 -0.0987  0.2704  0.0509
 1971POPS   CNO23641  13.953   2.293  19.890  0.2369  0.4741  0.0857
 1971POPS   PO423642  13.627   2.429  19.792  0.0814 -0.2709 -0.0753
 1971POPS   GL123643  13.796   2.150  19.524  0.2684 -0.0107 -0.0695
 1971POPS   GL223644  13.832   2.411  19.315 -0.3338 -0.0352  0.2518
 1971POPS   C1A23645  13.839   2.010  19.067 -0.0286  0.1730 -0.0070
 1971POPS   D2A23646  13.764   1.977  18.599  0.2088  0.1573  0.2040
 1971POPS   C3A23647  14.046   1.855  18.255 -0.2048 -0.1651  0.1125
 1971POPS   C4A23648  14.248   1.811  17.831  0.1053 -0.5855 -0.0836
 1971POPS   C1B23649  13.744   2.811  19.133 -0.1680  0.1948  0.4450
 1971POPS   C2B23650  13.779   2.911  18.663 -0.4193  0.2993  0.2586
 1971POPS   C3B23651  14.158   3.021  18.322  0.0802 -0.3256  0.0967
 1971POPS   C4B23652  14.304   2.815  17.960  0.1862  0.0223  0.0860
 1972POPS   CNO23653   1.453  14.014  21.036  0.0644 -0.0293  0.0261
 1972POPS   PO423654   1.779  13.870  21.149 -0.0865 -0.0466  0.0080
 1972POPS   GL123655   1.784  14.142  20.735  0.2566 -0.0316 -0.1723
 1972POPS   GL223656   1.660  14.206  20.480 -0.5031 -0.2484 -0.3408
 1972POPS   C1A23657   2.039  13.898  20.433 -0.0589  0.1246  0.0282
 1972POPS   D2A23658   2.285  13.612  20.120  0.1202  0.1513 -0.0729
 1972POPS   C3A23659   2.407  13.673  19.650  0.1060  0.1142 -0.2137
 1972POPS   C4A23660   2.221  13.954  19.281 -0.1856  0.0896 -0.0137
 1972POPS   C1B23661   1.634  14.311  20.009 -0.1652  0.2355 -0.1009
 1972POPS   C2B23662   1.883  14.353  19.659 -0.1698 -0.3288 -0.0560
 1972POPS   C3B23663   1.786  14.396  19.167  0.2544  0.0212  0.0195
 1972POPS   C4B23664   1.468  14.379  18.736 -0.0720  0.2464 -0.1394
 1973POPS   CNO23665   8.702  10.362  19.571  0.1268  0.2061  0.1526
 1973POPS   PO423666   8.763  10.014  19.554  0.1423 -0.0245  0.1085
 1973POPS   GL123667   8.677  10.235  19.142  0.2491  0.1399 -0.0334
 1973POPS   GL223668   8.787  10.091  18.930 -0.0216  0.1327 -0.0133
 1973POPS   C1A23669   8.322  10.372  18.849  0.1383 -0.0533 -0.0009
 1973POPS   D2A23670   8.176  10.783  18.567 -0.2529 -0.1296 -0.3442
 1973POPS   C3A23671   7.763  10.822  18.675  0.0988  0.3896 -0.0688
 1973POPS   C4A23672   7.369  10.756  18.523  0.1205  0.0790 -0.1293
 1973POPS   C1B23673   8.719  10.387  18.545 -0.3995  0.1291 -0.2581
 1973POPS   C2B23674   8.397  10.417  18.208  0.3564 -0.0112  0.0177
 1973POPS   C3B23675   8.095  10.378  17.867  0.0476  0.0690  0.1712
 1973POPS   C4B23676   8.033  10.433  17.413  0.2041 -0.1225 -0.2092
 1974POPS   CNO23677   7.166   4.165  17.696  0.1476 -0.0757 -0.3084
 1974POPS   PO423678   7.338   4.153  17.349  0.2242 -0.1599 -0.2313
 1974POPS   GL123679   6.993   4.245  17.221 -0.4175  0.0517 -0.0171
 1974POPS   GL223680   6.976   4.049  17.052  0.1813 -0.2511 -0.0867
 1974POPS   C1A23681   6.633   4.308  16.900  0.0596 -0.1169  0.0010
 1974POPS   D2A23682   6.234   4.181  16.810  0.2145  0.0224  0.3773
 1974POPS   C3A23683   5.818   4.111  16.596 -0.2117  0.0566 -0.4889
 1974POPS   C4A23684   5.522   4.027  16.265 -0.0361  0.1801 -0.0663
 1974POPS   C1B23685   6.847   3.843  16.703  0.0731 -0.0342 -0.1790
 1974POPS   C2B23686   6.439   3.711  16.501  0.0777 -0.4046 -0.1121
 1974POPS   C3B23687   6.023   3.612  16.627  0.3464  0.1027  0.0598
 1974POPS   C4B23688   5.558   3.595  16.495  0.0284 -0.1233 -0.1667
 1975POPS   CNO23689   9.813   2.773  17.062  0.0186  0.0315 -0.1511
 1975POPS   PO423690   9.753   3.038  16.863 -0.2550 -0.0048 -0.2982
 1975POPS   GL123691   9.990   2.929  16.636  0.1209 -0.4386  0.1010
 1975POPS   GL223692   9.922   2.962  16.345 -0.5659 -0.1331 -0.1519
 1975POPS   C1A23693   9.951   2.462  16.637  0.3674  0.0112  0.0799
 1975POPS   D2A23694   9.700   2.108  16.371 -0.0806  0.1212  0.0381
 1975POPS   C3A23695   9.632   1.624  16.510  0.0420 -0.0605 -0.1666
 1975POPS   C4A23696   9.319   1.265  16.405 -0.2991  0.3334  0.0012
 1975POPS   C1B23697   9.550   2.636  16.387  0.2048 -0.0846  0.0539
 1975POPS   C2B23698   9.238   2.519  16.082 -0.0520  0.1264  0.5241
 1975POPS   C3B23699   9.228   2.173  15.699 -0.1404 -0.0198  0.0913
 1975POPS   C4B23700   9.539   2.066  15.372  0.0014  0.0249 -0.0679
 1976POPS   CNO23701   9.120  13.887  20.408 -0.0764  0.1425 -0.0421
 1976POPS   PO423702   9.065  13.685  20.093 -0.0339 -0.2928  0.3311
 1976POPS   GL123703   9.018  13.439  19.700  0.2799 -0.2269 -0.3403
 1976POPS   GL223704   9.272  13.344  19.672 -0.0363 -0.0755  0.0162
 1976POPS   C1A23705   8.955  13.543  19.300 -0.0374  0.1492  0.0049
 1976POPS   D2A23706   8.902  13.549  18.815 -0.3726  0.0385  0.2245
 1976POPS   C3A23707   9.080  13.815  18.506 -0.1000 -0.2792  0.2366
 1976POPS   C4A23708   9.090  14.267  18.393  0.0995 -0.2894  0.1821
 1976POPS   C1B23709   9.426  13.304  19.240  0.1126 -0.1253  0.0997
 1976POPS   C2B23710   9.672  13.218  18.877 -0.0104 -0.0021 -0.0229
 1976POPS   C3B23711  10.033  13.154  18.616 -0.0025 -0.1175  0.2513
 1976POPS   C4B23712  10.309  12.806  18.374 -0.0835 -0.0147  0.1070
 1977POPS   CNO23713  15.056  10.798  20.446  0.3862 -0.0627 -0.0762
 1977POPS   PO423714  15.094  10.441  20.344 -0.1890 -0.0119 -0.0837
 1977POPS   GL123715  15.129  10.680  20.020  0.1938 -0.3987 -0.0850
 1977POPS   GL223716  15.344  10.883  20.030 -0.0484 -0.0401  0.0177
 1977POPS   C1A23717  14.854  10.516  19.683 -0.1075  0.0710  0.3112
 1977POPS   D2A23718  14.386  10.412  19.609 -0.0159 -0.0094  0.1018
 1977POPS   C3A23719  14.041  10.799  19.576  0.1658 -0.0309 -0.1653
 1977POPS   C4A23720  13.948  11.287  19.457 -0.1237 -0.0554 -0.1620
 1977POPS   C1B23721  15.528  10.822  19.639 -0.0962  0.0478 -0.0484
 1977POPS   C2B23722  15.888  10.693  19.408 -0.2019  0.1233 -0.0873
 1977POPS   C3B23723  16.138  10.911  19.074 -0.1130  0.0913 -0.1925
 1977POPS   C4B23724  16.089  11.373  18.886 -0.0374 -0.0440 -0.2208
 1978POPS   CNO23725   1.127   1.233  20.502 -0.1841  0.0144  0.2196
 1978POPS   PO423726   1.154   1.198  20.096  0.1541 -0.0694  0.0772
 1978POPS   GL123727   0.952   1.403  19.760  0.3020 -0.1735  0.1932
 1978POPS   GL223728   1.131   1.257  19.580 -0.3146  0.1195 -0.0192
 1978POPS   C1A23729   0.991   1.829  19.539 -0.1104 -0.2578 -0.0805
 1978POPS   D2A23730   0.792   1.948  19.102 -0.2139  0.1626 -0.0330
 1978POPS   C3A23731   0.691   2.037  18.660  0.1796  0.0065 -0.0636
 1978POPS   C4A23732   0.587   2.056  18.225 -0.1767  0.1220 -0.0916
 1978POPS   C1B23733   1.479   1.504  19.387 -0.1254 -0.0766  0.1238
 1978POPS   C2B23734   1.660   1.629  19.010  0.2667  0.0760  0.0541
 1978POPS   C3B23735   1.659   2.015  18.682  0.1692 -0.2823 -0.0845
 1978POPS   C4B23736   1.598   2.333  18.326 -0.0007 -0.1044  0.0812
 1979POPS   CNO23737  13.845   0.178  20.665  0.1132 -0.2256 -0.3114
 1979POPS   PO423738  14.068   0.174  20.397 -0.0305 -0.2082  0.3747
 1979POPS   GL123739  13.763  -0.056  20.074 -0.2759  0.1407  0.0783
 1979POPS   GL223740  13.743  -0.282  20.072  0.0352 -0.2006  0.0805
 1979POPS   C1A23741  13.463   0.106  19.727 -0.0424  0.3680  0.0867
 1979POPS   D2A23742  13.032   0.240  19.568 -0.1828 -0.1700 -0.0937
 1979POPS   C3A23743  13.199   0.194  19.080 -0.1212 -0.3238  0.0678
 1979POPS   C4A23744  13.334   0.037  18.649  0.1635  0.1257  0.1368
 1979POPS   C1B23745  13.892  -0.136  19.652 -0.1339 -0.2044  0.0679
 1979POPS   C2B23746  14.197  -0.322  19.354 -0.1768 -0.0925 -0.1819
 1979POPS   C3B23747  14.277  -0.483  18.994 -0.1739  0.0809 -0.3214
 1979POPS   C4B23748  14.389  -0.360  18.518 -0.0234  0.2300 -0.1524
 1980POPS   CNO23749   8.294   1.619  19.117  0.0664  0.1133  0.1712
 1980POPS   PO423750   8.261   1.664  18.741  0.2489 -0.0586 -0.2570
 1980POPS   GL123751   7.999   1.506  18.493 -0.0777  0.1197 -0.2754
 1980POPS   GL223752   8.145   1.221  18.566 -0.0965 -0.1853  0.0582
 1980POPS   C1A23753   7.591   1.332  18.613 -0.0480 -0.1115  0.3244
 1980POPS   D2A23754   7.160   1.198  18.822 -0.0627 -0.0241 -0.1591
 1980POPS   C3A23755   7.120   0.767  18.870 -0.1782 -0.2324  0.3260
 1980POPS   C4A23756   6.968   0.356  18.790 -0.1837 -0.1148 -0.1435
 1980POPS   C1B23757   8.391   0.946  18.230 -0.0708  0.3460  0.2628
 1980POPS   C2B23758   8.323   0.625  17.964  0.1578  0.1196 -0.3379
 1980POPS   C3B23759   8.435   0.234  17.778 -0.1180 -0.1013  0.1694
 1980POPS   C4B23760   8.557   0.060  17.366  0.2825 -0.2131 -0.0046
 1981POPS   CNO23761  30.809   9.770  20.364 -0.1791  0.3118 -0.1810
 1981POPS   PO423762  31.201   9.772  20.325  0.1084  0.3167 -0.0449
 1981POPS   GL123763  31.420   9.785  19.900 -0.0046  0.1954 -0.1929
 1981POPS   GL223764  31.596   9.570  19.797 -0.4180 -0.1251  0.0491
 1981POPS   C1A23765  31.588  10.148  19.633 -0.1691 -0.0191 -0.0324
 1981POPS   D2A23766  31.904  10.418  19.425 -0.1306 -0.1405 -0.0173
 1981POPS   C3A23767  32.264  10.361  19.082  0.3053  0.2845  0.0314
 1981POPS   C4A23768  32.471  10.399  18.660 -0.1447 -0.1620  0.3194
 1981POPS   C1B23769  31.597   9.639  19.334  0.0438  0.0701  0.0084
 1981POPS   C2B23770  31.859   9.499  18.986 -0.0488 -0.0060 -0.0739
 1981POPS   C3B23771  32.236   9.216  18.943 -0.2130  0.0223 -0.3950
 1981POPS   C4B23772  32.558   8.893  18.924 -0.2435 -0.0508 -0.0901
 1982POPS   CNO23773  11.441   6.063  18.067  0.0828 -0.0895 -0.1238
 1982POPS   PO423774  11.503   6.138  18.404  0.0300  0.1199 -0.0620
 1982POPS   GL123775  11.953   6.213  18.385  0.2853  0.2466 -0.0157
 1982POPS   GL223776  12.080   6.447  18.448  0.0546 -0.0061  0.1995
 1982POPS   C1A23777  12.033   6.301  17.951  0.0589 -0.1417 -0.2718
 1982POPS   D2A23778  12.128   6.405  17.492 -0.0868  0.1302  0.0130
 1982POPS   C3A23779  12.387   6.111  17.261 -0.0949 -0.0861 -0.3175
 1982POPS   C4A23780  12.308   5.840  16.860 -0.0002 -0.3570  0.1028
 1982POPS   C1B23781  12.121   6.839  18.247 -0.0391  0.0287 -0.1760
 1982POPS   C2B23782  12.286   7.162  17.976  0.2940  0.2035  0.0672
 1982POPS   C3B23783  12.343   7.588  17.847  0.1251 -0.2227  0.0173
 1982POPS   C4B23784  12.634   7.883  17.657  0.0381 -0.0072 -0.0702
 1983POPS   CNO23785   8.670   5.932  14.587 -0.1036 -0.1645  0.4244
 1983POPS   PO423786   8.463   6.201  14.459 -0.2179  0.0135  0.0203
 1983POPS   GL123787   8.077   6.354  14.405  0.1970 -0.3143  0.1831
 1983POPS   GL223788   8.145   6.397  14.145 -0.1580  0.2846  0.0600
 1983POPS   C1A23789   8.020   6.833  14.358  0.0002 -0.1993  0.0779
 1983POPS   D2A23790   7.927   7.290  14.362  0.2907 -0.1409 -0.2530
 1983POPS   C3A23791   7.476   7.362  14.341  0.3501  0.0587  0.2148
 1983POPS   C4A23792   7.104   7.149  14.469  0.1683  0.2556  0.1350
 1983POPS   C1B23793   7.917   6.230  13.803  0.3308  0.1459 -0.2563
 1983POPS   C2B23794   7.853   5.938  13.463  0.3117  0.0214 -0.2316
 1983POPS   C3B23795   7.744   5.849  13.014 -0.0509  0.2475 -0.1154
 1983POPS   C4B23796   7.926   5.372  12.869 -0.1952 -0.3862  0.1180
 1984POPS   CNO23797   6.368  12.423  20.248 -0.1545 -0.0615  0.0820
 1984POPS   PO423798   6.234  12.073  20.355 -0.0698  0.0533 -0.1866
 1984POPS   GL123799   6.301  12.016  19.988  0.0751  0.0677 -0.0320
 1984POPS   GL223800   6.330  11.716  19.965 -0.1309 -0.0322 -0.1263
 1984POPS   C1A23801   6.086  12.202  19.592  0.0225 -0.0907  0.1339
 1984POPS   D2A23802   6.045  12.263  19.177  0.0490 -0.1417  0.2189
 1984POPS   C3A23803   6.322  12.424  18.926 -0.1817 -0.2861  0.2901
 1984POPS   C4A23804   6.408  12.334  18.522 -0.1096  0.1371  0.1224
 1984POPS   C1B23805   6.031  11.665  19.585 -0.1238  0.1771  0.0144
 1984POPS   C2B23806   5.824  11.708  19.190 -0.0373  0.2455 -0.1669
 1984POPS   C3B23807   5.700  12.031  18.905  0.0560 -0.3049 -0.0673
 1984POPS   C4B23808   5.874  12.386  18.698 -0.5117 -0.0256  0.2338
 1985POPS   CNO23809   8.568   8.011  18.710  0.0994 -0.0393 -0.1251
 1985POPS   PO423810   8.850   8.018  18.511 -0.1317  0.0731 -0.1563
 1985POPS   GL123811   8.628   8.083  18.250 -0.1216  0.4270 -0.0948
 1985POPS   GL223812   8.698   8.370  18.127 -0.0620 -0.1652 -0.0771
 1985POPS   C1A23813   8.326   8.043  17.950 -0.2766  0.0957  0.1517
 1985POPS   D2A23814   8.057   8.291  17.653  0.0498 -0.1042 -0.1092
 1985POPS   C3A23815   7.954   8.705  17.885 -0.0989 -0.2252 -0.2317
 1985POPS   C4A23816   7.764   9.077  18.015 -0.1519  0.0993 -0.1579
 1985POPS   C1B23817   8.415   8.603  17.852  0.1254 -0.0833 -0.1303
 1985POPS   C2B23818   8.315   8.735  17.444  0.0752 -0.0173  0.5777
 1985POPS   C3B23819   8.347   8.930  16.990 -0.1940  0.0358 -0.3594
 1985POPS   C4B23820   8.514   9.290  16.851 -0.0360  0.4352  0.1821
 1986POPS   CNO23821  11.190  10.005  19.400 -0.0832 -0.1938 -0.1834
 1986POPS   PO423822  10.872  10.207  19.517 -0.2855 -0.1596  0.1689
 1986POPS   GL123823  11.052  10.524  19.211 -0.0257 -0.0657  0.1148
 1986POPS   GL223824  10.814  10.645  19.086  0.0107  0.2458  0.1251
 1986POPS   C1A23825  11.161  10.566  18.728  0.2687  0.3551  0.2436
 1986POPS   D2A23826  10.882  10.428  18.357 -0.1378  0.1474 -0.0064
 1986POPS   C3A23827  10.837  10.586  17.978  0.0580 -0.3956 -0.1008
 1986POPS   C4A23828  10.823  11.055  17.793  0.0712 -0.0132 -0.0203
 1986POPS   C1B23829  10.536  10.953  18.852 -0.0220  0.0934 -0.3620
 1986POPS   C2B23830  10.525  11.344  18.656  0.1246  0.3356  0.1682
 1986POPS   C3B23831  10.516  11.689  18.336 -0.0817 -0.5457  0.3150
 1986POPS   C4B23832  10.434  11.999  17.934 -0.0314 -0.1468 -0.3449
 1987POPS   CNO23833   1.461   1.596  19.955  0.1086 -0.1702 -0.0588
 1987POPS   PO423834   1.783   1.731  20.103  0.1425 -0.0753 -0.0948
 1987POPS   GL123835   1.843   1.788  19.752  0.0787 -0.2335 -0.0204
 1987POPS   GL223836   1.917   1.484  19.691  0.1680 -0.1894 -0.0935
 1987POPS   C1A23837   1.531   1.992  19.473 -0.2912  0.0055 -0.0282
 1987POPS   D2A23838   1.299   1.921  19.126 -0.1052 -0.1586 -0.0991
 1987POPS   C3A23839   1.178   2.177  18.707 -0.4237  0.1278 -0.1240
 1987POPS   C4A23840   1.075   1.954  18.326  0.0694  0.1635  0.2983
 1987POPS   C1B23841   1.979   1.788  19.339  0.2362 -0.1164 -0.2433
 1987POPS   C2B23842   2.090   1.999  18.935  0.0355  0.0225  0.3081
 1987POPS   C3B23843   2.222   2.266  18.566  0.2057  0.3535  0.2481
 1987POPS   C4B23844   2.045   2.226  18.172  0.1191 -0.0303  0.1143
 1988POPS   CNO23845  10.739   4.386  16.436  0.1059 -0.0028  0.1216
 1988POPS   PO423846  10.526   4.441  16.116 -0.0384 -0.0305  0.1169
 1988POPS   GL123847  10.790   4.148  16.008 -0.1931 -0.1611 -0.2489
 1988POPS   GL223848  10.675   4.088  15.774  0.0243  0.1550  0.0169
 1988POPS   C1A23849  11.100   3.874  15.757 -0.2463  0.1155 -0.2004
 1988POPS   D2A23850  11.211   3.785  15.328 -0.2883 -0.1025  0.0295
 1988POPS   C3A23851  11.515   3.917  15.036  0.1323  0.2346  0.0141
 1988POPS   C4A23852  11.955   3.915  14.799  0.2158 -0.0088 -0.0427
 1988POPS   C1B23853  10.577   3.798  15.379  0.1603 -0.1019 -0.0828
 1988POPS   C2B23854  10.637   3.339  15.337  0.1596  0.0141  0.1255
 1988POPS   C3B23855  10.761   2.985  15.657  0.3012  0.0040  0.1106
 1988POPS   C4B23856  10.984   2.607  15.583  0.2476  0.0034  0.5399
 1989POPS   CNO23857  12.711  12.395  20.703 -0.1333  0.0392  0.1233
 1989POPS   PO423858  12.992  12.195  20.570  0.0933  0.0638 -0.0209
 1989POPS   GL123859  12.965  12.222  20.187 -0.2520  0.1119 -0.0717
 1989POPS   GL223860  12.916  12.505  20.116  0.1924  0.0034  0.2503
 1989POPS   C1A23861  12.682  12.146  19.866  0.0934 -0.0298 -0.1892
 1989POPS   D2A23862  12.478  12.102  19.423 -0.0178  0.0266 -0.1848
 1989POPS   C3A23863  12.205  12.340  19.161  0.1726 -0.2397  0.1662
 1989POPS   C4A23864  12.053  12.414  18.725  0.1597 -0.1236  0.0647
 1989POPS   C1B23865  12.860  12.567  19.662  0.1805  0.3269  0.1408
 1989POPS   C2B23866  12.646  12.554  19.257  0.0406  0.1539 -0.1405
 1989POPS   C3B23867  12.424  12.735  18.896  0.0254  0.0208  0.2534
 1989POPS   C4B23868  12.031  12.926  18.851  0.1140 -0.0981 -0.3685
 1990POPS   CNO23869  10.753   3.753  17.239 -0.1963  0.1317 -0.0651
 1990POPS   PO423870  10.645   3.405  17.302  0.0449 -0.0090 -0.0801
 1990POPS   GL123871  10.769   3.073  17.029 -0.1758 -0.0311 -0.1278
 1990POPS   GL223872  10.995   2.841  17.145  0.3514 -0.2102 -0.0342
 1990POPS   C1A23873  10.915   2.840  16.679  0.1834 -0.1283 -0.0944
 1990POPS   D2A23874  10.974   2.554  16.290 -0.0061 -0.2271 -0.1969
 1990POPS   C3A23875  10.681   2.195  16.315 -0.2220 -0.0493  0.1123
 1990POPS   C4A23876  10.227   2.081  16.429 -0.3374  0.0472 -0.0065
 1990POPS   C1B23877  11.317   2.562  16.928  0.2432 -0.0254  0.0334
 1990POPS   C2B23878  11.552   2.485  16.509  0.0183 -0.2310 -0.4100
 1990POPS   C3B23879  12.031   2.436  16.370 -0.1429  0.1412 -0.0325
 1990POPS   C4B23880  12.156   1.994  16.337  0.0971  0.4085 -0.0116
 1991POPS   CNO23881   8.993   4.955  13.715 -0.0872  0.0207 -0.2480
 1991POPS   PO423882   8.857   5.165  13.458  0.0155 -0.1269  0.1694
 1991POPS   GL123883   8.805   5.003  13.068  0.0827  0.1660 -0.2245
 1991POPS   GL223884   9.071   4.826  12.881 -0.0143 -0.0382 -0.0147
 1991POPS   C1A23885   8.574   4.679  12.802 -0.0430 -0.0934 -0.3133
 1991POPS   D2A23886   8.511   4.416  12.443 -0.1527 -0.1159 -0.0881
 1991POPS   C3A23887   8.092   4.160  12.354 -0.1037 -0.0832 -0.0867
 1991POPS   C4A23888   7.766   3.846  12.196 -0.0753  0.0396  0.2715
 1991POPS   C1B23889   9.194   4.376  12.856  0.2790 -0.0264  0.4203
 1991POPS   C2B23890   9.171   3.897  12.889  0.1172 -0.1959  0.1922
 1991POPS   C3B23891   9.082   3.499  12.842 -0.0669  0.1190 -0.1426
 1991POPS   C4B23892   8.858   3.276  13.157 -0.3787  0.2275 -0.1483
 1992POPS   CNO23893   2.696  11.605  20.797  0.0623 -0.1334 -0.0690
 1992POPS   PO423894   3.094  11.665  20.854  0.1572  0.0120 -0.2858
 1992POPS   GL123895   2.948  11.856  20.514 -0.1443  0.1186 -0.0754
 1992POPS   GL223896   3.233  11.923  20.428 -0.2919  0.1533  0.1188
 1992POPS   C1A23897   2.519  11.908  20.333 -0.1555 -0.0705 -0.0701
 1992POPS   D2A23898   2.123  12.133  20.138 -0.0965 -0.1706  0.1612
 1992POPS   C3A23899   2.014  11.868  19.815 -0.0864  0.1065 -0.0305
 1992POPS   C4A23900   1.780  11.540  19.613 -0.1011  0.2575 -0.1807
 1992POPS   C1B23901   3.355  11.639  20.083  0.0522 -0.1281  0.1117
 1992POPS   C2B23902   3.473  11.423  19.643  0.0990  0.1430 -0.0247
 1992POPS   C3B23903   3.470  11.306  19.217 -0.0207  0.0314  0.2359
 1992POPS   C4B23904   3.462  10.918  18.933  0.1553  0.0670  0.2227
 1993POPS   CNO23905  12.959  15.136  20.684 -0.2509  0.1994  0.3069
 1993POPS   PO423906  13.174  15.228  20.355  0.0484  0.0955 -0.2066
 1993POPS   GL123907  13.355  15.033  19.988 -0.2054 -0.3263 -0.0567
 1993POPS   GL223908  13.484  15.194  19.810 -0.1531  0.0239  0.2598
 1993POPS   C1A23909  13.093  14.872  19.643 -0.2281  0.2904 -0.1877
 1993POPS   D2A23910  13.079  14.858  19.137  0.0919  0.1892  0.0970
 1993POPS   C3A23911  13.134  15.108  18.769  0.0394 -0.2640 -0.1191
 1993POPS   C4A23912  13.137  15.342  18.357  0.0420 -0.3473 -0.0668
 1993POPS   C1B23913  13.597  14.977  19.420 -0.1811 -0.0457 -0.0417
 1993POPS   C2B23914  13.801  14.649  19.180  0.2472 -0.1999  0.0261
 1993POPS   C3B23915  14.135  14.647  18.894  0.0916 -0.1902  0.1504
 1993POPS   C4B23916  14.299  15.018  18.631 -0.1120 -0.0655  0.1223
 1994POPS   CNO23917  10.821   7.834  18.823  0.1217  0.0547 -0.0186
 1994POPS   PO423918  10.687   8.157  18.676  0.4367  0.2151 -0.0812
 1994POPS   GL123919  10.879   8.416  18.426  0.2909 -0.0486  0.2896
 1994POPS   GL223920  10.839   8.745  18.461 -0.1362 -0.2492 -0.1001
 1994POPS   C1A23921  11.242   8.550  18.231 -0.3783 -0.0534 -0.1691
 1994POPS   D2A23922  11.517   8.685  17.936 -0.0917 -0.0533 -0.2010
 1994POPS   C3A23923  11.182   8.465  17.665 -0.2416 -0.4816 -0.1702
 1994POPS   C4A23924  10.799   8.354  17.462  0.1577  0.0757 -0.5384
 1994POPS   C1B23925  11.097   9.052  18.253 -0.2078  0.0616 -0.1939
 1994POPS   C2B23926  11.153   9.085  17.812 -0.2106  0.1244  0.3395
 1994POPS   C3B23927  11.481   9.313  17.547  0.0674  0.3290  0.0685
 1994POPS   C4B23928  11.830   9.560  17.581  0.0400 -0.0930 -0.0218
 1995POPS   CNO23929   3.330   5.253  20.176  0.0006 -0.1013  0.1393
 1995POPS   PO423930   3.279   5.269  19.780 -0.2324 -0.2001  0.0218
 1995POPS   GL123931   3.072   5.118  19.539 -0.1393  0.3313  0.0690
 1995POPS   GL223932   2.859   5.271  19.536  0.0580 -0.0803  0.2428
 1995POPS   C1A23933   2.894   4.893  19.142 -0.0748  0.2913 -0.0505
 1995POPS   D2A23934   2.530   4.906  18.832  0.3456 -0.0851  0.1754
 1995POPS   C3A23935   2.183   4.977  18.479  0.1211  0.0668  0.0482
 1995POPS   C4A23936   1.790   5.077  18.240  0.0673  0.3902  0.1280
 1995POPS   C1B23937   2.688   5.339  19.062 -0.0380  0.0776 -0.0231
 1995POPS   C2B23938   2.479   5.396  18.648  0.0786 -0.1847 -0.1229
 1995POPS   C3B23939   2.222   5.472  18.334 -0.1988 -0.2582 -0.3789
 1995POPS   C4B23940   2.025   5.845  18.141 -0.2458 -0.0165 -0.0014
 1996POPS   CNO23941   6.264   6.760  19.079 -0.3294  0.0104 -0.0006
 1996POPS   PO423942   6.002   6.952  18.856  0.0539  0.0874  0.3554
 1996POPS   GL123943   5.760   7.246  18.654 -0.3554 -0.0349  0.0065
 1996POPS   GL223944   5.738   7.486  18.709 -0.0440  0.0716  0.3791
 1996POPS   C1A23945   5.360   7.154  18.506 -0.1287  0.0466  0.2605
 1996POPS   D2A23946   5.343   6.800  18.251  0.2481  0.0652 -0.1004
 1996POPS   C3A23947   4.966   6.862  17.937 -0.2651 -0.2218 -0.2939
 1996POPS   C4A23948   4.555   6.598  17.892  0.0941 -0.2290 -0.1992
 1996POPS   C1B23949   5.740   7.771  18.361 -0.1395 -0.0527  0.1523
 1996POPS   C2B23950   5.492   8.121  18.080 -0.6408  0.0641 -0.0872
 1996POPS   C3B23951   5.270   8.000  17.669 -0.0288 -0.1882  0.1728
 1996POPS   C4B23952   5.443   8.112  17.225 -0.0422  0.1331 -0.1352
 1997SAP2    C123953   5.141   0.652   9.868  0.0395  0.0013 -0.0569
 1997SAP2    C223954   5.190   0.437  10.036  0.0246  0.1784  0.1782
 1997SAP2    C323955   4.935   0.654  10.067  0.1665  0.3621  0.0796
 1997SAP2    C423956   5.089   0.581   9.990  0.6472  0.2772  0.3720
 1997SAP2   PO423957   5.157   0.596   9.524 -0.0500  0.0473 -0.2416
 1997SAP2    P423958   4.842   0.478  10.300  0.0504  0.0026 -0.0340
 1997SAP2    P523959   5.323   0.467  10.287 -0.2818 -0.0666  0.1239
 1997SAP2   GL123960   5.281   0.706   9.195  0.0339  0.0078 -0.1689
 1997SAP2   GL223961   5.370   0.466   9.012 -0.2646 -0.3137  0.3177
 1997SAP2   D1A23962   5.683   0.889   9.043  0.1904 -0.1998  0.1961
 1997SAP2   D2A23963   5.968   1.201   9.221  0.2047  0.5064  0.1626
 1997SAP2   D3A23964   5.882   1.597   8.959  0.5632 -0.1675  0.4400
 1997SAP2   D4A23965   6.350   1.545   8.854  0.1400  0.2717 -0.0749
 1997SAP2   C5A23966   6.468   1.230   9.171  0.0127 -0.1068  0.1548
 1997SAP2   C1B23967   5.483   0.413   8.568  0.1151  0.0452 -0.3106
 1997SAP2   C2B23968   5.635   0.490   8.118  0.2257 -0.1565 -0.1250
 1997SAP2   C3B23969   5.630   0.450   7.678 -0.0062  0.1342  0.2188
 1997SAP2   C4B23970   5.853   0.642   7.327  0.1631  0.1146 -0.2739
 1998SAP2    C123971  15.390   6.309  10.484 -0.0207  0.0788  0.0652
 1998SAP2    C223972  15.603   6.330  10.660  0.0293  0.0979  0.0027
 1998SAP2    C323973  15.443   6.046  10.583 -0.2538  0.1454  0.3847
 1998SAP2    C423974  15.479   6.228  10.576  0.3112 -0.3448  0.4794
 1998SAP2   PO423975  15.376   6.428  10.210  0.1438  0.2050  0.1448
 1998SAP2    P423976  15.575   5.874  10.802  0.0175 -0.1646  0.2288
 1998SAP2    P523977  15.642   6.336  10.892  0.1211  0.1206  0.1614
 1998SAP2   GL123978  15.231   6.283  10.020  0.1432  0.2099  0.1197
 1998SAP2   GL223979  15.016   6.107   9.944  0.0833 -0.0121 -0.0629
 1998SAP2   D1A23980  15.146   6.422   9.585 -0.1144  0.0634 -0.2426
 1998SAP2   D2A23981  14.717   6.637   9.675 -0.3475 -0.5263 -0.1028
 1998SAP2   D3A23982  14.463   6.798  10.021  0.0049  0.2648 -0.1077
 1998SAP2   D4A23983  14.601   7.133   9.747 -0.0364  0.1863  0.0893
 1998SAP2   C5A23984  14.354   7.145   9.343 -0.0005  0.1375 -0.0889
 1998SAP2   C1B23985  14.789   5.923   9.631  0.3363  0.2294 -0.0114
 1998SAP2   C2B23986  14.691   5.574   9.379 -0.0408  0.0867  0.0625
 1998SAP2   C3B23987  14.570   5.183   9.099 -0.1776 -0.0430  0.0854
 1998SAP2   C4B23988  14.316   5.111   8.742 -0.0126  0.1861  0.0701
 1999SAP2    C123989  13.991   2.186  11.232  0.1554  0.2759 -0.0647
 1999SAP2    C223990  14.176   2.240  11.431  0.1662 -0.2107  0.0690
 1999SAP2    C323991  14.242   2.081  11.143  0.0607  0.1055 -0.1351
 1999SAP2    C423992  14.136   2.169  11.269  0.2342 -0.2754 -0.4179
 1999SAP2   PO423993  13.787   2.429  11.279 -0.0745  0.0366 -0.2921
 1999SAP2    P423994  14.534   2.038  11.224  0.1313 -0.0358  0.0422
 1999SAP2    P523995  14.402   2.189  11.639 -0.4969  0.2397 -0.0570
 1999SAP2   GL123996  13.518   2.400  11.048 -0.0439 -0.1985 -0.0701
 1999SAP2   GL223997  13.379   2.653  11.005 -0.2304 -0.0932 -0.0694
 1999SAP2   D1A23998  13.312   2.500  11.471  0.1965  0.2530  0.1617
 1999SAP2   D2A23999  12.847   2.677  11.388  0.0156 -0.1674 -0.2298
 1999SAP2   D3A24000  12.743   2.279  11.220 -0.0564 -0.1944 -0.0913
 1999SAP2   D4A24001  12.354   2.389  11.343  0.2046  0.0315  0.0981
 1999SAP2   C5A24002  11.921   2.421  11.428 -0.0848 -0.0037  0.1335
 1999SAP2   C1B24003  13.191   3.110  10.934 -0.0741 -0.2750  0.1739
 1999SAP2   C2B24004  13.002   3.551  10.932 -0.0629  0.2068 -0.0257
 1999SAP2   C3B24005  12.827   3.957  10.777 -0.2611  0.0565 -0.0963
 1999SAP2   C4B24006  12.503   4.155  10.606  0.2119 -0.2681  0.0811
 2000SAP2    C124007   4.893   2.329   9.927  0.1657 -0.1646  0.1638
 2000SAP2    C224008   4.768   2.231  10.154 -0.0349 -0.0742  0.0946
 2000SAP2    C324009   4.658   2.191   9.839 -0.1477  0.3979  0.0658
 2000SAP2    C424010   4.773   2.250   9.973  0.2059  0.5152 -0.4619
 2000SAP2   PO424011   5.216   2.315  10.015  0.1262 -0.0348  0.4302
 2000SAP2    P424012   4.455   1.990   9.880  0.1259 -0.1094 -0.2745
 2000SAP2    P524013   4.516   2.241  10.293  0.0341  0.0165 -0.0853
 2000SAP2   GL124014   5.280   2.459   9.779  0.1128 -0.0684  0.2239
 2000SAP2   GL224015   5.547   2.612   9.725 -0.2778 -0.1870  0.2004
 2000SAP2   D1A24016   5.165   2.614   9.364 -0.2009  0.4031  0.4379
 2000SAP2   D2A24017   5.520   2.832   9.190 -0.3869 -0.0130 -0.0294
 2000SAP2   D3A24018   5.502   2.481   8.917 -0.0121 -0.0335  0.1629
 2000SAP2   D4A24019   5.537   2.842   8.616  0.2447  0.1913 -0.1554
 2000SAP2   C5A24020   5.679   2.697   8.217  0.0603 -0.0458 -0.0447
 2000SAP2   C1B24021   5.554   2.263   9.421 -0.0335  0.0228 -0.0592
 2000SAP2   C2B24022   5.838   2.096   9.120  0.4312  0.1208 -0.0103
 2000SAP2   C3B24023   6.032   2.024   8.703 -0.0178 -0.0256  0.1552
 2000SAP2   C4B24024   6.324   1.723   8.423  0.0725 -0.0678 -0.1278
 2001SAP2    C124025   2.976   1.208   9.547  0.4184 -0.0516 -0.1497
 2001SAP2    C224026   2.994   0.992   9.719 -0.1677 -0.1940 -0.2458
 2001SAP2    C324027   2.885   1.298   9.803  0.2268 -0.0562 -0.2147
 2001SAP2    C424028   2.951   1.166   9.690  0.1147  0.7811 -0.1011
 2001SAP2   PO424029   2.895   1.169   9.220  0.2131  0.1608 -0.0874
 2001SAP2    P424030   2.649   1.359  10.027 -0.3277  0.0478 -0.0962
 2001SAP2    P524031   2.945   0.884  10.024  0.1246 -0.1138  0.1623
 2001SAP2   GL124032   2.794   1.445   9.092  0.0174  0.3045 -0.0799
 2001SAP2   GL224033   2.848   1.428   8.848 -0.0331  0.2027 -0.2138
 2001SAP2   D1A24034   2.984   1.846   9.044  0.1930 -0.0387 -0.1375
 2001SAP2   D2A24035   3.164   2.239   8.874 -0.1513  0.0330 -0.2316
 2001SAP2   D3A24036   3.418   2.240   8.442 -0.0014  0.2919  0.4065
 2001SAP2   D4A24037   2.955   2.294   8.386 -0.1686  0.2167 -0.1090
 2001SAP2   C5A24038   3.013   2.569   8.021  0.1982 -0.1799 -0.0877
 2001SAP2   C1B24039   2.807   1.290   8.413  0.0655  0.1796 -0.2156
 2001SAP2   C2B24040   2.768   1.282   7.998  0.1777 -0.3276  0.2646
 2001SAP2   C3B24041   2.871   1.354   7.550  0.0329  0.1323  0.1451
 2001SAP2   C4B24042   3.125   1.458   7.191 -0.0559 -0.0636 -0.1566
 2002SAP2    C124043   6.729   0.247  10.426  0.1282  0.3138 -0.1374
 2002SAP2    C224044   6.887   0.302  10.647 -0.0857 -0.0423  0.1166
 2002SAP2    C324045   6.879   0.010  10.482 -0.0527  0.1660 -0.2664
 2002SAP2    C424046   6.832   0.186  10.518 -0.3250 -0.0752 -0.1227
 2002SAP2   PO424047   6.726   0.531  10.254 -0.1036  0.0969 -0.3028
 2002SAP2    P424048   7.170  -0.121  10.586  0.2042 -0.2807  0.3499
 2002SAP2    P524049   6.778   0.136  10.899 -0.2677  0.0467 -0.0538
 2002SAP2   GL124050   6.542   0.603   9.878  0.1258 -0.1562  0.1961
 2002SAP2   GL224051   6.834   0.651   9.783  0.0130 -0.1896  0.2118
 2002SAP2   D1A24052   6.408   0.879   9.513  0.3180 -0.2259  0.2782
 2002SAP2   D2A24053   6.805   0.849   9.305  0.0563  0.0204 -0.2369
 2002SAP2   D3A24054   6.979   1.240   9.259 -0.1142 -0.3244  0.0627
 2002SAP2   D4A24055   6.815   1.620   9.040  0.0985 -0.0459  0.0806
 2002SAP2   C5A24056   7.182   1.448   8.878  0.0616 -0.3240  0.0223
 2002SAP2   C1B24057   7.087   0.982   9.726 -0.0105  0.4009 -0.0723
 2002SAP2   C2B24058   7.328   1.332   9.832 -0.2647  0.0540  0.0450
 2002SAP2   C3B24059   7.336   1.762   9.939  0.0202 -0.1910  0.2259
 2002SAP2   C4B24060   7.331   2.256   9.874 -0.2710  0.1913  0.1581
 2003SAP2    C124061   4.070   0.594   9.146 -0.0534 -0.1302 -0.1160
 2003SAP2    C224062   3.954   0.557   9.395  0.2490  0.0094  0.0511
 2003SAP2    C324063   4.258   0.447   9.304  0.1270 -0.0723 -0.2727
 2003SAP2    C424064   4.094   0.533   9.282  0.2184 -0.1533 -1.0241
 2003SAP2   PO424065   3.984   0.877   9.000  0.0597 -0.0921 -0.0549
 2003SAP2    P424066   4.363   0.382   9.566 -0.1292 -0.3415 -0.1682
 2003SAP2    P524067   3.884   0.234   9.520 -0.0197 -0.0050 -0.2853
 2003SAP2   GL124068   4.129   1.067   8.847  0.0020 -0.0017 -0.3053
 2003SAP2   GL224069   4.278   0.936   8.605 -0.2015 -0.1186 -0.2021
 2003SAP2   D1A24070   4.133   1.373   8.506 -0.1155 -0.0379 -0.1314
 2003SAP2   D2A24071   4.551   1.465   8.520  0.2772 -0.1545  0.2377
 2003SAP2   D3A24072   4.833   1.573   8.162  0.1336  0.1011  0.0793
 2003SAP2   D4A24073   5.122   1.859   8.368 -0.1042 -0.0927  0.2074
 2003SAP2   C5A24074   5.275   1.877   7.959  0.0384 -0.0471  0.4919
 2003SAP2   C1B24075   4.392   0.677   8.285  0.3360 -0.0385  0.0879
 2003SAP2   C2B24076   4.722   0.519   8.031 -0.0901 -0.0814 -0.0673
 2003SAP2   C3B24077   5.157   0.533   7.883 -0.4401 -0.2891  0.0998
 2003SAP2   C4B24078   5.292   0.070   7.811 -0.1406  0.5135 -0.3622
 2004SAP2    C124079   1.124  11.197   8.609 -0.0395  0.1396 -0.2232
 2004SAP2    C224080   0.952  11.361   8.752 -0.1832  0.0432 -0.2832
 2004SAP2    C324081   1.282  11.329   8.808 -0.2032  0.1491 -0.0974
 2004SAP2    C424082   1.119  11.295   8.723 -0.3101  0.2973 -0.1925
 2004SAP2   PO424083   1.059  11.255   8.316  0.2112 -0.0755 -0.2299
 2004SAP2    P424084   1.273  11.541   9.045  0.1632  0.3486 -0.1139
 2004SAP2    P524085   0.938  11.295   9.087 -0.0627  0.3904 -0.4942
 2004SAP2   GL124086   0.831  11.056   8.203 -0.1059 -0.0106  0.1017
 2004SAP2   GL224087   0.879  10.834   8.350  0.3667 -0.0281  0.0294
 2004SAP2   D1A24088   0.867  11.235   7.788  0.3381 -0.0104 -0.0397
 2004SAP2   D2A24089   0.485  10.913   7.840  0.1213 -0.0329  0.0034
 2004SAP2   D3A24090   0.709  10.783   7.505  0.0011  0.0664 -0.0878
 2004SAP2   D4A24091   0.754  11.149   7.287 -0.0424 -0.0858 -0.3771
 2004SAP2   C5A24092   0.801  10.966   6.839 -0.0882 -0.0009 -0.0649
 2004SAP2   C1B24093   0.974  10.758   7.895  0.0115  0.2064  0.1099
 2004SAP2   C2B24094   1.114  10.410   7.590  0.0413 -0.2086 -0.0023
 2004SAP2   C3B24095   1.287  10.247   7.174 -0.0059  0.2187  0.0741
 2004SAP2   C4B24096   1.586  10.067   6.861 -0.1002 -0.0938  0.1019
 2005SAP2    C124097   5.370   9.198  10.983  0.1556  0.0497  0.4107
 2005SAP2    C224098   5.114   9.274  11.056  0.0043 -0.1397  0.0989
 2005SAP2    C324099   5.298   9.420  10.816 -0.0158 -0.3201 -0.0281
 2005SAP2    C424100   5.261   9.297  10.952  0.8334  0.3661  0.8914
 2005SAP2   PO424101   5.327   8.881  10.979 -0.2026  0.0005 -0.1244
 2005SAP2    P424102   5.030   9.593  10.706 -0.0093 -0.1946  0.1611
 2005SAP2    P524103   4.961   9.466  11.246 -0.3336  0.2661  0.0931
 2005SAP2   GL124104   5.542   8.780  10.749  0.3789 -0.0521  0.0073
 2005SAP2   GL224105   5.721   8.873  10.535 -0.1393 -0.0452  0.0339
 2005SAP2   D1A24106   5.760   8.367  10.598 -0.0222  0.1082  0.3214
 2005SAP2   D2A24107   6.204   8.331  10.449  0.5771  0.2999  0.0487
 2005SAP2   D3A24108   6.392   8.601  10.778  0.2386  0.0293  0.1413
 2005SAP2   D4A24109   6.732   8.820  10.581  0.0611  0.1724  0.1779
 2005SAP2   C5A24110   7.200   8.885  10.662  0.0167 -0.1027  0.2071
 2005SAP2   C1B24111   5.929   8.641  10.157  0.1558  0.1868 -0.0963
 2005SAP2   C2B24112   5.796   8.483   9.721  0.0942 -0.1707  0.0421
 2005SAP2   C3B24113   5.900   8.197   9.373 -0.2529 -0.2886  0.3277
 2005SAP2   C4B24114   5.647   7.847   9.417 -0.0128 -0.1474  0.1159
 2006SAP2    C124115  11.935  14.156   9.276  0.1102  0.0097 -0.2459
 2006SAP2    C224116  12.032  14.347   9.451 -0.2192 -0.1873  0.1708
 2006SAP2    C324117  12.156  14.037   9.415  0.0301 -0.0545 -0.1723
 2006SAP2    C424118  12.041  14.180   9.381  0.0175 -0.2707 -0.1639
 2006SAP2   PO424119  11.779  14.317   9.009 -0.1945 -0.2334  0.0787
 2006SAP2    P424120  12.371  14.071   9.649  0.1323  0.2356 -0.0962
 2006SAP2    P524121  12.214  14.567   9.667  0.4981 -0.2833 -0.0995
 2006SAP2   GL124122  11.632  14.180   8.718  0.2667  0.1138  0.1735
 2006SAP2   GL224123  11.805  14.232   8.529  0.0044  0.3052  0.0496
 2006SAP2   D1A24124  11.311  13.819   8.663 -0.0158 -0.0888  0.0198
 2006SAP2   D2A24125  11.568  13.611   8.339 -0.2121 -0.2219 -0.1232
 2006SAP2   D3A24126  11.217  13.931   8.142 -0.1583 -0.4212  0.1955
 2006SAP2   D4A24127  11.331  13.809   7.677  0.3308 -0.0995  0.1020
 2006SAP2   C5A24128  10.885  13.951   7.644 -0.1524 -0.0314 -0.1208
 2006SAP2   C1B24129  11.551  14.379   8.177 -0.1737  0.1318  0.1338
 2006SAP2   C2B24130  11.385  14.381   7.693  0.0213 -0.0993 -0.1396
 2006SAP2   C3B24131  11.320  14.238   7.296 -0.0402 -0.0809  0.0732
 2006SAP2   C4B24132  11.145  13.880   7.041  0.0180 -0.2765  0.0518
 2007SAP2    C124133   5.374   3.071  10.385 -0.2154  0.0659  0.0722
 2007SAP2    C224134   5.257   2.846  10.498 -0.1765  0.0017 -0.0143
 2007SAP2    C324135   5.091   3.116  10.388 -0.2646 -0.1717 -0.3187
 2007SAP2    C424136   5.241   3.011  10.424  0.1271  0.3141  0.4219
 2007SAP2   PO424137   5.594   3.003  10.223 -0.4150  0.1258  0.1434
 2007SAP2    P424138   4.831   2.959  10.451 -0.1536 -0.2154  0.1525
 2007SAP2    P524139   5.191   2.846  10.780  0.0001 -0.0384  0.0786
 2007SAP2   GL124140   5.616   3.163   9.873  0.1050  0.1674  0.1201
 2007SAP2   GL224141   5.814   3.043   9.740  0.2039  0.0629  0.1042
 2007SAP2   D1A24142   5.550   3.315   9.391  0.0847  0.2508  0.1769
 2007SAP2   D2A24143   5.961   3.117   9.289 -0.3101 -0.1442  0.0826
 2007SAP2   D3A24144   5.916   3.104   8.845 -0.1489  0.2149 -0.2548
 2007SAP2   D4A24145   6.230   3.355   8.581 -0.0303  0.0931 -0.0703
 2007SAP2   C5A24146   6.057   3.016   8.326 -0.0958  0.1263  0.1522
 2007SAP2   C1B24147   6.260   3.155   9.714 -0.0254 -0.1940  0.0194
 2007SAP2   C2B24148   6.432   3.454   9.429  0.0905  0.0313  0.2513
 2007SAP2   C3B24149   6.585   3.513   8.998  0.1075  0.0798  0.1126
 2007SAP2   C4B24150   6.696   3.402   8.578 -0.0334 -0.5251  0.1879
 2008SAP2    C124151   4.745   1.483   9.704 -0.2831 -0.1109  0.0394
 2008SAP2    C224152   4.804   1.305   9.907 -0.1308 -0.0238  0.0729
 2008SAP2    C324153   4.592   1.564   9.932 -0.2278 -0.1024  0.0735
 2008SAP2    C424154   4.714   1.451   9.848  0.1847 -0.8434  0.6250
 2008SAP2   PO424155   4.756   1.321   9.362  0.1102  0.0413 -0.0288
 2008SAP2    P424156   4.492   1.414  10.206  0.0415 -0.1330  0.3044
 2008SAP2    P524157   4.965   1.482  10.243  0.1291 -0.1833  0.0320
 2008SAP2   GL124158   4.923   1.263   9.093 -0.1653 -0.2142 -0.0427
 2008SAP2   GL224159   5.188   1.165   9.016 -0.0114 -0.1645  0.1045
 2008SAP2   D1A24160   4.979   1.573   8.742  0.0240 -0.1438 -0.1992
 2008SAP2   D2A24161   5.268   1.355   8.441 -0.0890 -0.2833  0.2448
 2008SAP2   D3A24162   5.610   1.305   8.746 -0.0665  0.0861 -0.1755
 2008SAP2   D4A24163   5.895   1.437   8.436 -0.1963  0.1983  0.3454
 2008SAP2   C5A24164   5.763   1.353   7.974 -0.1549  0.1175 -0.1531
 2008SAP2   C1B24165   5.350   0.926   8.672  0.0723 -0.1166  0.2494
 2008SAP2   C2B24166   5.797   0.884   8.490  0.0466 -0.3305 -0.0023
 2008SAP2   C3B24167   5.874   0.862   8.029 -0.2447  0.2488 -0.0001
 2008SAP2   C4B24168   5.554   0.968   7.675  0.1607 -0.1160  0.3674
 2009SAP2    C124169   3.927   6.403  10.520 -0.0321 -0.1160 -0.0473
 2009SAP2    C224170   3.856   6.660  10.595  0.2939  0.0581 -0.3107
 2009SAP2    C324171   3.890   6.400  10.805  0.0626  0.2502 -0.0261
 2009SAP2    C424172   3.891   6.488  10.640  0.5930  0.1797  0.4389
 2009SAP2   PO424173   4.227   6.396  10.357  0.0799  0.6224  0.2168
 2009SAP2    P424174   3.734   6.436  11.028 -0.0492  0.1498  0.1603
 2009SAP2    P524175   3.581   6.823  10.706  0.0527 -0.4697  0.0204
 2009SAP2   GL124176   4.497   6.439  10.536  0.1865 -0.3651  0.1468
 2009SAP2   GL224177   4.669   6.215  10.420  0.1328  0.0686  0.0605
 2009SAP2   D1A24178   4.856   6.709  10.315  0.2785 -0.0803  0.0664
 2009SAP2   D2A24179   4.635   6.515  10.006  0.0076 -0.1313 -0.2347
 2009SAP2   D3A24180   4.881   6.425   9.635  0.2325  0.0776  0.2005
 2009SAP2   D4A24181   4.615   6.074   9.752  0.2161  0.0637  0.0351
 2009SAP2   C5A24182   4.798   5.957   9.386 -0.0932 -0.1179  0.1310
 2009SAP2   C1B24183   5.006   6.161  10.140 -0.2965 -0.0121  0.0243
 2009SAP2   C2B24184   5.356   6.347   9.897 -0.0629 -0.0705 -0.1598
 2009SAP2   C3B24185   5.758   6.359   9.598 -0.1846 -0.1008 -0.3208
 2009SAP2   C4B24186   6.184   6.354   9.744 -0.1108 -0.2291  0.4038
 2010SAP2    C124187   5.158  14.914   4.188 -0.1434 -0.1096  0.1593
 2010SAP2    C224188   5.084  14.658   4.116  0.3839 -0.2610  0.1115
 2010SAP2    C324189   5.139  14.911   3.902  0.0992 -0.1693  0.1418
 2010SAP2    C424190   5.127  14.828   4.069  0.0164 -0.1372  0.3874
 2010SAP2   PO424191   5.381  14.915   4.393 -0.0130 -0.1508 -0.3743
 2010SAP2    P424192   5.125  14.872   3.569  0.0122 -0.1378  0.1490
 2010SAP2    P524193   4.900  14.498   3.866  0.2268 -0.2695  0.0259
 2010SAP2   GL124194   5.329  15.014   4.705  0.4596  0.1852  0.1840
 2010SAP2   GL224195   5.376  15.338   4.801 -0.0350 -0.0792  0.0116
 2010SAP2   D1A24196   5.336  14.594   4.870  0.0429  0.1853 -0.2710
 2010SAP2   D2A24197   5.687  14.723   5.093 -0.0139  0.1967  0.1120
 2010SAP2   D3A24198   5.470  14.309   5.298  0.3230  0.3185 -0.1367
 2010SAP2   D4A24199   5.362  14.401   5.785 -0.0586 -0.1256 -0.0816
 2010SAP2   C5A24200   5.023  14.180   6.027  0.0624  0.1848 -0.1412
 2010SAP2   C1B24201   5.068  15.541   5.122  0.1105 -0.3101 -0.1804
 2010SAP2   C2B24202   4.703  15.790   5.188 -0.0369  0.1287 -0.0934
 2010SAP2   C3B24203   4.409  15.981   5.482 -0.1378  0.3490 -0.1420
 2010SAP2   C4B24204   4.060  16.032   5.835  0.3265 -0.3088  0.0645
 2011SAP2    C124205  12.304  11.851   4.589 -0.3088 -0.0674 -0.3637
 2011SAP2    C224206  12.470  11.736   4.399 -0.0496 -0.1099 -0.1188
 2011SAP2    C324207  12.146  11.812   4.354 -0.0722 -0.3922 -0.4766
 2011SAP2    C424208  12.306  11.799   4.448  0.2360  0.7046 -0.0813
 2011SAP2   PO424209  12.447  12.110   4.786 -0.1162  0.1866  0.3522
 2011SAP2    P424210  12.186  11.755   4.039  0.0829 -0.1158 -0.3438
 2011SAP2    P524211  12.470  11.455   4.225  0.1511  0.0911  0.1356
 2011SAP2   GL124212  12.472  12.206   5.164  0.1059 -0.5022 -0.2230
 2011SAP2   GL224213  12.616  12.474   5.129  0.3283  0.2564  0.3200
 2011SAP2   D1A24214  12.300  12.031   5.543 -0.2002  0.0605  0.1073
 2011SAP2   D2A24215  11.949  12.305   5.563  0.0133  0.2188  0.2228
 2011SAP2   D3A24216  12.362  12.552   5.608  0.2332  0.0106 -0.1940
 2011SAP2   D4A24217  12.275  13.022   5.608  0.0398  0.0942  0.0595
 2011SAP2   C5A24218  12.100  13.419   5.420 -0.1735 -0.0568  0.2472
 2011SAP2   C1B24219  12.822  12.741   5.431 -0.1502  0.1141 -0.2740
 2011SAP2   C2B24220  13.059  13.151   5.588  0.1048  0.0416  0.0740
 2011SAP2   C3B24221  13.189  13.479   5.916  0.1328 -0.2134 -0.0131
 2011SAP2   C4B24222  13.408  13.687   6.281  0.2461  0.1432  0.0691
 2012SAP2    C124223   7.633   3.902   6.319  0.1009  0.0311  0.0881
 2012SAP2    C224224   7.732   4.135   6.208 -0.1779  0.1053 -0.0145
 2012SAP2    C324225   7.450   3.980   6.113 -0.0278 -0.2442  0.0939
 2012SAP2    C424226   7.605   4.006   6.213  0.3380  0.1965  0.3941
 2012SAP2   PO424227   7.681   4.022   6.640 -0.2451  0.1852  0.4408
 2012SAP2    P424228   7.396   4.069   5.819  0.2636  0.0414  0.2734
 2012SAP2    P524229   7.876   4.225   5.961  0.0153 -0.1504 -0.1984
 2012SAP2   GL124230   7.504   3.817   6.717  0.3889  0.2090 -0.3238
 2012SAP2   GL224231   7.203   3.789   6.616 -0.0119 -0.0349  0.2248
 2012SAP2   D1A24232   7.721   3.822   7.186  0.1837 -0.2765 -0.2617
 2012SAP2   D2A24233   7.476   3.551   7.439  0.0267  0.0620 -0.2591
 2012SAP2   D3A24234   7.858   3.429   7.597  0.0192 -0.0778  0.1435
 2012SAP2   D4A24235   7.900   3.183   7.947 -0.0912  0.0691 -0.1036
 2012SAP2   C5A24236   7.433   3.023   8.021  0.1743  0.0264  0.1752
 2012SAP2   C1B24237   7.194   3.706   7.042  0.0454  0.4705 -0.3005
 2012SAP2   C2B24238   6.962   3.688   7.466  0.0258 -0.2387  0.6792
 2012SAP2   C3B24239   6.708   3.803   7.861 -0.0997 -0.2153 -0.2287
 2012SAP2   C4B24240   6.480   3.740   8.308 -0.1365  0.0601  0.2106
 2013SAP2    C124241   7.263   9.429   5.892  0.0736  0.4195  0.0557
 2013SAP2    C224242   7.456   9.448   5.695  0.0690 -0.0616 -0.0078
 2013SAP2    C324243   7.125   9.479   5.646  0.0871  0.1423 -0.0116
 2013SAP2    C424244   7.281   9.452   5.744  0.5258 -0.0075  0.2944
 2013SAP2   PO424245   7.374   9.491   6.183  0.0519 -0.2823  0.0382
 2013SAP2    P424246   7.100   9.554   5.369  0.3160  0.0230  0.0752
 2013SAP2    P524247   7.508   9.334   5.395 -0.0562 -0.0310 -0.0188
 2013SAP2   GL124248   7.403   9.374   6.413  0.2484 -0.4040  0.0144
 2013SAP2   GL224249   7.454   9.504   6.692 -0.0051 -0.0016 -0.2301
 2013SAP2   D1A24250   6.971   9.485   6.542 -0.1203 -0.0448 -0.0329
 2013SAP2   D2A24251   6.782   9.852   6.386 -0.0442  0.0032  0.0624
 2013SAP2   D3A24252   6.720   9.850   6.830  0.1726 -0.1516 -0.0691
 2013SAP2   D4A24253   7.115   9.680   7.008 -0.2141 -0.0295  0.0260
 2013SAP2   C5A24254   7.066   9.858   7.420 -0.1400  0.1044 -0.1493
 2013SAP2   C1B24255   7.563   9.520   7.144 -0.3518 -0.0053 -0.0937
 2013SAP2   C2B24256   7.341   9.524   7.576 -0.3378 -0.0302  0.0227
 2013SAP2   C3B24257   7.377   9.706   8.033  0.1804 -0.1139  0.1434
 2013SAP2   C4B24258   7.279   9.971   8.389  0.0793 -0.0084 -0.3021
 2014SAP2    C124259   8.246   9.043   6.328 -0.2804 -0.1081 -0.0168
 2014SAP2    C224260   8.479   8.896   6.361 -0.2010 -0.0161 -0.1558
 2014SAP2    C324261   8.349   8.991   6.065 -0.1436  0.3617 -0.0649
 2014SAP2    C424262   8.358   8.977   6.251 -0.9316  0.5189  0.8308
 2014SAP2   PO424263   8.247   9.261   6.570  0.2548  0.1852 -0.4489
 2014SAP2    P424264   8.568   8.925   5.857  0.0971  0.2146 -0.0855
 2014SAP2    P524265   8.588   8.592   6.236  0.3155 -0.2744  0.2459
 2014SAP2   GL124266   8.304   9.543   6.579 -0.2769 -0.0836  0.0844
 2014SAP2   GL224267   8.444   9.785   6.451  0.1716 -0.2120 -0.1290
 2014SAP2   D1A24268   8.089   9.506   6.954 -0.1888 -0.1281 -0.1882
 2014SAP2   D2A24269   8.047   9.363   7.404 -0.4047  0.3212  0.1105
 2014SAP2   D3A24270   8.358   9.453   7.714  0.0447 -0.1372 -0.1902
 2014SAP2   D4A24271   8.400   9.906   7.820  0.3034 -0.0880  0.1625
 2014SAP2   C5A24272   8.057  10.149   7.647  0.3445  0.0047 -0.2310
 2014SAP2   C1B24273   8.151   9.954   6.761  0.0869  0.1155  0.0125
 2014SAP2   C2B24274   7.960  10.271   7.108 -0.0560 -0.0147  0.1351
 2014SAP2   C3B24275   8.136  10.593   7.411  0.2067 -0.1912 -0.0975
 2014SAP2   C4B24276   8.227  11.010   7.546  0.2091  0.1516 -0.1551
 2015SAP2    C124277  12.734   7.903   6.723  0.1626 -0.0079  0.0041
 2015SAP2    C224278  12.457   7.906   6.721  0.1615 -0.0610 -0.2337
 2015SAP2    C324279  12.650   7.712   6.526  0.3671 -0.0847 -0.0109
 2015SAP2    C424280  12.614   7.841   6.657  0.3534  0.1021  0.2957
 2015SAP2   PO424281  12.766   7.923   7.053 -0.0191 -0.1089  0.3267
 2015SAP2    P424282  12.521   7.597   6.328 -0.2589  0.2416  0.2290
 2015SAP2    P524283  12.255   7.924   6.636  0.2292  0.0059  0.1394
 2015SAP2   GL124284  12.993   7.824   7.218  0.1707 -0.3476 -0.2870
 2015SAP2   GL224285  12.959   7.544   7.315 -0.0032  0.2829  0.0452
 2015SAP2   D1A24286  13.342   7.901   7.498 -0.5174 -0.4595  0.0251
 2015SAP2   D2A24287  13.449   7.782   7.945  0.0502 -0.0017 -0.3174
 2015SAP2   D3A24288  13.096   8.108   8.104  0.0246 -0.2050  0.1222
 2015SAP2   D4A24289  12.847   7.864   8.416 -0.1337 -0.2768  0.4271
 2015SAP2   C5A24290  13.286   7.749   8.567 -0.3167  0.0561 -0.0791
 2015SAP2   C1B24291  13.002   7.419   7.771 -0.1290 -0.2736  0.2612
 2015SAP2   C2B24292  13.212   7.353   8.178  0.1275 -0.2439 -0.0240
 2015SAP2   C3B24293  13.121   7.238   8.612 -0.2809 -0.1878  0.0774
 2015SAP2   C4B24294  13.149   7.207   9.117  0.1370 -0.0541 -0.1409
 2016SAP2    C124295  11.694   1.032   4.759 -0.0837  0.2624  0.0245
 2016SAP2    C224296  11.588   0.801   4.650  0.0403  0.2115  0.0096
 2016SAP2    C324297  11.551   1.110   4.523  0.4226  0.1197 -0.3471
 2016SAP2    C424298  11.611   0.981   4.644  0.2754  0.0944 -0.1782
 2016SAP2   PO424299  12.025   1.041   4.897 -0.0031  0.1237  0.1742
 2016SAP2    P424300  11.356   1.053   4.345  0.1150 -0.1359 -0.3556
 2016SAP2    P524301  11.653   0.685   4.336 -0.0983  0.1042 -0.1856
 2016SAP2   GL124302  11.955   0.755   5.091 -0.1800 -0.1371 -0.1130
 2016SAP2   GL224303  12.081   0.900   5.315  0.1120 -0.0721  0.2802
 2016SAP2   D1A24304  11.617   0.950   5.356 -0.1884 -0.0604  0.0278
 2016SAP2   D2A24305  11.452   0.557   5.477 -0.0173 -0.0782 -0.0692
 2016SAP2   D3A24306  11.780   0.215   5.630 -0.0103  0.4097  0.0538
 2016SAP2   D4A24307  11.967  -0.114   5.302 -0.0777 -0.0111 -0.0378
 2016SAP2   C5A24308  12.424  -0.247   5.266 -0.1482 -0.0744  0.1289
 2016SAP2   C1B24309  12.007   0.738   5.750  0.1871 -0.1082  0.1759
 2016SAP2   C2B24310  11.959   0.803   6.266 -0.2635  0.0700  0.2326
 2016SAP2   C3B24311  11.874   0.931   6.700 -0.2069 -0.0506  0.1440
 2016SAP2   C4B24312  11.615   1.119   7.010  0.1885 -0.0058  0.2685
 2017SAP2    C124313  10.327   5.434  10.553  0.0615  0.0160  0.1745
 2017SAP2    C224314  10.254   5.698  10.597  0.2645  0.0317  0.4401
 2017SAP2    C324315  10.344   5.568  10.300 -0.0353  0.2072  0.2670
 2017SAP2    C424316  10.308   5.567  10.483 -0.1941 -0.5609  0.0308
 2017SAP2   PO424317  10.098   5.250  10.748  0.1075  0.0502  0.0431
 2017SAP2    P424318  10.257   5.784  10.044  0.1575  0.0642  0.1126
 2017SAP2    P524319  10.326   6.007  10.504 -0.2102 -0.1313  0.2150
 2017SAP2   GL124320  10.024   4.988  10.895  0.3991  0.2994  0.1302
 2017SAP2   GL224321  10.194   4.791  10.899  0.0738  0.0697  0.2042
 2017SAP2   D1A24322   9.915   4.790  11.286  0.1994  0.1311 -0.0199
 2017SAP2   D2A24323  10.074   4.365  11.223  0.0401 -0.2004  0.4074
 2017SAP2   D3A24324  10.096   4.085  11.600  0.0094 -0.2024 -0.0351
 2017SAP2   D4A24325  10.487   4.062  11.767 -0.1092  0.0372  0.1955
 2017SAP2   C5A24326  10.880   3.829  11.668  0.2874  0.0763  0.0329
 2017SAP2   C1B24327  10.125   4.445  10.736 -0.0959  0.1274  0.2148
 2017SAP2   C2B24328  10.116   4.081  10.444 -0.3837  0.0603 -0.1851
 2017SAP2   C3B24329   9.978   3.606  10.444  0.1300 -0.2860 -0.0495
 2017SAP2   C4B24330   9.734   3.385  10.835  0.1403 -0.1393  0.0656
 2018SAP2    C124331   2.914  11.494   3.879  0.0043  0.2458 -0.0663
 2018SAP2    C224332   3.062  11.260   3.857  0.0233  0.2470  0.0447
 2018SAP2    C324333   3.188  11.572   3.845  0.0026  0.2513 -0.0678
 2018SAP2    C424334   3.054  11.442   3.860  0.0394 -0.0984 -0.1719
 2018SAP2   PO424335   2.693  11.443   4.073 -0.1798  0.1784 -0.1831
 2018SAP2    P424336   3.480  11.557   3.737 -0.4790  0.3215 -0.0530
 2018SAP2    P524337   3.084  11.251   3.495 -0.0889 -0.0974  0.2754
 2018SAP2   GL124338   2.559  11.565   4.306  0.2830  0.0223 -0.0599
 2018SAP2   GL224339   2.477  11.789   4.441 -0.0063 -0.2087 -0.2660
 2018SAP2   D1A24340   3.000  11.510   4.468  0.2612  0.1536  0.0521
 2018SAP2   D2A24341   3.383  11.606   4.733  0.0610 -0.2676 -0.1648
 2018SAP2   D3A24342   3.543  12.021   4.706 -0.1852 -0.0700  0.0078
 2018SAP2   D4A24343   3.366  12.419   4.739 -0.2080 -0.0148  0.3462
 2018SAP2   C5A24344   3.068  12.426   5.065 -0.2666  0.0966 -0.1022
 2018SAP2   C1B24345   2.553  11.658   4.862  0.0091 -0.3590 -0.2313
 2018SAP2   C2B24346   2.941  11.478   4.961 -0.1991 -0.1363  0.2247
 2018SAP2   C3B24347   3.112  11.550   5.384  0.2026  0.0442 -0.0017
 2018SAP2   C4B24348   3.080  11.746   5.790 -0.0725 -0.0165 -0.0951
 2019SAP2    C124349   4.808   6.719   5.410 -0.0358 -0.1288  0.0819
 2019SAP2    C224350   4.676   6.638   5.180  0.1543  0.1078 -0.1155
 2019SAP2    C324351   4.901   6.455   5.350  0.2899  0.0697 -0.3325
 2019SAP2    C424352   4.795   6.604   5.313 -0.3041 -0.4242 -0.2787
 2019SAP2   PO424353   4.563   6.875   5.527  0.0334 -0.2035 -0.0979
 2019SAP2    P424354   4.913   6.172   5.270 -0.1017 -0.1190  0.0257
 2019SAP2    P524355   4.623   6.453   4.962 -0.1203  0.1398  0.0704
 2019SAP2   GL124356   4.577   7.147   5.689  0.0156  0.2731 -0.1273
 2019SAP2   GL224357   4.521   7.363   5.578  0.2089 -0.1765  0.0879
 2019SAP2   D1A24358   4.394   7.243   6.082 -0.0177 -0.1942  0.0078
 2019SAP2   D2A24359   4.162   6.857   6.254 -0.3454 -0.1866 -0.1015
 2019SAP2   D3A24360   4.110   6.908   6.677 -0.2377 -0.0297  0.2713
 2019SAP2   D4A24361   3.748   6.813   6.967 -0.0102  0.0946  0.5091
 2019SAP2   C5A24362   3.896   7.224   7.185  0.2742  0.1805 -0.0556
 2019SAP2   C1B24363   4.327   7.735   5.813 -0.2843  0.2004 -0.4284
 2019SAP2   C2B24364   4.050   7.984   6.085  0.3311 -0.1721 -0.0935
 2019SAP2   C3B24365   4.008   8.336   6.381  0.0640 -0.1692 -0.1030
 2019SAP2   C4B24366   3.733   8.688   6.644  0.1256  0.1109 -0.3262
 2020SAP2    C124367  10.864  11.926   5.006  0.0733  0.0921 -0.0529
 2020SAP2    C224368  10.915  11.656   4.973 -0.4486 -0.0308  0.0658
 2020SAP2    C324369  10.790  11.860   4.737 -0.0864  0.1072 -0.0133
 2020SAP2    C424370  10.856  11.814   4.906 -0.8721 -0.9122  0.0859
 2020SAP2   PO424371  11.068  12.070   5.163  0.0246  0.1380  0.1691
 2020SAP2    P424372  10.699  11.649   4.482  0.3144  0.0715 -0.0162
 2020SAP2    P524373  10.709  11.405   4.931  0.2114  0.0993 -0.1720
 2020SAP2   GL124374  11.143  12.403   5.254  0.0371  0.0810  0.0276
 2020SAP2   GL224375  10.978  12.384   5.535 -0.0399  0.1743  0.0350
 2020SAP2   D1A24376  11.314  12.704   5.564 -0.0608 -0.2079  0.1334
 2020SAP2   D2A24377  11.596  12.736   5.917  0.0470  0.0909 -0.1095
 2020SAP2   D3A24378  11.674  12.247   5.983  0.0029  0.0559  0.0871
 2020SAP2   D4A24379  12.106  12.254   6.042  0.2877  0.0221 -0.2452
 2020SAP2   C5A24380  12.057  12.682   6.060  0.0070  0.2140 -0.0159
 2020SAP2   C1B24381  11.144  12.481   6.022 -0.3709 -0.4559  0.0907
 2020SAP2   C2B24382  11.383  12.596   6.376  0.0242  0.0691  0.0882
 2020SAP2   C3B24383  11.690  12.754   6.684  0.1062 -0.2683  0.2298
 2020SAP2   C4B24384  12.015  12.735   6.974 -0.3270  0.1270 -0.2720
 2021SAP2    C124385   6.843   4.677   5.957 -0.2316  0.2536  0.0107
 2021SAP2    C224386   6.780   4.836   5.739  0.0122  0.0791 -0.1923
 2021SAP2    C324387   7.088   4.793   5.864 -0.1172  0.1296  0.1539
 2021SAP2    C424388   6.904   4.769   5.853  0.3729  0.6452 -0.7305
 2021SAP2   PO424389   6.682   4.376   6.004 -0.1207  0.1417 -0.0228
 2021SAP2    P424390   7.182   5.006   5.665  0.0386 -0.3019 -0.3677
 2021SAP2    P524391   6.804   5.103   5.639 -0.1441 -0.1191  0.1839
 2021SAP2   GL124392   6.780   4.204   6.360  0.3726  0.1969  0.0325
 2021SAP2   GL224393   6.554   4.262   6.545 -0.1514 -0.0232 -0.1977
 2021SAP2   D1A24394   6.739   3.760   6.524  0.1618 -0.1580 -0.1217
 2021SAP2   D2A24395   6.616   3.982   6.952 -0.2023  0.0717 -0.0666
 2021SAP2   D3A24396   6.421   3.675   7.241  0.0230 -0.0204  0.1989
 2021SAP2   D4A24397   6.323   4.121   7.371 -0.1647  0.0138 -0.2641
 2021SAP2   C5A24398   6.766   4.137   7.527  0.2729  0.1616  0.0572
 2021SAP2   C1B24399   6.367   4.422   6.948  0.1768  0.0593 -0.1579
 2021SAP2   C2B24400   6.096   4.570   7.212 -0.1357  0.0285  0.0625
 2021SAP2   C3B24401   5.849   4.316   7.552 -0.1298 -0.3622  0.0811
 2021SAP2   C4B24402   5.818   3.905   7.836  0.0635 -0.0719 -0.0545
 2022SAP2    C124403  11.883   6.809   7.129  0.1838 -0.1492 -0.1696
 2022SAP2    C224404  11.910   6.625   6.924  0.0080 -0.0179 -0.3135
 2022SAP2    C324405  11.814   6.945   6.887 -0.0475  0.0016 -0.0231
 2022SAP2    C424406  11.869   6.793   6.980  1.4260 -0.0358 -0.1251
 2022SAP2   PO424407  12.058   6.710   7.351 -0.0103  0.0683  0.1823
 2022SAP2    P424408  11.800   7.065   6.621 -0.2041  0.1077 -0.0047
 2022SAP2    P524409  11.676   6.552   6.658 -0.2129  0.1391 -0.0796
 2022SAP2   GL124410  12.129   6.961   7.588 -0.1894 -0.2469 -0.1365
 2022SAP2   GL224411  12.334   7.160   7.509  0.2341 -0.0693 -0.3365
 2022SAP2   D1A24412  12.086   6.891   8.052 -0.3140 -0.0401 -0.0233
 2022SAP2   D2A24413  12.447   6.929   8.311  0.0897 -0.1732 -0.0144
 2022SAP2   D3A24414  12.694   7.415   8.330  0.3357  0.0730  0.2351
 2022SAP2   D4A24415  12.598   7.148   8.749  0.2420 -0.0445  0.0262
 2022SAP2   C5A24416  12.730   7.584   8.854 -0.1470 -0.1350 -0.0855
 2022SAP2   C1B24417  12.626   7.088   7.870  0.0331  0.0179  0.1245
 2022SAP2   C2B24418  12.923   6.932   8.164  0.2054  0.1375 -0.0149
 2022SAP2   C3B24419  13.050   6.733   8.583  0.1404 -0.1654  0.2166
 2022SAP2   C4B24420  12.872   6.705   8.985 -0.0006 -0.0699  0.0433
 2023SAP2    C124421  16.275  14.570  15.818  0.0801  0.2267 -0.0094
 2023SAP2    C224422  16.331  14.636  15.555 -0.1691  0.2081 -0.0694
 2023SAP2    C324423  16.231  14.334  15.662 -0.3645  0.2947 -0.0017
 2023SAP2    C424424  16.279  14.513  15.678  0.6540  0.1385  0.1623
 2023SAP2   PO424425  16.100  14.850  15.943  0.0775  0.0543 -0.0166
 2023SAP2    P424426  16.087  14.149  15.427  0.0278  0.0682  0.1780
 2023SAP2    P524427  16.275  14.581  15.308  0.1285 -0.0092  0.1832
 2023SAP2   GL124428  16.234  14.853  16.234  0.5740 -0.1815  0.2277
 2023SAP2   GL224429  15.979  14.750  16.424  0.2183  0.0140  0.0672
 2023SAP2   D1A24430  15.987  15.244  16.299  0.0059 -0.2109  0.1745
 2023SAP2   D2A24431  16.021  15.244  16.738 -0.0296 -0.1168  0.0794
 2023SAP2   D3A24432  15.903  15.137  17.171  0.1357  0.2729 -0.0462
 2023SAP2   D4A24433  15.931  15.235  17.650 -0.0802 -0.0539  0.0722
 2023SAP2   C5A24434  15.842  15.596  17.993  0.2378 -0.0919 -0.0153
 2023SAP2   C1B24435  16.062  14.780  16.880  0.2737  0.1899  0.0385
 2023SAP2   C2B24436  16.237  14.755  17.336 -0.1689  0.0824 -0.0062
 2023SAP2   C3B24437  16.146  14.808  17.819 -0.1069  0.1029 -0.1840
 2023SAP2   C4B24438  16.017  14.963  18.241  0.0844 -0.3477 -0.1491
 2024SAP2    C124439  14.763   5.132  11.147  0.2054 -0.0073  0.0793
 2024SAP2    C224440  14.948   5.026  11.324  0.0917 -0.0977  0.1455
 2024SAP2    C324441  14.919   5.351  11.246  0.3143 -0.0893  0.0910
 2024SAP2    C424442  14.877   5.170  11.239  0.0707 -0.7103  0.8439
 2024SAP2   PO424443  14.511   4.980  11.272  0.4572 -0.0374 -0.1546
 2024SAP2    P424444  15.118   5.501  11.441  0.2324  0.0713  0.1582
 2024SAP2    P524445  15.205   5.071  11.418  0.0294  0.2248  0.2054
 2024SAP2   GL124446  14.258   5.278  11.349  0.0259  0.0408 -0.1441
 2024SAP2   GL224447  14.194   5.352  11.120 -0.0797 -0.1225  0.4878
 2024SAP2   D1A24448  13.867   5.215  11.645  0.1375  0.3518 -0.3902
 2024SAP2   D2A24449  13.885   5.478  12.005 -0.0034  0.1108 -0.2656
 2024SAP2   D3A24450  13.943   5.053  12.185 -0.0268  0.0481 -0.1431
 2024SAP2   D4A24451  13.535   4.977  12.405  0.0640 -0.5073  0.0566
 2024SAP2   C5A24452  13.447   4.625  12.634  0.1566 -0.1373 -0.1970
 2024SAP2   C1B24453  13.750   5.307  11.199 -0.2410  0.1474 -0.0478
 2024SAP2   C2B24454  13.475   5.642  11.224  0.1142  0.3534 -0.0764
 2024SAP2   C3B24455  13.151   5.966  11.160 -0.3537 -0.1263  0.0474
 2024SAP2   C4B24456  12.738   6.180  11.252 -0.1736  0.1132  0.0071
 2025SAP2    C124457   2.334   6.794  15.516 -0.0916  0.1472  0.2222
 2025SAP2    C224458   2.126   6.769  15.335  0.0344  0.1277  0.0780
 2025SAP2    C324459   2.446   6.687  15.275  0.1108  0.2930  0.2494
 2025SAP2    C424460   2.302   6.750  15.375 -0.1982  0.0127 -0.8388
 2025SAP2   PO424461   2.158   6.654  15.789  0.0184  0.2639  0.5268
 2025SAP2    P424462   2.380   6.595  14.968  0.2890  0.0563  0.1746
 2025SAP2    P524463   1.980   6.866  15.091 -0.0390 -0.1949 -0.1538
 2025SAP2   GL124464   2.208   6.386  15.948 -0.3516 -0.1866 -0.0410
 2025SAP2   GL224465   2.192   6.209  16.150  0.1396  0.3383  0.1691
 2025SAP2   D1A24466   2.282   6.672  16.307 -0.0704  0.0732  0.0689
 2025SAP2   D2A24467   1.950   6.631  16.573  0.2981  0.1106  0.0140
 2025SAP2   D3A24468   1.959   6.748  17.015  0.1306  0.0222 -0.0943
 2025SAP2   D4A24469   1.615   6.918  17.338  0.0293  0.1170  0.2635
 2025SAP2   C5A24470   1.745   7.002  17.804  0.0608  0.1228  0.2416
 2025SAP2   C1B24471   2.316   6.291  16.580  0.1369 -0.1206  0.1403
 2025SAP2   C2B24472   2.454   6.449  16.960 -0.1315  0.1823  0.1646
 2025SAP2   C3B24473   2.531   6.705  17.326  0.1753 -0.0984  0.1871
 2025SAP2   C4B24474   2.776   6.785  17.720  0.1005  0.1535  0.1902
 2026SAP2    C124475   4.232   9.715   9.403  0.2990 -0.0082  0.0227
 2026SAP2    C224476   4.077   9.925   9.494 -0.0894 -0.2146 -0.1383
 2026SAP2    C324477   4.275   9.733   9.685  0.1251  0.1726  0.0401
 2026SAP2    C424478   4.195   9.791   9.528  0.1877  0.0427  0.4538
 2026SAP2   PO424479   4.385   9.760   9.125  0.0740  0.2528 -0.0600
 2026SAP2    P424480   4.206   9.746   9.992  0.0161 -0.0757  0.0534
 2026SAP2    P524481   3.848   9.815   9.734  0.2747 -0.2067  0.0396
 2026SAP2   GL124482   4.472   9.526   8.783  0.2083 -0.1778  0.0532
 2026SAP2   GL224483   4.497   9.319   8.929 -0.1877 -0.1806  0.0737
 2026SAP2   D1A24484   4.188   9.362   8.427  0.3796 -0.2484  0.3785
 2026SAP2   D2A24485   4.516   9.453   8.090  0.2288  0.3111 -0.1339
 2026SAP2   D3A24486   4.465   9.602   7.702 -0.1085  0.3073  0.3341
 2026SAP2   D4A24487   4.776   9.457   7.406  0.3163 -0.1453  0.4618
 2026SAP2   C5A24488   4.878   9.319   7.808 -0.0982  0.2479 -0.2524
 2026SAP2   C1B24489   4.749   9.291   8.549  0.0208 -0.2580  0.3169
 2026SAP2   C2B24490   4.695   8.985   8.216  0.4754 -0.0308  0.1251
 2026SAP2   C3B24491   4.870   8.746   7.886 -0.1390  0.3084  0.0989
 2026SAP2   C4B24492   4.882   8.332   7.665  0.2762 -0.2482  0.1816
 2027SAP2    C124493   1.352   7.792  15.315 -0.0166  0.0148 -0.3526
 2027SAP2    C224494   1.530   7.732  15.111  0.2736  0.0267 -0.1088
 2027SAP2    C324495   1.493   8.034  15.253  0.1158  0.0048 -0.1014
 2027SAP2    C424496   1.458   7.852  15.226  0.2811  0.5913  0.1741
 2027SAP2   PO424497   1.292   7.528  15.541  0.0587  0.1088 -0.2501
 2027SAP2    P424498   1.614   8.208  15.059 -0.1479  0.1527 -0.0894
 2027SAP2    P524499   1.585   7.666  14.798  0.1490  0.2099  0.0163
 2027SAP2   GL124500   1.296   7.659  15.843 -0.2315 -0.0238 -0.1406
 2027SAP2   GL224501   1.092   7.402  15.962 -0.0128  0.0924  0.0587
 2027SAP2   D1A24502   1.300   7.722  16.339  0.1045  0.1018  0.1962
 2027SAP2   D2A24503   1.517   8.050  16.505  0.0583  0.0408 -0.0981
 2027SAP2   D3A24504   1.795   7.923  16.842 -0.2848 -0.1735 -0.0731
 2027SAP2   D4A24505   1.825   8.205  17.203 -0.1832 -0.1704 -0.1323
 2027SAP2   C5A24506   1.420   8.279  16.967  0.2750 -0.2402 -0.2495
 2027SAP2   C1B24507   0.814   7.468  16.308  0.3106 -0.0421 -0.0016
 2027SAP2   C2B24508   0.726   7.420  16.755 -0.0617  0.1535 -0.0351
 2027SAP2   C3B24509   0.574   7.193  17.118 -0.3240 -0.0837 -0.0757
 2027SAP2   C4B24510   0.516   7.160  17.578 -0.0012  0.0077 -0.1529
 2028SAP2    C124511  15.231  15.340  15.665 -0.0783 -0.0765 -0.0116
 2028SAP2    C224512  15.216  15.099  15.530 -0.2289 -0.0295 -0.0818
 2028SAP2    C324513  15.416  15.356  15.447  0.3243 -0.3158  0.2986
 2028SAP2    C424514  15.288  15.265  15.548 -0.0038  0.0606  0.4834
 2028SAP2   PO424515  15.314  15.260  15.959 -0.0703  0.2450  0.2465
 2028SAP2    P424516  15.553  15.155  15.208 -0.1928  0.0878 -0.1899
 2028SAP2    P524517  15.119  14.940  15.297 -0.1213 -0.2163 -0.2905
 2028SAP2   GL124518  15.601  15.426  16.121  0.1920  0.1802  0.1894
 2028SAP2   GL224519  15.366  15.581  16.200  0.1891  0.0506  0.0903
 2028SAP2   D1A24520  15.813  15.708  16.450 -0.1990  0.0280  0.0293
 2028SAP2   D2A24521  15.566  15.857  16.743 -0.0296 -0.1704 -0.0682
 2028SAP2   D3A24522  15.589  16.063  17.144 -0.2154  0.0241  0.1690
 2028SAP2   D4A24523  15.655  16.543  17.105  0.6002 -0.1412  0.0027
 2028SAP2   C5A24524  16.031  16.654  16.858  0.2154  0.0346 -0.1370
 2028SAP2   C1B24525  15.138  15.451  16.570  0.2109 -0.0825  0.1548
 2028SAP2   C2B24526  14.974  15.399  16.972 -0.1990  0.2638 -0.4290
 2028SAP2   C3B24527  14.811  15.583  17.373 -0.1771  0.1704 -0.1408
 2028SAP2   C4B24528  14.682  15.528  17.850  0.0021 -0.2092  0.0550
 2029SAP2    C124529   0.162   7.200  15.270  0.1469 -0.1088 -0.2972
 2029SAP2    C224530   0.180   7.341  15.032 -0.0084 -0.0973 -0.3032
 2029SAP2    C324531  -0.044   7.099  15.098 -0.0535 -0.0074 -0.1213
 2029SAP2    C424532   0.100   7.213  15.133 -0.4757  0.5312  0.0704
 2029SAP2   PO424533   0.227   7.414  15.535  0.0054  0.2619 -0.1508
 2029SAP2    P424534  -0.180   7.076  14.794 -0.1306  0.0525 -0.0181
 2029SAP2    P524535   0.298   7.344  14.834  0.1328  0.2797  0.0188
 2029SAP2   GL124536   0.148   7.258  15.741  0.4435 -0.1176 -0.1373
 2029SAP2   GL224537   0.268   7.406  15.929  0.0325 -0.2616 -0.0891
 2029SAP2   D1A24538  -0.163   7.059  16.034 -0.2320  0.0886 -0.1030
 2029SAP2   D2A24539  -0.536   7.387  16.023 -0.0946  0.1386  0.2465
 2029SAP2   D3A24540  -0.674   6.962  15.931  0.1023  0.4179 -0.1427
 2029SAP2   D4A24541  -0.700   6.814  16.382 -0.0208 -0.2211  0.2560
 2029SAP2   C5A24542  -0.440   6.489  16.532 -0.0479  0.3470  0.1239
 2029SAP2   C1B24543   0.278   7.344  16.395  0.1332  0.2733 -0.0566
 2029SAP2   C2B24544   0.130   7.343  16.842 -0.0882  0.3625  0.2401
 2029SAP2   C3B24545   0.063   7.199  17.259  0.1163 -0.1287  0.1965
 2029SAP2   C4B24546  -0.065   7.324  17.638  0.1566  0.1160  0.5079
 2030SAP2    C124547   7.594  10.653  13.264  0.1389  0.1967 -0.1224
 2030SAP2    C224548   7.626  10.852  13.454 -0.1485  0.1334 -0.0035
 2030SAP2    C324549   7.335  10.766  13.310 -0.0798 -0.3771  0.1450
 2030SAP2    C424550   7.518  10.757  13.343 -0.0189 -0.1702  0.9484
 2030SAP2   PO424551   7.824  10.402  13.316 -0.0194 -0.1211 -0.0692
 2030SAP2    P424552   7.068  10.891  13.392 -0.0914 -0.0872  0.0398
 2030SAP2    P524553   7.526  11.174  13.384  0.0602  0.0205  0.1896
 2030SAP2   GL124554   7.836  10.214  13.643  0.0499 -0.0030 -0.2835
 2030SAP2   GL224555   7.863   9.985  13.559  0.2862  0.0563 -0.1428
 2030SAP2   D1A24556   8.191  10.051  13.900 -0.0410 -0.1709 -0.2560
 2030SAP2   D2A24557   8.384   9.887  14.318  0.1491 -0.0767  0.1819
 2030SAP2   D3A24558   8.107   9.521  14.327  0.0511 -0.1499  0.3165
 2030SAP2   D4A24559   8.120   9.592  13.900  0.4172  0.0397  0.2991
 2030SAP2   C5A24560   7.708   9.540  13.746 -0.1592 -0.1141  0.1291
 2030SAP2   C1B24561   8.304   9.831  13.437  0.2790 -0.2306  0.2247
 2030SAP2   C2B24562   8.477   9.589  13.179  0.0363  0.2736  0.2063
 2030SAP2   C3B24563   8.584   9.167  13.161 -0.0642  0.0768 -0.0732
 2030SAP2   C4B24564   8.247   8.872  13.215 -0.2038 -0.0230  0.0773
 2031SAP2    C124565   7.609  10.928  14.503  0.2378  0.1207 -0.0119
 2031SAP2    C224566   7.424  11.021  14.319  0.2007 -0.0820 -0.0802
 2031SAP2    C324567   7.490  11.162  14.618 -0.2313 -0.1369  0.0474
 2031SAP2    C424568   7.508  11.037  14.480  0.0392  0.0864 -0.2328
 2031SAP2   PO424569   7.888  10.830  14.371  0.0633 -0.1299 -0.0763
 2031SAP2    P424570   7.309  11.399  14.581 -0.3573 -0.1644 -0.2195
 2031SAP2    P524571   7.153  11.084  14.236 -0.0041  0.0307  0.0729
 2031SAP2   GL124572   7.862  10.528  14.543 -0.1042 -0.2758 -0.2239
 2031SAP2   GL224573   8.021  10.423  14.728 -0.2188 -0.2591 -0.0285
 2031SAP2   D1A24574   7.810  10.187  14.203  0.1790  0.2056  0.2104
 2031SAP2   D2A24575   7.629   9.790  14.265  0.1879  0.0499 -0.1356
 2031SAP2   D3A24576   7.560   9.768  14.726 -0.2719 -0.2750  0.2819
 2031SAP2   D4A24577   7.413   9.523  15.001  0.0598 -0.0252 -0.1090
 2031SAP2   C5A24578   7.135   9.298  15.314 -0.0836 -0.0627  0.2399
 2031SAP2   C1B24579   8.079   9.953  14.677  0.0061 -0.1388  0.1706
 2031SAP2   C2B24580   8.059   9.487  14.905  0.1988  0.2375 -0.0176
 2031SAP2   C3B24581   8.321   9.144  15.008  0.2914 -0.0177  0.2415
 2031SAP2   C4B24582   8.216   8.665  14.997 -0.1945 -0.0463 -0.1524
 2032SAP2    C124583  12.884   9.115  14.649  0.0432  0.0225 -0.1761
 2032SAP2    C224584  13.085   9.172  14.466  0.3462  0.2309  0.2078
 2032SAP2    C324585  13.066   9.294  14.779 -0.2938  0.0750  0.2436
 2032SAP2    C424586  13.012   9.194  14.631  0.2791  0.2167 -0.2571
 2032SAP2   PO424587  12.868   8.772  14.572 -0.1402  0.1749  0.0616
 2032SAP2    P424588  13.372   9.456  14.725 -0.0776  0.1537 -0.0258
 2032SAP2    P524589  13.098   9.378  14.228 -0.1519  0.0912  0.2643
 2032SAP2   GL124590  12.617   8.686  14.770 -0.1770  0.2461 -0.4802
 2032SAP2   GL224591  12.678   8.346  14.837  0.0116  0.0769  0.1103
 2032SAP2   D1A24592  12.220   8.380  14.801  0.1603 -0.3399  0.0262
 2032SAP2   D2A24593  12.215   8.772  15.067  0.0932  0.1655 -0.0088
 2032SAP2   D3A24594  11.920   8.760  15.316 -0.0326  0.1238  0.2198
 2032SAP2   D4A24595  12.010   9.087  15.621 -0.1476 -0.0305 -0.0622
 2032SAP2   C5A24596  11.969   8.704  15.917  0.4164  0.2279 -0.1860
 2032SAP2   C1B24597  12.456   8.045  15.068  0.1273  0.2235  0.2264
 2032SAP2   C2B24598  12.091   7.897  14.776 -0.1434  0.1599 -0.2633
 2032SAP2   C3B24599  11.638   7.748  14.939 -0.1163 -0.1068  0.0006
 2032SAP2   C4B24600  11.455   7.971  15.348 -0.0814 -0.5358 -0.4007
 2033SAP2    C124601   7.733   1.230  12.541  0.0987  0.0997 -0.2756
 2033SAP2    C224602   7.597   0.998  12.608  0.3358 -0.0408 -0.2679
 2033SAP2    C324603   7.622   1.125  12.298  0.2005 -0.0209 -0.2713
 2033SAP2    C424604   7.650   1.118  12.482  0.4089 -0.7535 -0.8430
 2033SAP2   PO424605   7.990   1.228  12.648 -0.2590 -0.0415 -0.1345
 2033SAP2    P424606   7.518   1.021  12.035  0.2062 -0.3141  0.0993
 2033SAP2    P524607   7.311   0.840  12.498 -0.0819 -0.1204 -0.3915
 2033SAP2   GL124608   7.939   1.400  12.920  0.2962  0.3324 -0.3979
 2033SAP2   GL224609   7.652   1.480  12.909 -0.2407 -0.1162  0.0193
 2033SAP2   D1A24610   8.237   1.709  12.793 -0.1868  0.1784  0.1200
 2033SAP2   D2A24611   8.267   2.220  12.656  0.1767  0.1080 -0.0066
 2033SAP2   D3A24612   8.475   2.540  12.918 -0.1205 -0.0479  0.5030
 2033SAP2   D4A24613   8.155   2.865  12.985  0.2161  0.0585 -0.2668
 2033SAP2   C5A24614   8.544   2.932  13.241  0.1494  0.0608 -0.0682
 2033SAP2   C1B24615   7.774   1.923  13.115  0.0821  0.1619  0.0528
 2033SAP2   C2B24616   7.838   2.199  13.499  0.0191  0.2083  0.1382
 2033SAP2   C3B24617   7.787   2.566  13.824  0.0595 -0.0754  0.2222
 2033SAP2   C4B24618   7.892   2.695  14.219 -0.2131  0.3269  0.0146
 2034SAP2    C124619  13.161   0.974  13.533  0.1457 -0.0989  0.0374
 2034SAP2    C224620  13.417   0.938  13.435  0.1185 -0.2590  0.0237
 2034SAP2    C324621  13.144   0.769  13.335  0.0190 -0.1374  0.0867
 2034SAP2    C424622  13.241   0.894  13.434  0.0769  0.6035  0.6897
 2034SAP2   PO424623  13.071   1.273  13.556  0.2601  0.2692  0.0701
 2034SAP2    P424624  13.246   0.588  13.049  0.0244  0.1541 -0.0836
 2034SAP2    P524625  13.571   0.661  13.525 -0.0537  0.0463  0.0471
 2034SAP2   GL124626  12.911   1.538  13.401 -0.2178  0.0979 -0.2842
 2034SAP2   GL224627  13.036   1.737  13.563 -0.1853  0.3402 -0.0230
 2034SAP2   D1A24628  13.052   1.919  13.104  0.2592  0.0990  0.3381
 2034SAP2   D2A24629  12.762   2.159  13.378 -0.1425  0.0549 -0.0167
 2034SAP2   D3A24630  12.419   2.279  13.140  0.1228 -0.2180  0.0080
 2034SAP2   D4A24631  12.025   2.510  13.114 -0.3224  0.3236 -0.3270
 2034SAP2   C5A24632  11.841   2.935  13.226  0.1873 -0.1690  0.1827
 2034SAP2   C1B24633  12.839   1.947  13.909  0.2355  0.0258  0.1325
 2034SAP2   C2B24634  12.451   2.212  13.987  0.1830 -0.0816 -0.2006
 2034SAP2   C3B24635  12.236   2.555  14.143 -0.2177 -0.1496  0.1840
 2034SAP2   C4B24636  12.270   2.969  14.302 -0.2682  0.0114 -0.2371
 2035SAP2    C124637   3.280  14.665  16.194 -0.0349  0.0488  0.0813
 2035SAP2    C224638   3.089  14.796  16.041 -0.0298 -0.0001  0.0325
 2035SAP2    C324639   3.380  14.673  15.925 -0.0768 -0.1378  0.0585
 2035SAP2    C424640   3.250  14.711  16.053 -0.0870  0.7953  1.0879
 2035SAP2   PO424641   3.045  14.483  16.365  0.0068 -0.2480  0.2985
 2035SAP2    P424642   3.353  14.555  15.641  0.1027 -0.2137 -0.1043
 2035SAP2    P524643   2.951  14.898  15.836 -0.1848  0.3693  0.0497
 2035SAP2   GL124644   3.066  14.430  16.752 -0.3922 -0.0084  0.2810
 2035SAP2   GL224645   3.243  14.466  16.936  0.0844 -0.0048  0.0108
 2035SAP2   D1A24646   2.892  14.691  17.128  0.0968  0.1523 -0.1991
 2035SAP2   D2A24647   3.006  15.103  17.311  0.2285 -0.0749 -0.1648
 2035SAP2   D3A24648   3.049  15.141  17.760  0.0372  0.1426  0.2922
 2035SAP2   D4A24649   2.918  14.697  17.634 -0.0148 -0.2312 -0.0145
 2035SAP2   C5A24650   3.019  14.638  18.088 -0.0371  0.1890  0.1623
 2035SAP2   C1B24651   3.219  14.369  17.362 -0.0116  0.2101  0.0288
 2035SAP2   C2B24652   3.135  14.232  17.797  0.2592  0.0076 -0.2239
 2035SAP2   C3B24653   3.061  14.179  18.264  0.1684  0.2315  0.2278
 2035SAP2   C4B24654   3.114  14.279  18.735  0.0590  0.0936  0.0532
 2036SAP2    C124655   8.221   4.966  15.658 -0.1566 -0.1683 -0.0040
 2036SAP2    C224656   8.203   5.007  15.931 -0.1642 -0.0096 -0.0270
 2036SAP2    C324657   8.484   4.926  15.765 -0.1558 -0.0885  0.0250
 2036SAP2    C424658   8.303   4.966  15.785 -0.1558  0.4874 -0.7255
 2036SAP2   PO424659   8.018   5.153  15.514  0.0326 -0.1357 -0.0396
 2036SAP2    P424660   8.706   4.972  15.958  0.5036  0.0473 -0.1974
 2036SAP2    P524661   8.395   5.048  16.245  0.0980  0.1992 -0.0595
 2036SAP2   GL124662   7.782   5.249  15.233 -0.0429 -0.1725 -0.1882
 2036SAP2   GL224663   7.642   5.024  15.432  0.0557  0.0932 -0.1424
 2036SAP2   D1A24664   7.794   5.505  14.841  0.0626 -0.3013  0.1812
 2036SAP2   D2A24665   7.521   5.474  14.491 -0.1204 -0.0034 -0.1287
 2036SAP2   D3A24666   7.360   5.206  14.193 -0.0747  0.5071  0.2499
 2036SAP2   D4A24667   6.942   5.244  14.036  0.1626  0.0880  0.1378
 2036SAP2   C5A24668   6.646   5.136  14.427 -0.0019  0.0040  0.0770
 2036SAP2   C1B24669   7.239   4.740  15.540  0.2242  0.1616  0.0075
 2036SAP2   C2B24670   6.908   4.372  15.627 -0.0418  0.2776  0.0567
 2036SAP2   C3B24671   6.472   4.192  15.697 -0.1995  0.0340  0.0121
 2036SAP2   C4B24672   5.992   4.172  15.746 -0.1956  0.0537  0.1260
 2037SAP2    C124673   2.903   2.086  20.338  0.0805  0.1062 -0.0999
 2037SAP2    C224674   2.648   2.146  20.425 -0.0545 -0.2541 -0.2264
 2037SAP2    C324675   2.932   2.254  20.568 -0.2704 -0.3106  0.2686
 2037SAP2    C424676   2.828   2.162  20.444 -0.1127 -0.3677 -0.7096
 2037SAP2   PO424677   2.911   2.183  20.003 -0.0172  0.2689 -0.1059
 2037SAP2    P424678   2.843   2.426  20.848  0.1147 -0.2447 -0.0533
 2037SAP2    P524679   2.471   2.155  20.681 -0.3274  0.1148  0.0014
 2037SAP2   GL124680   2.704   2.035  19.865 -0.1881 -0.3883 -0.2870
 2037SAP2   GL224681   2.603   1.817  19.747  0.1690  0.0821 -0.0420
 2037SAP2   D1A24682   2.774   2.270  19.483  0.1889 -0.2763  0.0715
 2037SAP2   D2A24683   2.547   2.633  19.284 -0.0473 -0.2713  0.0761
 2037SAP2   D3A24684   2.239   2.452  19.581 -0.3434 -0.0401 -0.0361
 2037SAP2   D4A24685   1.939   2.799  19.410  0.0546  0.0116 -0.0961
 2037SAP2   C5A24686   2.303   3.071  19.501 -0.2206  0.2268  0.0143
 2037SAP2   C1B24687   2.439   1.983  19.330 -0.1107 -0.0281  0.2698
 2037SAP2   C2B24688   2.549   2.172  18.909  0.0002  0.3603  0.3118
 2037SAP2   C3B24689   2.696   2.176  18.470 -0.0604  0.1790 -0.1512
 2037SAP2   C4B24690   2.571   2.058  18.064  0.0038  0.0840 -0.4285
 2038SAP2    C124691  12.986   5.899  19.659  0.2907  0.0873  0.0347
 2038SAP2    C224692  12.898   5.678  19.517 -0.1237  0.1913  0.1179
 2038SAP2    C324693  12.948   5.688  19.849  0.0157  0.1898  0.0974
 2038SAP2    C424694  12.944   5.755  19.675  0.0988 -0.7707 -0.0977
 2038SAP2   PO424695  12.820   6.135  19.486 -0.5199  0.0589 -0.3059
 2038SAP2    P424696  12.775   5.393  19.878  0.1001  0.0249 -0.1032
 2038SAP2    P524697  12.957   5.349  19.477 -0.2052 -0.1249 -0.1090
 2038SAP2   GL124698  12.919   6.128  19.210 -0.2149  0.3322 -0.3421
 2038SAP2   GL224699  12.960   6.421  19.166  0.0613  0.1287 -0.1371
 2038SAP2   D1A24700  13.153   6.002  18.871 -0.0217  0.0583 -0.0013
 2038SAP2   D2A24701  12.713   6.089  18.745  0.0033  0.4561 -0.1529
 2038SAP2   D3A24702  12.575   6.506  18.588 -0.3661  0.1332  0.2459
 2038SAP2   D4A24703  13.068   6.577  18.709  0.1751 -0.2319  0.0580
 2038SAP2   C5A24704  12.950   6.335  18.268 -0.2001  0.1164 -0.1100
 2038SAP2   C1B24705  13.393   6.585  19.138  0.2971 -0.0724 -0.1453
 2038SAP2   C2B24706  13.679   6.929  19.153  0.2027 -0.2080 -0.0918
 2038SAP2   C3B24707  14.045   7.162  19.199  0.0838  0.0981  0.1451
 2038SAP2   C4B24708  14.220   7.465  18.928  0.0906 -0.0759  0.0271
 2039SAP2    C124709   3.555   6.667  20.016 -0.3412 -0.0734 -0.0634
 2039SAP2    C224710   3.568   6.721  20.287 -0.5387  0.4717 -0.1487
 2039SAP2    C324711   3.754   6.871  20.051 -0.1201 -0.2417 -0.3033
 2039SAP2    C424712   3.626   6.753  20.118  0.3102  0.4689  0.1302
 2039SAP2   PO424713   3.234   6.619  19.997  0.4238  0.1260 -0.0049
 2039SAP2    P424714   4.056   6.922  20.208  0.1551  0.0802  0.1702
 2039SAP2    P524715   3.800   6.617  20.515 -0.0852 -0.1048  0.1049
 2039SAP2   GL124716   3.188   6.540  19.716  0.1611  0.2210 -0.1702
 2039SAP2   GL224717   3.095   6.351  19.575  0.1400 -0.0062  0.2242
 2039SAP2   D1A24718   3.341   6.737  19.322  0.3037  0.1713  0.3365
 2039SAP2   D2A24719   3.604   6.346  19.205 -0.0239  0.1633  0.0792
 2039SAP2   D3A24720   3.577   6.376  18.775 -0.1170 -0.0157  0.0993
 2039SAP2   D4A24721   3.194   6.438  18.898 -0.0472 -0.0455 -0.0478
 2039SAP2   C5A24722   3.214   6.459  18.413  0.1140  0.0351  0.2265
 2039SAP2   C1B24723   2.867   6.513  19.301  0.0264  0.0402 -0.1483
 2039SAP2   C2B24724   2.590   6.484  18.943 -0.0497 -0.0643 -0.1132
 2039SAP2   C3B24725   2.738   6.527  18.474  0.1090  0.0682 -0.1518
 2039SAP2   C4B24726   2.724   6.464  18.026 -0.0176  0.0168  0.0265
 2040SAP2    C124727   3.743   6.101  19.950  0.0182  0.1397  0.1810
 2040SAP2    C224728   3.851   5.869  19.845  0.0104  0.1892  0.0611
 2040SAP2    C324729   3.802   5.930  20.172  0.1778  0.0940  0.1053
 2040SAP2    C424730   3.799   5.967  19.989 -0.5085  0.5748  0.6943
 2040SAP2   PO424731   3.513   6.215  19.725 -0.4209  0.0571 -0.0721
 2040SAP2    P424732   3.885   5.797  20.416 -0.3093 -0.0651  0.2638
 2040SAP2    P524733   4.083   5.654  19.938 -0.4904  0.0650 -0.1494
 2040SAP2   GL124734   3.426   6.057  19.475 -0.1204 -0.0710  0.1017
 2040SAP2   GL224735   3.648   5.864  19.386  0.3191 -0.0018 -0.0034
 2040SAP2   D1A24736   3.004   5.834  19.625  0.0555  0.2282 -0.1128
 2040SAP2   D2A24737   3.102   5.609  19.231 -0.2368  0.3636 -0.0430
 2040SAP2   D3A24738   3.298   5.990  19.027 -0.1348  0.2727  0.4575
 2040SAP2   D4A24739   3.260   6.008  18.614 -0.1249 -0.2291  0.2349
 2040SAP2   C5A24740   2.862   6.045  18.361 -0.1574  0.2235  0.0440
 2040SAP2   C1B24741   3.918   5.972  18.969  0.1564  0.0957  0.0800
 2040SAP2   C2B24742   3.810   5.938  18.549  0.2875  0.2134 -0.0843
 2040SAP2   C3B24743   3.644   5.956  18.150  0.1353  0.3744  0.1900
 2040SAP2   C4B24744   3.527   5.858  17.739 -0.0609 -0.0107  0.1835
 2041SAP2    C124745  14.337   2.652  20.108 -0.0191  0.2198  0.1340
 2041SAP2    C224746  14.319   2.849  20.301 -0.0985  0.0140  0.3417
 2041SAP2    C324747  14.346   2.520  20.362  0.0605 -0.0404 -0.0002
 2041SAP2    C424748  14.334   2.674  20.257 -0.2579  0.0100  0.3206
 2041SAP2   PO424749  14.503   2.761  19.841 -0.2250 -0.0016  0.0016
 2041SAP2    P424750  14.368   2.508  20.701 -0.1636  0.0663 -0.0888
 2041SAP2    P524751  14.169   2.953  20.507 -0.0543  0.0388 -0.1146
 2041SAP2   GL124752  14.528   2.634  19.449 -0.1137  0.1714  0.2204
 2041SAP2   GL224753  14.333   2.386  19.501 -0.4706 -0.2066  0.1034
 2041SAP2   D1A24754  14.758   2.602  19.055  0.0115 -0.2841 -0.0659
 2041SAP2   D2A24755  15.152   2.928  19.045  0.1129  0.0183  0.1708
 2041SAP2   D3A24756  15.318   2.880  18.673 -0.1473  0.3173  0.0690
 2041SAP2   D4A24757  15.554   2.981  18.320  0.0525  0.3794 -0.2022
 2041SAP2   C5A24758  15.442   2.542  18.243  0.0943 -0.0903  0.1124
 2041SAP2   C1B24759  14.384   2.115  19.148 -0.1362  0.1522 -0.1346
 2041SAP2   C2B24760  14.232   2.042  18.721  0.0675 -0.0573  0.1877
 2041SAP2   C3B24761  14.391   2.231  18.312 -0.0333  0.1293 -0.0267
 2041SAP2   C4B24762  14.174   2.343  17.928 -0.1505 -0.0439 -0.0012
 2042SAP2    C124763   8.106   3.571  17.131 -0.0530 -0.0527  0.2549
 2042SAP2    C224764   8.207   3.662  17.372  0.2933 -0.2318  0.1827
 2042SAP2    C324765   8.309   3.763  17.068 -0.1641  0.0174  0.1024
 2042SAP2    C424766   8.207   3.665  17.190  0.0302 -0.6034 -0.3078
 2042SAP2   PO424767   7.770   3.532  17.194 -0.1030  0.1097  0.2170
 2042SAP2    P424768   8.431   4.041  17.141  0.1176  0.1804  0.5083
 2042SAP2    P524769   8.455   3.699  17.540  0.1720 -0.2276  0.1647
 2042SAP2   GL124770   7.671   3.371  16.888 -0.0841 -0.1361  0.2702
 2042SAP2   GL224771   7.443   3.193  16.968 -0.1119  0.0570 -0.0282
 2042SAP2   D1A24772   7.477   3.297  16.471  0.2215  0.3197  0.1409
 2042SAP2   D2A24773   7.661   2.844  16.614 -0.0282  0.0154  0.0029
 2042SAP2   D3A24774   7.649   2.652  17.049 -0.1581 -0.2077 -0.2630
 2042SAP2   D4A24775   7.351   2.820  17.326  0.2886 -0.2284  0.1309
 2042SAP2   C5A24776   7.228   2.424  17.137  0.0699 -0.2935  0.0442
 2042SAP2   C1B24777   7.238   2.866  16.835  0.1047 -0.0584 -0.3857
 2042SAP2   C2B24778   7.157   2.601  16.495 -0.2078  0.1289  0.0641
 2042SAP2   C3B24779   7.307   2.337  16.122 -0.3100 -0.5563 -0.4470
 2042SAP2   C4B24780   7.645   2.127  15.868 -0.0909 -0.1889  0.0941
 2043SAP2    C124781   9.764   6.273  14.489 -0.0471 -0.1001  0.0373
 2043SAP2    C224782   9.830   6.010  14.547  0.0668 -0.0756  0.0211
 2043SAP2    C324783   9.535   6.113  14.425 -0.0282 -0.1782  0.1606
 2043SAP2    C424784   9.709   6.132  14.487 -0.0682  0.6448 -0.6060
 2043SAP2   PO424785  10.019   6.432  14.368  0.0071 -0.2781  0.1847
 2043SAP2    P424786   9.445   5.833  14.321  0.2707  0.0064 -0.3879
 2043SAP2    P524787   9.698   5.759  14.686 -0.0841  0.2751 -0.0485
 2043SAP2   GL124788   9.858   6.830  14.262  0.3265 -0.3121 -0.1920
 2043SAP2   GL224789  10.049   6.999  14.283 -0.0327  0.0940  0.1741
 2043SAP2   D1A24790   9.633   7.259  14.193 -0.1429  0.2082 -0.0707
 2043SAP2   D2A24791   9.836   7.239  14.618  0.0958  0.1003 -0.4208
 2043SAP2   D3A24792   9.754   7.728  14.509  0.1397 -0.1386 -0.2821
 2043SAP2   D4A24793   9.487   7.869  14.159 -0.0444  0.0595  0.1652
 2043SAP2   C5A24794   9.462   8.359  14.069  0.1493 -0.1147  0.1469
 2043SAP2   C1B24795  10.514   7.050  14.127 -0.1241  0.1519  0.1047
 2043SAP2   C2B24796  10.932   6.906  13.872  0.0727  0.0664 -0.4459
 2043SAP2   C3B24797  11.409   6.962  13.844  0.1644  0.1613  0.2421
 2043SAP2   C4B24798  11.697   6.698  14.087 -0.0907 -0.2925 -0.0683
 2044SAP2    C124799   9.131  11.394  20.324  0.0834 -0.1661 -0.0480
 2044SAP2    C224800   8.903  11.238  20.341 -0.0394  0.0192  0.0407
 2044SAP2    C324801   9.118  11.294  20.593 -0.0610  0.0891  0.0433
 2044SAP2    C424802   9.051  11.309  20.419  0.4255 -0.6760 -0.4914
 2044SAP2   PO424803   8.972  11.611  20.087  0.1289  0.1644 -0.2187
 2044SAP2    P424804   9.025  11.104  20.804  0.2799 -0.0395  0.0196
 2044SAP2    P524805   8.853  10.924  20.494  0.1026  0.2039  0.4086
 2044SAP2   GL124806   8.888  11.523  19.790 -0.0627 -0.1432 -0.2250
 2044SAP2   GL224807   8.654  11.379  19.674  0.1317 -0.1930 -0.0706
 2044SAP2   D1A24808   8.969  11.603  19.319 -0.0227  0.4232 -0.0994
 2044SAP2   D2A24809   9.042  11.696  18.834 -0.1276 -0.1281  0.1831
 2044SAP2   D3A24810   8.794  11.277  18.719 -0.0111 -0.0669 -0.1447
 2044SAP2   D4A24811   9.164  11.370  18.466  0.1729 -0.0839  0.0324
 2044SAP2   C5A24812   9.086  11.570  18.092 -0.1575  0.0621 -0.1053
 2044SAP2   C1B24813   8.409  11.556  19.318  0.0753 -0.1655 -0.1765
 2044SAP2   C2B24814   8.478  11.657  18.908  0.1737  0.0639 -0.0260
 2044SAP2   C3B24815   8.583  11.745  18.494  0.1325 -0.3959 -0.0146
 2044SAP2   C4B24816   8.636  11.762  18.051  0.0514 -0.1239  0.2263
 2045SAP2    C124817   8.365   5.994  15.301  0.0056 -0.0398  0.3701
 2045SAP2    C224818   8.532   5.814  15.173  0.0770  0.1007  0.2620
 2045SAP2    C324819   8.518   5.864  15.505 -0.0195 -0.1773  0.3024
 2045SAP2    C424820   8.472   5.891  15.326 -0.3224  0.0606  0.1185
 2045SAP2   PO424821   8.076   5.914  15.151  0.0473 -0.2115 -0.0492
 2045SAP2    P424822   8.800   5.791  15.566 -0.0461  0.0690  0.1189
 2045SAP2    P524823   8.824   5.983  15.125 -0.0798 -0.1020 -0.1173
 2045SAP2   GL124824   7.899   6.100  14.932  0.2247 -0.2558  0.1104
 2045SAP2   GL224825   7.782   6.341  14.811 -0.1124  0.1973 -0.1964
 2045SAP2   D1A24826   7.460   5.907  14.902 -0.3082  0.2131 -0.3211
 2045SAP2   D2A24827   7.289   6.276  15.101 -0.1192  0.0156 -0.0572
 2045SAP2   D3A24828   7.159   5.888  15.278  0.0274  0.0510  0.1509
 2045SAP2   D4A24829   6.904   6.015  14.924  0.2089 -0.1544 -0.1162
 2045SAP2   C5A24830   6.608   5.667  14.826 -0.0181 -0.3688  0.1059
 2045SAP2   C1B24831   7.628   6.393  14.395  0.0084 -0.2448  0.0866
 2045SAP2   C2B24832   7.463   6.188  14.035  0.1156 -0.1565  0.1877
 2045SAP2   C3B24833   7.594   5.822  13.843  0.1850 -0.0808 -0.2843
 2045SAP2   C4B24834   7.284   5.462  13.782 -0.0115  0.0539  0.1657
 2046SAP2    C124835  11.955  32.816  20.383 -0.1626  0.2131  0.2340
 2046SAP2    C224836  11.956  32.774  20.657  0.1423 -0.0701  0.1943
 2046SAP2    C324837  12.123  33.018  20.497  0.1449 -0.0400  0.2438
 2046SAP2    C424838  12.011  32.869  20.512 -0.0675  0.0028 -0.3924
 2046SAP2   PO424839  11.685  32.788  20.309  0.2581 -0.1146 -0.1471
 2046SAP2    P424840  12.265  33.211  20.688 -0.0128 -0.1156 -0.1698
 2046SAP2    P524841  12.120  32.777  20.937  0.2568 -0.1715  0.1686
 2046SAP2   GL124842  11.743  32.750  19.990 -0.2659  0.0032  0.0602
 2046SAP2   GL224843  11.428  32.697  19.900  0.1126 -0.0474 -0.1540
 2046SAP2   D1A24844  11.957  32.689  19.552 -0.0745 -0.0224  0.1015
 2046SAP2   D2A24845  12.267  32.366  19.450 -0.2176  0.1493 -0.2662
 2046SAP2   D3A24846  12.499  32.319  19.095  0.0430 -0.0886 -0.3015
 2046SAP2   D4A24847  12.705  32.132  18.703  0.2918  0.0532  0.0881
 2046SAP2   C5A24848  12.242  32.074  18.646 -0.2588  0.1978 -0.1675
 2046SAP2   C1B24849  11.330  32.309  19.622 -0.2175  0.1882  0.1594
 2046SAP2   C2B24850  11.148  32.097  19.262 -0.1912  0.0104  0.0779
 2046SAP2   C3B24851  10.951  32.081  18.875  0.2024  0.0366  0.1042
 2046SAP2   C4B24852  10.925  32.106  18.412 -0.0266 -0.0640  0.0144
 2047SAP2    C124853   9.729   4.521  15.092  0.2827  0.2312  0.0799
 2047SAP2    C224854   9.815   4.677  15.304 -0.1426  0.1002  0.3628
 2047SAP2    C324855   9.500   4.665  15.188  0.0102 -0.0996 -0.0519
 2047SAP2    C424856   9.681   4.621  15.195  0.7925 -0.6755 -0.2522
 2047SAP2   PO424857   9.942   4.238  15.123  0.0131 -0.0881 -0.0739
 2047SAP2    P424858   9.361   4.807  15.410  0.1824  0.4632  0.1061
 2047SAP2    P524859   9.841   5.010  15.302 -0.3026  0.1733 -0.2113
 2047SAP2   GL124860  10.158   4.182  14.902  0.0302  0.0981 -0.0101
 2047SAP2   GL224861  10.441   4.151  14.912  0.0722 -0.2166  0.0790
 2047SAP2   D1A24862  10.104   3.779  14.791 -0.0122  0.0545  0.0539
 2047SAP2   D2A24863  10.243   3.646  14.398 -0.0912 -0.0526  0.1288
 2047SAP2   D3A24864  10.167   3.237  14.173  0.0427 -0.0987  0.2258
 2047SAP2   D4A24865   9.909   3.426  13.812  0.3182 -0.3156  0.1473
 2047SAP2   C5A24866   9.867   2.993  13.558 -0.1093 -0.2119 -0.1915
 2047SAP2   C1B24867  10.553   3.687  14.893  0.1151  0.1181  0.0027
 2047SAP2   C2B24868  10.814   3.324  14.896 -0.1173  0.1272  0.2209
 2047SAP2   C3B24869  11.278   3.159  14.978  0.2031  0.0943  0.1670
 2047SAP2   C4B24870  11.450   2.691  15.054  0.0504  0.0797 -0.1351
 2048SAP2    C124871   9.799  11.212  20.110 -0.2382 -0.0955 -0.2641
 2048SAP2    C224872   9.760  11.031  20.316  0.0626 -0.0813 -0.1891
 2048SAP2    C324873   9.874  11.345  20.353 -0.2463  0.0538 -0.3423
 2048SAP2    C424874   9.811  11.196  20.260 -1.0302  0.0380 -0.3092
 2048SAP2   PO424875   9.558  11.211  19.856 -0.0761  0.1468 -0.1063
 2048SAP2    P424876   9.919  11.309  20.685  0.2078  0.0606  0.2399
 2048SAP2    P524877   9.843  10.833  20.496  0.1220  0.0393 -0.1592
 2048SAP2   GL124878   9.327  11.423  19.765 -0.4356  0.1158  0.4791
 2048SAP2   GL224879   9.378  11.459  19.452 -0.2986 -0.3215 -0.4185
 2048SAP2   D1A24880   9.792  11.623  19.769  0.2715  0.0515 -0.1570
 2048SAP2   D2A24881   9.442  11.923  19.654 -0.1024  0.3980  0.3638
 2048SAP2   D3A24882   9.792  12.106  19.940  0.0442  0.4051 -0.0505
 2048SAP2   D4A24883  10.196  11.962  19.820 -0.3710  0.3469  0.0160
 2048SAP2   C5A24884   9.873  12.064  19.484 -0.1618  0.1659  0.0945
 2048SAP2   C1B24885   9.372  11.858  19.172  0.2392  0.1903 -0.1248
 2048SAP2   C2B24886   9.251  12.265  18.914  0.0636 -0.0848 -0.0131
 2048SAP2   C3B24887   9.084  12.602  18.615 -0.1424  0.0460 -0.4727
 2048SAP2   C4B24888   8.863  12.908  18.372 -0.5574 -0.2403  0.1196
34260POPC   NC357100  31.797  31.662   8.070  0.0878 -0.3272  0.2822
34260POPC   PO457101  31.977  32.037   8.052 -0.2473  0.2019  0.0763
34260POPC   GL157102  31.937  31.981   7.625  0.0538 -0.0151  0.0480
34260POPC   GL257103  31.641  31.943   7.564 -0.1593  0.0246 -0.0052
34260POPC   C1A57104  31.831  32.282   7.242  0.2057  0.0226 -0.0451
34260POPC   D2A57105  32.126  32.463   6.898  0.0401 -0.1573 -0.1160
34260POPC   C3A57106  32.114  32.642   6.480  0.0983 -0.2199  0.1497
34260POPC   C4A57107  32.320  32.929   6.145 -0.1709  0.2651  0.5576
34260POPC   C1B57108  31.822  31.769   7.173  0.1596 -0.4781  0.0264
34260POPC   C2B57109  31.899  32.047   6.789  0.1876 -0.1565 -0.1975
34260POPC   C3B57110  32.039  32.117   6.373  0.3563 -0.2161 -0.0403
34260POPC   C4B57111  32.159  32.393   6.045 -0.0889  0.2122  0.2436
34261POPC   NC357112   4.734  20.064  14.176  0.2002 -0.4473  0.1871
34261POPC   PO457113   5.104  19.972  14.187 -0.2997 -0.0439  0.0036
34261POPC   GL157114   5.535  20.085  14.213  0.0051 -0.1802  0.1843
34261POPC   GL257115   5.551  19.790  14.275 -0.0649 -0.1553 -0.3360
34261POPC   C1A57116   5.614  20.286  14.644  0.0739  0.2450  0.2256
34261POPC   D2A57117   5.981  20.361  14.948  0.2344  0.5334  0.3481
34261POPC   C3A57118   6.417  20.452  14.939 -0.3418  0.1576  0.2839
34261POPC   C4A57119   6.653  20.458  15.333 -0.1044  0.1210 -0.4198
34261POPC   C1B57120   5.839  19.797  14.627  0.3943  0.0098  0.1919
34261POPC   C2B57121   5.762  19.942  15.016  0.3122  0.3169  0.0254
34261POPC   C3B57122   6.048  20.009  15.364 -0.0996  0.2035  0.1124
34261POPC   C4B57123   6.106  19.857  15.782 -0.4025  0.0198 -0.2487
34262POPC   NC357124  14.189  29.652   9.403  0.0489 -0.1141  0.1089
34262POPC   PO457125  14.131  29.582   9.017 -0.0066 -0.0554  0.0878
34262POPC   GL157126  14.155  29.645   8.706  0.1797 -0.0743 -0.1658
34262POPC   GL257127  13.861  29.670   8.561  0.2559 -0.0995  0.0769
34262POPC   C1A57128  14.294  29.912   8.363 -0.0410 -0.1065 -0.1510
34262POPC   D2A57129  14.131  30.270   8.087 -0.1300 -0.1315  0.1305
34262POPC   C3A57130  14.041  30.244   7.695  0.1771  0.0346 -0.1817
34262POPC   C4A57131  14.031  30.290   7.207  0.1646 -0.3418  0.1831
34262POPC   C1B57132  13.613  29.477   8.228 -0.2558 -0.1357 -0.1775
34262POPC   C2B57133  13.289  29.238   8.053  0.2160 -0.0115 -0.4274
34262POPC   C3B57134  12.925  29.390   7.732  0.2735  0.3930  0.1790
34262POPC   C4B57135  12.518  29.693   7.674 -0.0730  0.2563 -0.0058
34263POPC   NC357136  11.817  30.330   9.062  0.0459  0.2328 -0.0141
34263POPC   PO457137  11.982  30.114   8.845  0.0480  0.2247 -0.0916
34263POPC   GL157138  11.860  29.975   8.474 -0.0551 -0.1042 -0.0259
34263POPC   GL257139  11.693  30.206   8.340 -0.1346 -0.2044 -0.0743
34263POPC   C1A57140  11.848  29.976   7.975  0.3123 -0.0155  0.2398
34263POPC   D2A57141  11.710  29.908   7.589  0.2513 -0.0699  0.2857
34263POPC   C3A57142  11.865  29.964   7.185  0.0173  0.3126  0.1057
34263POPC   C4A57143  11.687  30.193   6.862 -0.0023  0.2205 -0.2488
34263POPC   C1B57144  11.417  30.301   8.000  0.0040  0.0053 -0.2886
34263POPC   C2B57145  11.349  30.385   7.549 -0.0475 -0.0348 -0.2744
34263POPC   C3B57146  11.267  30.200   7.078  0.2280 -0.1510  0.2187
34263POPC   C4B57147  11.319  29.892   6.713  0.3838 -0.1034 -0.0568
34264POPC   NC357148   9.461  27.772  12.388 -0.1364 -0.0793  0.1582
34264POPC   PO457149   9.721  27.412  12.416  0.1963 -0.0972  0.2926
34264POPC   GL157150   9.789  26.977  12.309  0.2973 -0.0682 -0.0669
34264POPC   GL257151   9.518  26.894  12.394  0.1282 -0.1753 -0.0692
34264POPC   C1A57152  10.005  26.746  12.005  0.1189 -0.2038 -0.0738
34264POPC   D2A57153   9.866  26.497  11.622 -0.1642 -0.0607  0.0899
34264POPC   C3A57154  10.321  26.507  11.474 -0.0190  0.1859 -0.2120
34264POPC   C4A57155  10.596  26.390  11.155 -0.0124 -0.2335 -0.1060
34264POPC   C1B57156   9.293  26.566  12.276  0.2397  0.0683  0.4382
34264POPC   C2B57157   9.330  26.161  12.007 -0.3078 -0.4413  0.0690
34264POPC   C3B57158   9.492  25.795  12.045 -0.4255  0.0772 -0.2514
34264POPC   C4B57159   9.695  25.520  11.751 -0.0271 -0.0663 -0.0148
34265POPC   NC357160  13.856  30.596   8.378  0.4400 -0.1431 -0.1641
34265POPC   PO457161  13.543  30.683   8.200  0.2088  0.0195  0.2558
34265POPC   GL157162  13.804  30.706   7.877  0.0684 -0.4400  0.1330
34265POPC   GL257163  13.584  30.612   7.705 -0.2428 -0.1430  0.0246
34265POPC   C1A57164  14.075  30.781   7.478  0.0182  0.0629 -0.2834
34265POPC   D2A57165  14.138  30.797   7.019  0.4524  0.0027 -0.1914
34265POPC   C3A57166  13.884  30.984   6.688 -0.3030  0.3331 -0.0076
34265POPC   C4A57167  13.563  30.894   6.358 -0.0745  0.1304 -0.2485
34265POPC   C1B57168  13.648  30.636   7.275  0.2143 -0.0591  0.2847
34265POPC   C2B57169  13.672  31.117   7.144 -0.0095  0.0228 -0.1623
34265POPC   C3B57170  13.558  31.319   6.785 -0.0074  0.2371  0.2357
34265POPC   C4B57171  13.384  31.629   6.532  0.1076  0.0332  0.1007
34266POPC   NC357172  16.791  28.102   8.412  0.0775  0.1244  0.0204
34266POPC   PO457173  16.547  28.150   8.757  0.3753 -0.2174 -0.0536
34266POPC   GL157174  16.470  27.752   8.554 -0.2974  0.0472 -0.3274
34266POPC   GL257175  16.153  27.780   8.492 -0.3443  0.1031 -0.0381
34266POPC   C1A57176  16.530  27.763   8.093  0.0204  0.0698  0.0048
34266POPC   D2A57177  16.552  28.137   7.842  0.0585  0.4157  0.3507
34266POPC   C3A57178  16.420  28.022   7.380 -0.1010 -0.1130  0.1486
34266POPC   C4A57179  16.625  28.096   6.937 -0.1002 -0.1873  0.0949
34266POPC   C1B57180  15.776  27.705   8.237  0.0372 -0.0149  0.3024
34266POPC   C2B57181  15.741  27.550   7.822  0.2885 -0.0611  0.1937
34266POPC   C3B57182  15.691  27.217   7.449  0.1568  0.3364  0.3154
34266POPC   C4B57183  15.497  27.068   7.087  0.0989  0.1354 -0.0390
34267POPC   NC357184   1.862  28.344   8.183 -0.2923 -0.1617 -0.1045
34267POPC   PO457185   2.124  28.109   8.089  0.2374  0.0819 -0.0753
34267POPC   GL157186   2.020  28.156   7.790  0.2105 -0.0433  0.3606
34267POPC   GL257187   1.942  28.424   7.677  0.1689  0.0124  0.0655
34267POPC   C1A57188   2.098  28.057   7.364 -0.0089  0.0960 -0.1946
34267POPC   D2A57189   2.046  28.328   6.956 -0.2120  0.0600  0.1958
34267POPC   C3A57190   2.339  28.204   6.547 -0.3530  0.2759 -0.1139
34267POPC   C4A57191   2.606  28.461   6.250 -0.1865 -0.1464  0.0190
34267POPC   C1B57192   2.233  28.562   7.353  0.0664  0.0573  0.1129
34267POPC   C2B57193   2.535  28.491   6.918 -0.1087 -0.1264 -0.2616
34267POPC   C3B57194   2.853  28.224   6.638 -0.0902 -0.2253  0.3810
34267POPC   C4B57195   3.214  28.487   6.298  0.1261 -0.0880  0.1274
34268POPC   NC357196   7.422  18.180  10.865  0.0441 -0.3974 -0.2127
34268POPC   PO457197   7.359  17.895  10.639 -0.0906 -0.0366  0.1137
34268POPC   GL157198   7.484  18.142  10.318  0.0664  0.0600  0.0991
34268POPC   GL257199   7.748  18.169  10.444  0.3053 -0.4356  0.1118
34268POPC   C1A57200   7.445  18.509   9.983 -0.1509 -0.0355 -0.0752
34268POPC   D2A57201   7.497  18.875   9.729  0.2008  0.0509  0.0620
34268POPC   C3A57202   7.298  18.724   9.379 -0.0193 -0.1368  0.2891
34268POPC   C4A57203   7.226  18.498   8.964  0.1053 -0.1460 -0.2733
34268POPC   C1B57204   7.556  18.607  10.464 -0.1368 -0.0572 -0.2403
34268POPC   C2B57205   7.619  19.069  10.589  0.1057 -0.1382 -0.1497
34268POPC   C3B57206   7.487  19.282  10.985 -0.1386 -0.2981  0.1035
34268POPC   C4B57207   7.389  19.722  11.169 -0.1830 -0.0473  0.3919
34269POPC   NC357208  14.777  28.726   8.919  0.0797 -0.0530 -0.1736
34269POPC   PO457209  14.610  28.391   8.942  0.2778  0.0776  0.0758
34269POPC   GL157210  14.471  28.278   8.614  0.5416 -0.1514  0.2568
34269POPC   GL257211  14.706  28.055   8.508  0.2865 -0.1154 -0.4238
34269POPC   C1A57212  14.191  27.914   8.492 -0.0123  0.1667  0.2283
34269POPC   D2A57213  13.889  27.909   8.153 -0.2394  0.0487 -0.0453
34269POPC   C3A57214  13.876  28.094   7.721  0.0012  0.1260  0.1888
34269POPC   C4A57215  13.544  28.394   7.637  0.0931 -0.0182  0.0874
34269POPC   C1B57216  14.620  27.732   8.223  0.0500  0.2388 -0.0765
34269POPC   C2B57217  14.281  27.512   7.987  0.0360 -0.0161 -0.1835
34269POPC   C3B57218  13.862  27.542   7.794 -0.0390  0.1355 -0.3072
34269POPC   C4B57219  13.574  27.709   7.512 -0.0220  0.2650  0.2601
34270POPC   NC357220   4.089  28.243   8.387 -0.3086 -0.1269  0.0631
34270POPC   PO457221   4.370  28.493   8.471 -0.0172 -0.1441  0.1094
34270POPC   GL157222   4.479  28.404   8.102 -0.1650 -0.0135  0.0532
34270POPC   GL257223   4.312  28.523   7.924  0.4382  0.1265 -0.3015
34270POPC   C1A57224   4.851  28.547   7.837 -0.2875  0.0716  0.1326
34270POPC   D2A57225   5.278  28.661   7.674 -0.0893  0.1064  0.3159
34270POPC   C3A57226   5.406  28.974   7.359 -0.1507 -0.1477 -0.0693
34270POPC   C4A57227   5.572  29.028   6.968  0.0692  0.0497  0.4008
34270POPC   C1B57228   4.164  28.385   7.496 -0.2277  0.0554  0.1321
34270POPC   C2B57229   4.288  28.412   7.059 -0.0360  0.1014  0.1744
34270POPC   C3B57230   4.540  28.751   6.806  0.2087  0.1965 -0.0970
34270POPC   C4B57231   4.717  29.004   6.414  0.0706 -0.1354 -0.1832
34271POPC   NC357232  15.083  30.437   8.543  0.1101  0.2410  0.1730
34271POPC   PO457233  15.028  30.797   8.422  0.1593 -0.0291  0.0396
34271POPC   GL157234  14.827  30.744   8.124  0.0433 -0.1177 -0.0135
34271POPC   GL257235  15.002  30.600   7.926 -0.1734 -0.2404 -0.2377
34271POPC   C1A57236  14.609  30.348   8.170  0.0299 -0.0748  0.0568
34271POPC   D2A57237  14.493  30.000   7.898  0.0197  0.0800 -0.1934
34271POPC   C3A57238  14.379  29.960   7.483  0.1386  0.1303  0.2929
34271POPC   C4A57239  14.383  29.887   7.039 -0.0232 -0.0279  0.2244
34271POPC   C1B57240  15.044  30.587   7.464  0.0529 -0.1299  0.0721
34271POPC   C2B57241  15.273  30.355   7.118 -0.1140  0.2207  0.0661
34271POPC   C3B57242  15.449  30.518   6.711 -0.1763  0.2539 -0.3450
34271POPC   C4B57243  15.305  30.887   6.444 -0.1086 -0.1955  0.0213
34272POPC   NC357244   0.975  29.506   7.843 -0.1915  0.1558  0.3522
34272POPC   PO457245   1.300  29.751   7.730  0.2304 -0.0934 -0.0611
34272POPC   GL157246   1.281  29.674   7.396  0.3564  0.0827  0.1107
34272POPC   GL257247   1.024  29.831   7.326 -0.1599  0.2056  0.1458
34272POPC   C1A57248   1.312  29.755   6.927  0.1973  0.0672  0.0445
34272POPC   D2A57249   1.553  29.953   6.579 -0.0268  0.2749  0.0055
34272POPC   C3A57250   1.484  29.990   6.098  0.1008 -0.1468  0.3165
34272POPC   C4A57251   1.261  29.829   5.769 -0.2063 -0.0733 -0.4519
34272POPC   C1B57252   0.693  29.731   7.072 -0.1868  0.3494  0.0942
34272POPC   C2B57253   0.520  29.740   6.621 -0.2150 -0.3449  0.4712
34272POPC   C3B57254   0.642  29.519   6.269  0.1175  0.3356  0.0177
34272POPC   C4B57255   0.851  29.474   5.884 -0.1049 -0.0997  0.0578
34273POPC   NC357256   2.623  16.500   9.144 -0.1967  0.1427  0.0122
34273POPC   PO457257   2.847  16.573   8.804  0.0973  0.0775  0.2530
34273POPC   GL157258   2.924  16.617   8.331 -0.1828 -0.1714 -0.2980
34273POPC   GL257259   3.074  16.500   8.124  0.0339  0.2845  0.2590
34273POPC   C1A57260   2.998  16.999   8.112 -0.1490 -0.2348  0.0143
34273POPC   D2A57261   2.985  17.244   7.688 -0.0157 -0.1161  0.1613
34273POPC   C3A57262   3.321  17.448   7.402 -0.0097  0.2712  0.3069
34273POPC   C4A57263   3.674  17.757   7.468 -0.0281 -0.0135  0.0441
34273POPC   C1B57264   3.245  16.799   7.739  0.0196  0.0467  0.3296
34273POPC   C2B57265   3.427  16.847   7.320  0.0092 -0.3591 -0.1831
34273POPC   C3B57266   3.728  16.928   6.954  0.0893  0.0163 -0.0529
34273POPC   C4B57267   3.752  17.244   6.620  0.2293  0.0887  0.1518
34274POPC   NC357268   8.250  18.264  10.495 -0.3059  0.0078  0.1270
34274POPC   PO457269   8.477  18.117  10.767  0.0454 -0.3209  0.1824
34274POPC   GL157270   8.674  18.507  10.777 -0.0654 -0.3222 -0.0473
34274POPC   GL257271   8.925  18.482  10.959  0.2910 -0.1830 -0.1818
34274POPC   C1A57272   8.469  18.935  10.844 -0.1848 -0.2021  0.2069
34274POPC   D2A57273   8.587  19.344  10.610  0.0245  0.0374  0.2081
34274POPC   C3A57274   8.239  19.674  10.586 -0.0155 -0.2129 -0.1231
34274POPC   C4A57275   8.023  19.773  10.184  0.5097  0.3306 -0.0563
34274POPC   C1B57276   9.031  18.891  10.885 -0.0532  0.1257  0.2120
34274POPC   C2B57277   9.128  19.316  10.652  0.1128  0.3417  0.0016
34274POPC   C3B57278   8.900  19.627  10.405 -0.1242 -0.2224  0.1079
34274POPC   C4B57279   8.562  19.951  10.240 -0.3214 -0.0088  0.0698
34275POPC   NC357280  14.967  18.074  15.156 -0.0454 -0.0423 -0.2496
34275POPC   PO457281  15.305  18.182  15.352 -0.0470 -0.1368 -0.1114
34275POPC   GL157282  15.309  18.245  15.731  0.1532 -0.0562 -0.0074
34275POPC   GL257283  15.435  18.539  15.779 -0.2482 -0.2826  0.1281
34275POPC   C1A57284  14.996  18.075  15.955 -0.1353 -0.1963 -0.0388
34275POPC   D2A57285  14.589  18.195  16.110 -0.0985  0.2392 -0.0569
34275POPC   C3A57286  14.511  18.001  16.489  0.1191 -0.1172 -0.4811
34275POPC   C4A57287  14.606  17.999  16.922 -0.1221  0.0097  0.1350
34275POPC   C1B57288  15.291  18.485  16.217 -0.0279 -0.1627 -0.2617
34275POPC   C2B57289  15.181  18.701  16.627  0.0682 -0.1187  0.0087
34275POPC   C3B57290  14.884  18.851  16.938  0.1176  0.2718  0.0482
34275POPC   C4B57291  14.489  18.884  17.233 -0.1124  0.2352 -0.1544
34276POPC   NC357292   8.768   0.547  10.052  0.0035 -0.1269 -0.2865
34276POPC   PO457293   9.093   0.296   9.915  0.0711 -0.2535 -0.0262
34276POPC   GL157294   9.376   0.477   9.641  0.0341  0.1420  0.1766
34276POPC   GL257295   9.259   0.662   9.472  0.1699  0.0827 -0.4055
34276POPC   C1A57296   9.704   0.712   9.428  0.1272 -0.0079  0.1044
34276POPC   D2A57297   9.933   0.968   9.109 -0.0894 -0.2352  0.0914
34276POPC   C3A57298  10.324   1.102   9.306  0.0873  0.0985  0.0457
34276POPC   C4A57299  10.745   1.104   9.239  0.1413 -0.3385 -0.0221
34276POPC   C1B57300   9.302   1.104   9.293 -0.0119 -0.2050 -0.1086
34276POPC   C2B57301   9.531   1.393   8.977 -0.2237  0.1384 -0.2180
34276POPC   C3B57302  10.036   1.461   8.995  0.1424 -0.0162 -0.0155
34276POPC   C4B57303  10.476   1.475   8.973  0.0974 -0.2374  0.4698
34277POPC   NC357304   2.074  21.341   9.457 -0.2680 -0.0150 -0.2664
34277POPC   PO457305   2.479  21.358   9.492  0.1851 -0.2796  0.1033
34277POPC   GL157306   2.412  21.310   9.051 -0.4810 -0.1114 -0.1831
34277POPC   GL257307   2.120  21.360   8.948 -0.1177 -0.0395  0.2518
34277POPC   C1A57308   2.727  21.441   8.743  0.0517 -0.0428 -0.0808
34277POPC   D2A57309   2.800  21.534   8.348  0.2295 -0.1964  0.0717
34277POPC   C3A57310   2.793  21.526   7.868  0.3298  0.1567  0.2292
34277POPC   C4A57311   2.695  21.611   7.408 -0.0622  0.0492  0.0900
34277POPC   C1B57312   2.279  21.619   8.585 -0.1259 -0.2784  0.0074
34277POPC   C2B57313   2.409  21.827   8.189 -0.0281  0.1718  0.0364
34277POPC   C3B57314   2.536  21.942   7.742  0.2069  0.0124  0.3536
34277POPC   C4B57315   2.833  22.122   7.403 -0.0854 -0.1708  0.0718
34278POPC   NC357316  13.435  28.047   9.374 -0.1048  0.3058 -0.2103
34278POPC   PO457317  13.360  28.419   9.238  0.0822 -0.2066 -0.1040
34278POPC   GL157318  13.009  28.446   8.952  0.1160 -0.0577  0.0652
34278POPC   GL257319  13.029  28.655   8.812 -0.0476  0.0665  0.2198
34278POPC   C1A57320  12.804  28.151   8.663  0.3069  0.2269 -0.0644
34278POPC   D2A57321  12.585  27.879   8.369 -0.0610 -0.1627  0.3149
34278POPC   C3A57322  12.283  27.671   8.102  0.1528 -0.0715  0.2770
34278POPC   C4A57323  12.028  27.602   7.742 -0.3494  0.3384 -0.1636
34278POPC   C1B57324  13.315  28.381   8.626  0.1779 -0.0446 -0.2414
34278POPC   C2B57325  13.553  28.346   8.207  0.0656  0.2462 -0.1146
34278POPC   C3B57326  13.458  27.888   7.982 -0.2447 -0.0731  0.1636
34278POPC   C4B57327  13.377  27.402   7.901  0.1153 -0.0441 -0.1219
34279POPC   NC357328   3.899  22.103  10.482 -0.0550 -0.2909  0.2196
34279POPC   PO457329   4.143  22.226  10.198 -0.0653  0.0915 -0.0325
34279POPC   GL157330   4.520  22.423  10.075  0.0633  0.1007  0.0720
34279POPC   GL257331   4.642  22.186  10.032 -0.2620 -0.1708  0.2538
34279POPC   C1A57332   4.693  22.566   9.668  0.1844 -0.0080 -0.2424
34279POPC   D2A57333   4.659  22.767   9.267 -0.0628 -0.1242  0.0726
34279POPC   C3A57334   4.861  23.147   9.117  0.0352  0.1610 -0.1219
34279POPC   C4A57335   5.296  23.409   9.319  0.2413  0.0518  0.3706
34279POPC   C1B57336   4.890  22.093   9.655  0.1031  0.0730  0.0696
34279POPC   C2B57337   5.186  21.906   9.337 -0.1930 -0.2039 -0.1086
34279POPC   C3B57338   5.274  22.083   8.891  0.1545  0.1345  0.1879
34279POPC   C4B57339   5.335  22.449   8.597  0.1038  0.1739  0.1564
34280POPC   NC357340  14.702  20.019   9.530 -0.0532 -0.0313 -0.1522
34280POPC   PO457341  14.614  19.695   9.797 -0.1771  0.0603 -0.1443
34280POPC   GL157342  14.400  19.715   9.447 -0.3926  0.0516 -0.0259
34280POPC   GL257343  14.504  19.733   9.149 -0.0228 -0.0742 -0.1662
34280POPC   C1A57344  14.011  19.992   9.386  0.1430  0.2896  0.3740
34280POPC   D2A57345  13.644  19.930   9.095 -0.2129 -0.3251  0.2089
34280POPC   C3A57346  13.285  20.015   8.843  0.0990  0.2084  0.0087
34280POPC   C4A57347  13.011  20.332   8.772 -0.0878 -0.0697  0.2595
34280POPC   C1B57348  14.351  20.162   9.012  0.2527 -0.0561 -0.0261
34280POPC   C2B57349  13.896  20.273   8.798  0.1452  0.0773 -0.2578
34280POPC   C3B57350  13.508  20.372   8.550  0.3462 -0.0168 -0.0344
34280POPC   C4B57351  13.401  20.231   8.113  0.1977  0.0500 -0.0012
34281POPC   NC357352  16.129  20.309  15.320  0.0939 -0.1873  0.2876
34281POPC   PO457353  16.386  20.555  15.473  0.3170 -0.1518  0.1286
34281POPC   GL157354  16.399  20.615  15.886  0.1293  0.1993  0.3111
34281POPC   GL257355  16.500  20.635  16.186  0.1322  0.0573 -0.1271
34281POPC   C1A57356  16.166  20.965  16.103  0.4321  0.2739  0.0184
34281POPC   D2A57357  15.916  21.250  16.223  0.1379  0.1210 -0.0321
34281POPC   C3A57358  15.741  21.536  16.465  0.0172 -0.0307  0.0145
34281POPC   C4A57359  15.758  21.687  16.896 -0.2025  0.1753 -0.1259
34281POPC   C1B57360  16.112  20.695  16.506  0.0781  0.3218 -0.0167
34281POPC   C2B57361  15.887  21.078  16.681  0.2550  0.1721 -0.1026
34281POPC   C3B57362  15.855  21.260  17.105  0.4003  0.1618 -0.1146
34281POPC   C4B57363  15.861  21.593  17.363  0.0020 -0.2305 -0.2404
34282POPC   NC357364  13.522  20.084  11.032  0.1330  0.0525  0.3316
34282POPC   PO457365  13.425  19.734  10.970 -0.0137 -0.0044 -0.2074
34282POPC   GL157366  13.172  19.890  10.760 -0.2319  0.2583  0.6627
34282POPC   GL257367  13.208  20.138  10.662  0.0712 -0.2572  0.2639
34282POPC   C1A57368  12.776  19.946  10.543 -0.0104  0.3067  0.0650
34282POPC   D2A57369  12.376  20.208  10.580  0.2361 -0.0806 -0.0231
34282POPC   C3A57370  12.386  20.400  11.017 -0.0684 -0.4744 -0.0347
34282POPC   C4A57371  12.633  20.655  11.354  0.1312  0.2496  0.1548
34282POPC   C1B57372  13.013  20.336  10.282 -0.1173 -0.3401  0.0047
34282POPC   C2B57373  12.769  20.540   9.936 -0.3354  0.3094 -0.0483
34282POPC   C3B57374  12.740  20.733   9.594  0.0004  0.1434  0.0112
34282POPC   C4B57375  12.471  21.083   9.564  0.1805 -0.1636  0.0020
34283POPC   NC357376   6.271  16.816   9.881  0.0228 -0.0741  0.0823
34283POPC   PO457377   6.070  16.672   9.569 -0.0297 -0.1102 -0.0301
34283POPC   GL157378   5.921  16.906   9.299 -0.1303  0.0402  0.0854
34283POPC   GL257379   6.146  16.914   9.114 -0.3249  0.1765  0.2488
34283POPC   C1A57380   5.675  16.805   8.910 -0.2474  0.2151  0.0153
34283POPC   D2A57381   5.484  16.681   8.473 -0.0202 -0.2426  0.0807
34283POPC   C3A57382   5.611  16.974   8.128 -0.1073 -0.1362  0.0526
34283POPC   C4A57383   5.619  17.048   7.719 -0.0835 -0.2120 -0.2227
34283POPC   C1B57384   6.033  17.291   8.925 -0.2249 -0.1835 -0.2397
34283POPC   C2B57385   6.019  17.562   8.542 -0.0864 -0.0697 -0.1114
34283POPC   C3B57386   6.075  18.064   8.470  0.0173 -0.0789  0.1579
34283POPC   C4B57387   6.412  18.317   8.430  0.0973 -0.2789  0.1511
34284POPC   NC357388  15.788  23.226   9.224 -0.0399 -0.0308 -0.0652
34284POPC   PO457389  15.561  23.352   9.532 -0.0295  0.2575 -0.1788
34284POPC   GL157390  15.321  23.372   9.314  0.6153 -0.0939 -0.0151
34284POPC   GL257391  15.452  23.580   9.140 -0.0425  0.1915  0.2125
34284POPC   C1A57392  15.367  23.144   8.898 -0.0530  0.1550  0.1897
34284POPC   D2A57393  15.259  23.193   8.452 -0.1848  0.1317  0.0191
34284POPC   C3A57394  14.925  23.320   8.182  0.0678  0.2830  0.2922
34284POPC   C4A57395  14.540  23.344   7.922  0.1138  0.0762  0.0829
34284POPC   C1B57396  15.110  23.641   8.812  0.0249  0.3776  0.2838
34284POPC   C2B57397  15.227  23.677   8.354 -0.2523 -0.1234 -0.1256
34284POPC   C3B57398  15.303  23.522   7.901  0.0343  0.3875 -0.1220
34284POPC   C4B57399  15.272  23.497   7.382 -0.0005 -0.0210  0.0351
34285POPC   NC357400  16.426  21.046   9.217 -0.2138  0.3211  0.0626
34285POPC   PO457401  16.250  21.331   9.419  0.1222  0.0247  0.0277
34285POPC   GL157402  15.894  21.271   9.213  0.0433 -0.2983  0.4323
34285POPC   GL257403  15.878  20.999   9.276  0.3217  0.0373 -0.2185
34285POPC   C1A57404  15.855  21.268   8.753  0.1493 -0.5441  0.0845
34285POPC   D2A57405  16.056  21.330   8.372  0.1903 -0.0112  0.2770
34285POPC   C3A57406  16.059  21.664   8.018 -0.1698  0.1183  0.0045
34285POPC   C4A57407  16.054  21.714   7.592  0.0338  0.1406 -0.0930
34285POPC   C1B57408  15.598  20.862   8.898  0.4167 -0.1798  0.0420
34285POPC   C2B57409  15.486  20.699   8.466  0.0229  0.0959  0.3473
34285POPC   C3B57410  15.285  20.732   8.042  0.0871  0.2033  0.1814
34285POPC   C4B57411  14.944  20.696   7.697 -0.0129  0.0423  0.2291
34286POPC   NC357412   3.941  22.873  15.392  0.0622 -0.0712 -0.2644
34286POPC   PO457413   3.591  22.734  15.367 -0.0356 -0.1143 -0.4207
34286POPC   GL157414   3.800  22.496  15.702 -0.0978 -0.0597 -0.0328
34286POPC   GL257415   3.664  22.231  15.704 -0.0565  0.2709 -0.1426
34286POPC   C1A57416   3.900  22.587  16.118 -0.1883  0.1369  0.0684
34286POPC   D2A57417   4.081  22.362  16.437  0.1273 -0.1945  0.0924
34286POPC   C3A57418   3.951  22.360  16.872  0.2656 -0.3998 -0.2234
34286POPC   C4A57419   3.701  22.405  17.318 -0.0580 -0.2689 -0.2212
34286POPC   C1B57420   3.416  22.223  16.093  0.0638  0.0077 -0.0257
34286POPC   C2B57421   3.488  22.309  16.562  0.0221  0.0175  0.1345
34286POPC   C3B57422   3.314  22.374  16.961  0.2198  0.1835  0.2179
34286POPC   C4B57423   3.046  22.314  17.335  0.1142  0.1225 -0.1771
34287POPC   NC357424   3.824  27.481   8.643  0.0178 -0.2980 -0.3000
34287POPC   PO457425   3.743  27.118   8.797 -0.1651  0.3951 -0.1903
34287POPC   GL157426   3.813  27.010   8.424  0.0067 -0.1027  0.0515
34287POPC   GL257427   4.011  27.018   8.153  0.0818 -0.1206  0.1147
34287POPC   C1A57428   3.718  26.648   8.141 -0.0645 -0.1235 -0.0297
34287POPC   D2A57429   3.900  26.512   7.681  0.2067  0.1755 -0.1558
34287POPC   C3A57430   3.988  26.140   7.514 -0.0898  0.0935 -0.0665
34287POPC   C4A57431   4.271  25.755   7.368 -0.0604 -0.1666 -0.0611
34287POPC   C1B57432   4.281  26.890   7.790  0.1161  0.0538  0.2596
34287POPC   C2B57433   4.367  26.553   7.425 -0.3428 -0.1864 -0.0083
34287POPC   C3B57434   4.564  26.169   7.362 -0.0851  0.1741 -0.1038
34287POPC   C4B57435   4.809  25.799   7.369 -0.0506 -0.2537  0.1374
34288POPC   NC357436   4.859  28.773   9.264  0.1683  0.3594 -0.0165
34288POPC   PO457437   5.098  28.949   9.040 -0.1078  0.1323 -0.2382
34288POPC   GL157438   5.323  28.871   8.655  0.0568 -0.2068  0.1002
34288POPC   GL257439   5.188  28.645   8.613  0.0741  0.1083  0.0256
34288POPC   C1A57440   5.175  28.956   8.225  0.0353 -0.0661  0.1962
34288POPC   D2A57441   5.275  29.195   7.859 -0.0178 -0.0325 -0.0544
34288POPC   C3A57442   4.964  29.148   7.475 -0.0018  0.3033 -0.1284
34288POPC   C4A57443   4.581  29.334   7.328  0.0404 -0.3300 -0.0933
34288POPC   C1B57444   5.308  28.486   8.147 -0.1291 -0.0915 -0.0473
34288POPC   C2B57445   5.640  28.364   7.849 -0.2375 -0.2871 -0.1238
34288POPC   C3B57446   6.049  28.366   7.632 -0.0094 -0.1610 -0.0421
34288POPC   C4B57447   6.371  28.220   7.352 -0.0326  0.0101  0.1362
34289POPC   NC357448   2.758  19.891   9.027 -0.0479 -0.0741  0.3104
34289POPC   PO457449   2.472  20.095   9.147 -0.1311  0.2576 -0.2461
34289POPC   GL157450   2.550  20.360   8.852 -0.3113 -0.0582  0.2266
34289POPC   GL257451   2.776  20.269   8.707  0.0585 -0.0464 -0.1338
34289POPC   C1A57452   2.606  20.637   8.461  0.0381  0.1339  0.0337
34289POPC   D2A57453   2.784  20.584   8.081 -0.2491 -0.0153 -0.1341
34289POPC   C3A57454   3.247  20.581   8.052  0.0557  0.0599 -0.0738
34289POPC   C4A57455   3.487  20.899   7.824 -0.2225 -0.3314  0.1477
34289POPC   C1B57456   2.901  20.132   8.271  0.2593 -0.2824 -0.0342
34289POPC   C2B57457   3.007  19.932   7.858  0.1434  0.1592 -0.3070
34289POPC   C3B57458   3.191  19.849   7.465 -0.2515 -0.2837  0.3493
34289POPC   C4B57459   3.413  19.642   7.100  0.0809 -0.1957  0.1582
34290POPC   NC357460  12.566  31.493   8.559 -0.0452  0.0854  0.1662
34290POPC   PO457461  12.206  31.551   8.552 -0.0562 -0.1166 -0.0662
34290POPC   GL157462  12.264  31.613   8.210  0.0811 -0.2021  0.0690
34290POPC   GL257463  12.489  31.773   8.115 -0.0534  0.2776 -0.2183
34290POPC   C1A57464  12.275  31.366   7.824  0.2027 -0.0931 -0.2909
34290POPC   D2A57465  12.198  31.122   7.432  0.1548  0.1986 -0.1846
34290POPC   C3A57466  12.091  31.416   7.086 -0.1656  0.3015 -0.0120
34290POPC   C4A57467  12.250  31.466   6.674  0.0738 -0.1578 -0.1430
34290POPC   C1B57468  12.787  31.607   7.761  0.2592 -0.1805  0.1598
34290POPC   C2B57469  12.966  31.374   7.340  0.2133 -0.0312 -0.2857
34290POPC   C3B57470  13.091  31.383   6.858 -0.4748 -0.2548  0.1712
34290POPC   C4B57471  13.086  31.198   6.439 -0.2413  0.1350 -0.2109
34291POPC   NC357472   5.433  31.920   8.770 -0.3053 -0.0583 -0.0102
34291POPC   PO457473   5.087  31.734   8.723  0.0705 -0.0348 -0.1177
34291POPC   GL157474   4.984  31.781   8.313  0.0512 -0.2270  0.1259
34291POPC   GL257475   5.113  31.576   8.233  0.0505  0.1989 -0.2241
34291POPC   C1A57476   5.075  31.913   7.923 -0.4075 -0.2198  0.0830
34291POPC   D2A57477   5.287  31.974   7.467 -0.3265 -0.2312 -0.0101
34291POPC   C3A57478   5.099  31.880   7.062  0.0377  0.1413  0.1979
34291POPC   C4A57479   4.846  31.735   6.687  0.1446 -0.0570 -0.1933
34291POPC   C1B57480   5.229  31.479   7.792 -0.0497  0.2316 -0.2274
34291POPC   C2B57481   5.189  31.484   7.368 -0.3285  0.0552 -0.0446
34291POPC   C3B57482   5.105  31.330   6.945  0.1496  0.0841  0.0528
34291POPC   C4B57483   5.002  30.921   6.674  0.2063 -0.0404  0.0029
34292POPC   NC357484   3.918  21.718   9.539  0.2661 -0.1898  0.1185
34292POPC   PO457485   3.928  21.399   9.759 -0.0484 -0.2743  0.1693
34292POPC   GL157486   4.291  21.283   9.533 -0.2798  0.2774  0.0416
34292POPC   GL257487   4.438  21.354   9.315 -0.0601 -0.0732  0.1391
34292POPC   C1A57488   4.503  20.861   9.425  0.0293  0.2322  0.1777
34292POPC   D2A57489   4.661  20.608   9.049 -0.1044  0.1742  0.1096
34292POPC   C3A57490   4.952  20.705   8.724 -0.0629  0.0934 -0.1375
34292POPC   C4A57491   5.061  21.166   8.618  0.0387  0.3274  0.0641
34292POPC   C1B57492   4.809  21.142   9.103  0.2302  0.1077  0.1430
34292POPC   C2B57493   5.077  20.791   9.193  0.2435 -0.0347 -0.0973
34292POPC   C3B57494   5.250  20.413   8.989 -0.1188 -0.2141  0.5300
34292POPC   C4B57495   5.237  20.098   8.656 -0.0998  0.2117  0.0588
34293POPC   NC357496  11.961  31.974  15.767 -0.2608  0.0933  0.1895
34293POPC   PO457497  12.181  31.707  15.578 -0.1242  0.1874 -0.0734
34293POPC   GL157498  12.281  31.795  16.015 -0.1670  0.0885  0.0263
34293POPC   GL257499  12.431  32.079  15.967 -0.1881  0.3264  0.0134
34293POPC   C1A57500  12.163  32.005  16.412  0.2490  0.0230  0.2928
34293POPC   D2A57501  11.917  32.045  16.860 -0.3703 -0.0875  0.0727
34293POPC   C3A57502  12.130  32.332  17.133 -0.3646 -0.2699 -0.0324
34293POPC   C4A57503  12.041  32.667  17.436  0.1434 -0.0809 -0.0030
34293POPC   C1B57504  12.453  32.476  16.277 -0.3176  0.0424 -0.2412
34293POPC   C2B57505  12.650  32.803  16.508  0.0008  0.0644 -0.1412
34293POPC   C3B57506  12.849  33.246  16.610  0.0724  0.0937 -0.1595
34293POPC   C4B57507  12.766  33.669  16.745  0.0296  0.2824 -0.1873
34294POPC   NC357508   3.686  16.881   8.628 -0.0978 -0.1593  0.1560
34294POPC   PO457509   3.976  17.133   8.694  0.1115  0.2722  0.0287
34294POPC   GL157510   4.198  17.360   8.402  0.5068 -0.1123 -0.0946
34294POPC   GL257511   4.172  17.652   8.500 -0.2306  0.1121  0.2237
34294POPC   C1A57512   4.401  17.332   7.973  0.0833  0.1699 -0.0783
34294POPC   D2A57513   4.339  17.224   7.539 -0.2382 -0.3243  0.1236
34294POPC   C3A57514   4.726  17.162   7.189  0.0947  0.1931 -0.2116
34294POPC   C4A57515   5.083  17.365   6.979  0.0074 -0.1564  0.2075
34294POPC   C1B57516   4.227  17.913   8.065 -0.0957 -0.1213 -0.1394
34294POPC   C2B57517   4.541  17.882   7.719  0.0157  0.1059  0.1916
34294POPC   C3B57518   4.610  18.165   7.364 -0.0024 -0.1788  0.0186
34294POPC   C4B57519   4.806  18.533   7.204  0.1177  0.0579 -0.0934
34295POPC   NC357520   9.596  17.608  13.699  0.0094 -0.1694  0.1620
34295POPC   PO457521   9.300  17.411  13.544  0.2272 -0.0242  0.0416
34295POPC   GL157522   9.070  17.786  13.605  0.2458 -0.0517  0.0101
34295POPC   GL257523   9.246  18.009  13.396 -0.0047 -0.1450 -0.0172
34295POPC   C1A57524   9.179  18.157  13.921  0.1711  0.4164 -0.1031
34295POPC   D2A57525   9.000  18.447  14.202  0.0521 -0.0492  0.0025
34295POPC   C3A57526   8.954  18.633  14.656 -0.2584  0.1521  0.1801
34295POPC   C4A57527   9.057  19.015  14.869 -0.3138 -0.1068  0.1090
34295POPC   C1B57528   9.466  18.406  13.563 -0.2499  0.0403 -0.0588
34295POPC   C2B57529   9.547  18.820  13.796  0.0857  0.1550  0.1739
34295POPC   C3B57530   9.744  19.014  14.160  0.0622 -0.2042 -0.1420
34295POPC   C4B57531  10.177  18.905  14.368 -0.1202 -0.0691  0.1637
34296POPC   NC357532   1.087  23.292   9.485  0.0954  0.1227  0.1761
34296POPC   PO457533   1.260  23.098   9.218 -0.2406  0.0521  0.0592
34296POPC   GL157534   1.465  23.328   8.895  0.5935 -0.2943  0.0757
34296POPC   GL257535   1.785  23.403   8.758 -0.0602 -0.0979  0.4191
34296POPC   C1A57536   1.295  23.548   8.516 -0.1906  0.0488 -0.2056
34296POPC   D2A57537   1.367  23.642   8.079  0.0032 -0.2634  0.0745
34296POPC   C3A57538   1.552  23.392   7.822 -0.1185  0.0299 -0.1148
34296POPC   C4A57539   1.871  23.101   7.970 -0.2486  0.0679  0.2011
34296POPC   C1B57540   1.667  23.201   8.408  0.1762  0.0644 -0.1365
34296POPC   C2B57541   1.327  23.075   8.153  0.1967 -0.1823 -0.2124
34296POPC   C3B57542   1.372  22.888   7.699  0.1292 -0.1826 -0.0636
34296POPC   C4B57543   1.464  22.702   7.310 -0.0656  0.1502  0.0250
34297POPC   NC357544  14.974  29.277   9.116  0.3124 -0.0164  0.0378
34297POPC   PO457545  14.879  29.157   8.761 -0.1576  0.1759 -0.1123
34297POPC   GL157546  15.091  29.086   8.460 -0.0244 -0.3909 -0.3203
34297POPC   GL257547  14.874  29.037   8.237 -0.1953  0.1486 -0.0926
34297POPC   C1A57548  15.354  29.110   8.029  0.1442  0.2384 -0.2718
34297POPC   D2A57549  15.410  28.887   7.620  0.1838 -0.0490 -0.3020
34297POPC   C3A57550  15.445  28.973   7.193  0.0983 -0.2068 -0.0328
34297POPC   C4A57551  15.444  29.073   6.703  0.2110 -0.0470  0.1753
34297POPC   C1B57552  14.852  28.892   7.851 -0.2690 -0.0251 -0.0463
34297POPC   C2B57553  14.835  28.748   7.414 -0.0764 -0.0298 -0.4768
34297POPC   C3B57554  15.029  28.731   6.987 -0.0775 -0.1304  0.2254
34297POPC   C4B57555  15.319  28.580   6.663  0.0036  0.0828  0.0306
34298POPC   NC357556   4.951  23.790  11.619 -0.1315 -0.4427 -0.1599
34298POPC   PO457557   5.096  23.631  11.952 -0.2001 -0.2465 -0.2803
34298POPC   GL157558   5.489  23.705  11.950  0.0709  0.2879 -0.0647
34298POPC   GL257559   5.484  23.844  11.681 -0.1671 -0.1863  0.2136
34298POPC   C1A57560   5.910  23.711  11.771 -0.0413 -0.3168 -0.0700
34298POPC   D2A57561   6.196  23.552  11.437 -0.0553  0.1246  0.0426
34298POPC   C3A57562   6.543  23.803  11.306  0.1465 -0.0870  0.1981
34298POPC   C4A57563   6.915  24.074  11.395  0.0627  0.0418  0.2354
34298POPC   C1B57564   5.761  23.928  11.318 -0.0388 -0.2887 -0.1307
34298POPC   C2B57565   6.141  23.891  11.020  0.1142 -0.0728 -0.1479
34298POPC   C3B57566   6.540  23.841  10.794  0.2530 -0.0557 -0.2644
34298POPC   C4B57567   6.739  23.533  10.558 -0.0096  0.1011 -0.0060
34299POPC   NC357568   1.794  22.350   9.231  0.0200 -0.1701 -0.4785
34299POPC   PO457569   2.066  22.542   9.349 -0.1965  0.0192  0.1018
34299POPC   GL157570   2.085  22.617   8.937 -0.2599 -0.0254  0.2741
34299POPC   GL257571   2.371  22.593   8.944 -0.1696 -0.0802 -0.0078
34299POPC   C1A57572   1.982  22.631   8.504  0.0577  0.0616 -0.0660
34299POPC   D2A57573   1.595  22.678   8.129 -0.3828 -0.2544  0.1753
34299POPC   C3A57574   1.787  22.587   7.687  0.1596  0.0109 -0.3025
34299POPC   C4A57575   2.061  22.703   7.325  0.2676 -0.0534 -0.0899
34299POPC   C1B57576   2.522  22.505   8.516 -0.0664 -0.0410  0.1478
34299POPC   C2B57577   2.583  22.302   8.110  0.3325  0.2377  0.0218
34299POPC   C3B57578   2.815  22.491   7.770 -0.0376 -0.3144  0.0431
34299POPC   C4B57579   3.063  22.666   7.424 -0.0673  0.0975  0.2002
34300POPC   NC357580  16.405  29.491   8.635  0.1642 -0.4789  0.2589
34300POPC   PO457581  16.229  29.803   8.401  0.0074 -0.1715 -0.1616
34300POPC   GL157582  16.051  29.803   8.051 -0.4653  0.1438  0.0954
34300POPC   GL257583  16.116  29.581   7.855  0.0572 -0.0627 -0.2501
34300POPC   C1A57584  15.765  29.926   7.726  0.0429 -0.1128 -0.2155
34300POPC   D2A57585  15.767  30.198   7.369 -0.0490 -0.2544  0.0001
34300POPC   C3A57586  15.851  30.266   6.929  0.1169 -0.2216  0.2267
34300POPC   C4A57587  16.246  30.506   6.678 -0.1998  0.1987  0.0817
34300POPC   C1B57588  16.071  29.509   7.378  0.3287  0.1869 -0.2414
34300POPC   C2B57589  15.817  29.752   7.097  0.0526 -0.1545 -0.1788
34300POPC   C3B57590  15.902  29.916   6.646  0.3212 -0.0458  0.3210
34300POPC   C4B57591  15.845  30.273   6.353  0.1557 -0.3758  0.0113
34301POPC   NC357592  11.263  29.046   9.991  0.0347 -0.1454 -0.2742
34301POPC   PO457593  11.120  29.247   9.680  0.1167 -0.1079 -0.0564
34301POPC   GL157594  10.912  29.128   9.388 -0.1464  0.1426  0.1853
34301POPC   GL257595  10.792  29.396   9.276 -0.2859  0.4172  0.3111
34301POPC   C1A57596  10.965  29.003   8.910 -0.2665  0.3230  0.1785
34301POPC   D2A57597  10.727  28.949   8.559  0.1381 -0.0189 -0.1713
34301POPC   C3A57598  10.595  28.784   8.115  0.2709  0.3359 -0.0982
34301POPC   C4A57599  10.342  28.932   7.758  0.0574  0.1770 -0.0910
34301POPC   C1B57600  10.668  29.363   8.798  0.1228 -0.1609  0.1473
34301POPC   C2B57601  10.367  29.414   8.404 -0.0497  0.0318  0.0086
34301POPC   C3B57602  10.509  29.426   7.953  0.0625  0.1750  0.1177
34301POPC   C4B57603  10.277  29.396   7.519 -0.1008 -0.1220  0.1350
34302POPC   NC357604   6.617  31.602   8.476 -0.0759 -0.1647  0.2359
34302POPC   PO457605   6.735  31.234   8.492  0.1581 -0.0593 -0.0365
34302POPC   GL157606   6.582  31.292   8.077  0.3305 -0.0150 -0.0409
34302POPC   GL257607   6.819  31.488   8.022  0.1157 -0.0605  0.0119
34302POPC   C1A57608   6.240  31.148   7.773  0.1139  0.0600  0.0038
34302POPC   D2A57609   6.176  30.888   7.409 -0.0376  0.2641  0.0331
34302POPC   C3A57610   5.917  31.027   7.029 -0.3486  0.0801 -0.0839
34302POPC   C4A57611   5.893  31.283   6.592 -0.3738  0.3656 -0.3429
34302POPC   C1B57612   6.651  31.470   7.563 -0.0139  0.3478 -0.0453
34302POPC   C2B57613   6.477  31.792   7.281  0.1725  0.0131 -0.2602
34302POPC   C3B57614   6.292  31.649   6.878 -0.1540 -0.1062  0.1888
34302POPC   C4B57615   6.333  31.508   6.446 -0.0456 -0.1535 -0.1893
34303POPC   NC357616   1.444  16.639   8.744  0.0017  0.1411 -0.0416
34303POPC   PO457617   1.715  16.346   8.606  0.0767  0.2098  0.0683
34303POPC   GL157618   1.886  16.341   8.302  0.1048 -0.1461 -0.0747
34303POPC   GL257619   2.150  16.557   8.239  0.0028  0.0767 -0.2407
34303POPC   C1A57620   1.754  16.504   7.857 -0.2512  0.0906 -0.1037
34303POPC   D2A57621   1.694  16.746   7.460 -0.1918 -0.1000  0.0628
34303POPC   C3A57622   1.956  16.477   7.185  0.1779  0.2198 -0.2976
34303POPC   C4A57623   2.215  16.611   6.853 -0.0980 -0.0708  0.0568
34303POPC   C1B57624   2.262  16.384   7.805  0.0558  0.2050  0.4505
34303POPC   C2B57625   2.411  16.482   7.346  0.0398 -0.2385 -0.1643
34303POPC   C3B57626   2.708  16.533   7.027 -0.0633 -0.1031 -0.0379
34303POPC   C4B57627   3.070  16.764   6.915  0.0909 -0.4000  0.1751
34304POPC   NC357628   0.911  30.029   7.786 -0.0841 -0.0324  0.1065
34304POPC   PO457629   0.555  30.155   7.889 -0.3141  0.0577  0.1168
34304POPC   GL157630   0.382  30.114   7.522  0.0776  0.0311  0.0457
34304POPC   GL257631   0.637  30.180   7.410 -0.2169 -0.1182  0.2503
34304POPC   C1A57632   0.153  30.257   7.169 -0.2363  0.0606  0.0794
34304POPC   D2A57633   0.156  30.015   6.754  0.0460 -0.1143 -0.2874
34304POPC   C3A57634   0.080  30.154   6.305 -0.4118  0.0787  0.2427
34304POPC   C4A57635   0.052  30.055   5.838  0.1203 -0.1107 -0.2828
34304POPC   C1B57636   0.567  30.268   6.921  0.1516 -0.3581 -0.1607
34304POPC   C2B57637   0.533  30.325   6.459 -0.1167  0.1597 -0.0485
34304POPC   C3B57638   0.403  30.488   6.035  0.0469 -0.1418  0.1337
34304POPC   C4B57639   0.241  30.747   5.679 -0.0648  0.0854  0.4056
34305POPC   NC357640  14.352  19.713  10.281  0.3065 -0.0367  0.0673
34305POPC   PO457641  14.194  19.993  10.462  0.1903  0.1148 -0.1664
34305POPC   GL157642  13.783  20.041  10.609  0.1427  0.2130  0.3732
34305POPC   GL257643  13.621  20.070  10.362  0.1965  0.3535  0.0469
34305POPC   C1A57644  13.587  20.432  10.685  0.0730  0.2542 -0.1352
34305POPC   D2A57645  13.171  20.643  10.587 -0.1476 -0.0992 -0.2913
34305POPC   C3A57646  13.065  20.855  10.200  0.2598  0.0742  0.1352
34305POPC   C4A57647  12.679  21.026   9.993 -0.2383  0.0673  0.0581
34305POPC   C1B57648  13.507  20.377  10.066  0.2476 -0.2241 -0.1621
34305POPC   C2B57649  13.209  20.583   9.764 -0.3444 -0.1633 -0.0522
34305POPC   C3B57650  13.099  21.048   9.727 -0.3523  0.2828  0.0386
34305POPC   C4B57651  12.879  21.440   9.807 -0.1212 -0.1232 -0.0330
34306POPC   NC357652   5.449  24.024  12.817  0.0121 -0.4041 -0.0289
34306POPC   PO457653   5.224  23.941  13.128  0.2374 -0.2432  0.0796
34306POPC   GL157654   5.352  23.801  13.397  0.3607 -0.0897 -0.0140
34306POPC   GL257655   5.566  23.650  13.322  0.1839  0.1053 -0.1161
34306POPC   C1A57656   5.391  23.927  13.801  0.1554 -0.1608  0.0488
34306POPC   D2A57657   5.492  23.706  14.183 -0.0821  0.0322 -0.1285
34306POPC   C3A57658   5.879  23.711  14.464  0.0836  0.0843 -0.1146
34306POPC   C4A57659   6.169  23.888  14.711  0.1110  0.0473  0.0645
34306POPC   C1B57660   5.997  23.563  13.418 -0.1179  0.2297 -0.0558
34306POPC   C2B57661   6.359  23.379  13.630 -0.1685  0.0009 -0.1230
34306POPC   C3B57662   6.610  23.302  13.953  0.1388  0.0670  0.1742
34306POPC   C4B57663   6.997  23.109  14.137 -0.4028  0.1888 -0.2983
34307POPC   NC357664  14.563  22.958  10.598 -0.0301  0.2084  0.3698
34307POPC   PO457665  14.757  22.713  10.339 -0.1834 -0.0145  0.3477
34307POPC   GL157666  14.541  22.620  10.039  0.1285  0.4030 -0.4652
34307POPC   GL257667  14.504  22.723   9.784  0.1051  0.3156 -0.0130
34307POPC   C1A57668  14.117  22.454   9.884 -0.2460 -0.2513 -0.0134
34307POPC   D2A57669  13.693  22.539   9.706  0.0292 -0.0867  0.1836
34307POPC   C3A57670  13.546  22.592   9.213  0.3341 -0.0881  0.0187
34307POPC   C4A57671  13.356  22.304   8.940  0.0851  0.2145 -0.0900
34307POPC   C1B57672  14.116  22.908   9.615  0.0297 -0.0560  0.3349
34307POPC   C2B57673  13.779  23.140   9.831 -0.0120  0.0161 -0.0104
34307POPC   C3B57674  13.388  23.338   9.740  0.1464 -0.2014 -0.3021
34307POPC   C4B57675  13.050  23.582   9.592 -0.0395  0.1113  0.2377
34308POPC   NC357676   5.565  25.031  12.142 -0.2657  0.1039  0.1679
34308POPC   PO457677   5.652  25.123  12.523 -0.0097 -0.0451  0.0531
34308POPC   GL157678   5.889  24.881  12.445  0.0450  0.2733 -0.3499
34308POPC   GL257679   6.105  25.069  12.428 -0.2916 -0.0652  0.0751
34308POPC   C1A57680   5.878  24.432  12.651  0.3728 -0.0592  0.1955
34308POPC   D2A57681   5.922  23.989  12.682 -0.0215  0.0133  0.1425
34308POPC   C3A57682   6.237  23.846  13.008 -0.0429  0.0360  0.1078
34308POPC   C4A57683   6.371  23.371  13.076 -0.1960 -0.2072 -0.1752
34308POPC   C1B57684   6.448  24.708  12.385 -0.2080  0.0619  0.4485
34308POPC   C2B57685   6.810  24.369  12.314 -0.2649 -0.4092 -0.1735
34308POPC   C3B57686   7.146  24.032  12.302  0.1973  0.1425 -0.0355
34308POPC   C4B57687   7.487  23.898  12.010  0.0959 -0.0312  0.5944
34309POPC   NC357688   8.597  28.624  10.044  0.2087 -0.1643 -0.0384
34309POPC   PO457689   8.887  28.797   9.833 -0.2449 -0.0265 -0.0899
34309POPC   GL157690   8.875  28.536   9.491 -0.0074 -0.2410  0.0808
34309POPC   GL257691   8.725  28.717   9.346 -0.0993 -0.1285 -0.1552
34309POPC   C1A57692   8.785  28.171   9.183 -0.2712 -0.0964  0.0121
34309POPC   D2A57693   8.795  27.808   8.940 -0.1963  0.2050  0.0968
34309POPC   C3A57694   8.415  27.609   8.773  0.1473 -0.0557  0.0250
34309POPC   C4A57695   8.326  27.202   8.586 -0.0298  0.3019  0.2055
34309POPC   C1B57696   8.687  28.550   8.875 -0.3973 -0.2053 -0.4475
34309POPC   C2B57697   8.875  28.464   8.485 -0.0044 -0.0025 -0.0171
34309POPC   C3B57698   8.857  28.600   8.063  0.2555 -0.1721  0.2979
34309POPC   C4B57699   8.968  28.427   7.679 -0.3313  0.1481 -0.3692
34310POPC   NC357700   1.931  30.328   8.077 -0.3325 -0.0621  0.2504
34310POPC   PO457701   2.195  30.292   7.804 -0.1999 -0.1821 -0.2050
34310POPC   GL157702   2.326  30.343   7.343 -0.0770  0.1467  0.1033
34310POPC   GL257703   2.357  30.055   7.355  0.0348  0.1598  0.2424
34310POPC   C1A57704   2.123  30.355   6.957  0.0786  0.0566 -0.0216
34310POPC   D2A57705   1.963  30.079   6.705  0.1285  0.2658 -0.0794
34310POPC   C3A57706   1.862  30.237   6.275 -0.2739  0.1676 -0.0645
34310POPC   C4A57707   1.711  30.655   6.044  0.2191  0.1464 -0.1732
34310POPC   C1B57708   2.435  29.947   6.920  0.0525  0.2095  0.0759
34310POPC   C2B57709   2.289  29.880   6.475  0.1145  0.2817  0.0089
34310POPC   C3B57710   2.104  29.829   6.076 -0.0206  0.1639 -0.0936
34310POPC   C4B57711   1.851  30.127   5.744  0.1591  0.1438  0.2521
34311POPC   NC357712  15.164  22.410   9.800 -0.1838  0.0125  0.0605
34311POPC   PO457713  14.991  22.768   9.858  0.1676 -0.1392 -0.0197
34311POPC   GL157714  14.905  22.715   9.556 -0.0898  0.1800  0.0639
34311POPC   GL257715  15.065  22.542   9.297 -0.0245 -0.2913  0.0375
34311POPC   C1A57716  14.533  22.804   9.289  0.1711  0.0874  0.2651
34311POPC   D2A57717  14.466  22.925   8.861  0.1481  0.1431  0.1624
34311POPC   C3A57718  14.288  22.665   8.533  0.0691  0.2477  0.1284
34311POPC   C4A57719  14.333  22.354   8.120  0.0751 -0.0008 -0.0559
34311POPC   C1B57720  14.965  22.795   8.973  0.1589 -0.0100 -0.0016
34311POPC   C2B57721  14.822  22.735   8.551 -0.0301  0.2599  0.0060
34311POPC   C3B57722  14.739  22.856   8.143 -0.2315  0.2255  0.0833
34311POPC   C4B57723  14.634  22.610   7.754 -0.0531  0.0188  0.3159
34312POPC   NC357724  13.836  25.019  11.413  0.0770  0.2797  0.0482
34312POPC   PO457725  13.737  24.774  11.071 -0.2611  0.0701  0.1982
34312POPC   GL157726  13.486  24.543  10.792  0.6220  0.0110 -0.0092
34312POPC   GL257727  13.306  24.772  10.730  0.0574 -0.1361 -0.1815
34312POPC   C1A57728  13.326  24.076  10.785 -0.1646 -0.0337 -0.1089
34312POPC   D2A57729  13.004  23.834  10.596 -0.0179 -0.2105 -0.0586
34312POPC   C3A57730  12.793  24.075  10.282  0.0510  0.0887 -0.3678
34312POPC   C4A57731  12.400  24.312  10.260 -0.1436 -0.1538  0.0515
34312POPC   C1B57732  13.026  24.441  10.747  0.0511 -0.0336  0.0677
34312POPC   C2B57733  12.603  24.188  10.755  0.1732  0.0561  0.0021
34312POPC   C3B57734  12.437  23.777  10.562  0.3122  0.0667  0.1720
34312POPC   C4B57735  12.040  23.728  10.320  0.2720 -0.3398 -0.1318
34313POPC   NC357736   1.574  32.292   8.147 -0.1307 -0.1274 -0.2420
34313POPC   PO457737   1.326  32.072   8.350 -0.2411  0.2330  0.0116
34313POPC   GL157738   1.187  32.067   7.999 -0.1672 -0.0912 -0.2632
34313POPC   GL257739   1.146  32.329   7.836  0.2977 -0.0396 -0.2220
34313POPC   C1A57740   0.948  31.962   7.612  0.2080  0.1517 -0.1922
34313POPC   D2A57741   0.885  31.937   7.143  0.0507 -0.1945  0.2218
34313POPC   C3A57742   0.913  31.981   6.698  0.1370  0.0812 -0.0205
34313POPC   C4A57743   0.953  31.730   6.321 -0.0407  0.0115 -0.0109
34313POPC   C1B57744   1.135  32.454   7.410 -0.1621 -0.0710 -0.2417
34313POPC   C2B57745   1.250  32.379   6.949 -0.1550 -0.1234 -0.0631
34313POPC   C3B57746   1.335  32.435   6.493 -0.1631 -0.0319 -0.0167
34313POPC   C4B57747   1.675  32.480   6.176 -0.0455 -0.1308  0.1829
34314POPC   NC357748   2.273  25.456   9.074 -0.0288  0.2421 -0.0990
34314POPC   PO457749   1.960  25.187   9.069  0.2655  0.0554 -0.2155
34314POPC   GL157750   1.805  25.238   8.661  0.0466  0.0963  0.2744
34314POPC   GL257751   1.578  25.429   8.752  0.1035 -0.3732  0.1012
34314POPC   C1A57752   1.854  24.955   8.317  0.2888  0.0921  0.0636
34314POPC   D2A57753   1.639  24.942   7.865  0.2263  0.1761 -0.1617
34314POPC   C3A57754   1.461  24.882   7.451  0.3920  0.2469  0.1033
34314POPC   C4A57755   1.130  24.706   7.134 -0.1565  0.1720  0.0730
34314POPC   C1B57756   1.463  25.493   8.308  0.1160 -0.1134 -0.0560
34314POPC   C2B57757   1.539  25.547   7.855  0.2138 -0.2782  0.0407
34314POPC   C3B57758   1.621  25.370   7.394 -0.0539 -0.2424 -0.1582
34314POPC   C4B57759   1.404  25.120   6.993 -0.2587 -0.1685 -0.0401
34315POPC   NC357760  10.510  17.016  10.735 -0.2009  0.4300  0.0569
34315POPC   PO457761  10.571  17.374  10.503  0.1009  0.3672 -0.0632
34315POPC   GL157762  10.743  17.786  10.437  0.4126  0.1524  0.0570
34315POPC   GL257763  10.669  17.730  10.132 -0.2182  0.6230 -0.0252
34315POPC   C1A57764  10.662  18.208  10.320  0.1646  0.1144 -0.1925
34315POPC   D2A57765  10.619  18.571  10.088  0.3696  0.1951  0.1411
34315POPC   C3A57766  10.499  18.808   9.702 -0.4144  0.1874 -0.0475
34315POPC   C4A57767  10.747  18.938   9.316  0.2748  0.3145 -0.1656
34315POPC   C1B57768  10.670  18.055   9.858  0.0594  0.2189  0.1326
34315POPC   C2B57769  10.289  18.273   9.709  0.2395 -0.1938 -0.1700
34315POPC   C3B57770  10.078  18.594   9.435 -0.1548 -0.0080 -0.1492
34315POPC   C4B57771   9.690  18.735   9.203 -0.2987 -0.0156  0.0183
34316POPC   NC357772   1.834  30.519   7.417 -0.1921  0.4677 -0.2214
34316POPC   PO457773   1.793  30.656   7.793 -0.0831  0.3859 -0.5824
34316POPC   GL157774   1.551  30.816   7.509  0.1333  0.0538 -0.1066
34316POPC   GL257775   1.432  31.069   7.486 -0.0781  0.0932 -0.2814
34316POPC   C1A57776   1.436  30.749   7.064 -0.1758 -0.2212  0.0434
34316POPC   D2A57777   1.614  30.526   6.713  0.3066 -0.1249  0.2138
34316POPC   C3A57778   1.373  30.369   6.368 -0.0061  0.1078 -0.4215
34316POPC   C4A57779   0.989  30.321   6.098  0.1290  0.0809 -0.3510
34316POPC   C1B57780   1.601  31.244   7.128  0.0674 -0.3161 -0.2476
34316POPC   C2B57781   1.728  31.485   6.769  0.2961  0.2099 -0.0942
34316POPC   C3B57782   1.988  31.797   6.630  0.0695  0.1023  0.1794
34316POPC   C4B57783   2.036  32.196   6.366 -0.0658  0.1211  0.0498
34317POPC   NC357784   2.555  25.633   9.668  0.0769  0.3325 -0.1493
34317POPC   PO457785   2.676  25.608   9.298 -0.2404 -0.0745  0.1224
34317POPC   GL157786   2.754  25.349   8.967  0.2130 -0.0009  0.1886
34317POPC   GL257787   2.643  25.128   8.915 -0.1611 -0.1827 -0.0665
34317POPC   C1A57788   3.039  25.217   8.621 -0.1086  0.1564  0.0086
34317POPC   D2A57789   3.267  25.152   8.214 -0.1427  0.2319 -0.0482
34317POPC   C3A57790   3.274  25.298   7.842  0.0910 -0.5308 -0.2588
34317POPC   C4A57791   3.397  25.422   7.425  0.2258 -0.0371 -0.1320
34317POPC   C1B57792   2.305  24.989   8.589 -0.0630 -0.3895 -0.0936
34317POPC   C2B57793   2.292  25.055   8.153 -0.0052  0.2437  0.2411
34317POPC   C3B57794   2.383  24.899   7.765  0.0119 -0.0224 -0.2029
34317POPC   C4B57795   2.528  24.895   7.326 -0.0426  0.1768  0.0174
34318POPC   NC357796   4.609  25.163  10.496 -0.4358  0.2185  0.6528
34318POPC   PO457797   4.290  24.975  10.400  0.0096 -0.0117 -0.0683
34318POPC   GL157798   4.669  24.757  10.226 -0.1332  0.0904  0.1812
34318POPC   GL257799   4.897  24.747  10.401  0.0616 -0.0513 -0.1609
34318POPC   C1A57800   4.939  24.849   9.874 -0.2726  0.0747  0.0345
34318POPC   D2A57801   5.276  24.750   9.541  0.2670  0.1136  0.2068
34318POPC   C3A57802   5.590  24.434   9.493 -0.3152 -0.1404 -0.0290
34318POPC   C4A57803   5.830  24.083   9.579  0.1977  0.3198 -0.2210
34318POPC   C1B57804   5.184  24.483  10.176  0.2429  0.0292  0.0382
34318POPC   C2B57805   5.142  24.305   9.766  0.0792 -0.2101  0.3092
34318POPC   C3B57806   5.294  24.007   9.459  0.0982 -0.0355  0.1681
34318POPC   C4B57807   5.557  24.071   9.065  0.2054  0.1468  0.3737
34319POPC   NC357808  13.457   1.118   9.411  0.3439  0.1178  0.0178
34319POPC   PO457809  13.387   0.772   9.549 -0.0631  0.1684  0.0020
34319POPC   GL157810  13.161   0.717   9.198  0.3526  0.0255  0.2278
34319POPC   GL257811  13.199   0.669   8.916 -0.1440 -0.3030  0.0237
34319POPC   C1A57812  13.075   1.107   9.082  0.2452 -0.2449  0.0224
34319POPC   D2A57813  13.078   1.485   8.766  0.0139 -0.0945  0.1927
34319POPC   C3A57814  12.989   1.934   8.636  0.1492  0.0615 -0.0300
34319POPC   C4A57815  13.072   2.222   8.307 -0.2361 -0.1118  0.1620
34319POPC   C1B57816  13.083   0.649   8.506 -0.0250  0.1928 -0.4014
34319POPC   C2B57817  12.989   0.627   8.068 -0.0618 -0.1036  0.2939
34319POPC   C3B57818  12.826   0.686   7.633  0.0515 -0.1169  0.1573
34319POPC   C4B57819  12.608   0.880   7.317 -0.1080  0.0143  0.1265
34320POPC   NC357820   5.391  19.372  11.203  0.0272 -0.1281 -0.0577
34320POPC   PO457821   5.303  19.743  11.070 -0.0808  0.1489  0.2145
34320POPC   GL157822   5.596  19.930  10.923  0.1456  0.1001 -0.0911
34320POPC   GL257823   5.720  19.678  10.839  0.1507 -0.1079  0.0440
34320POPC   C1A57824   5.984  20.096  11.080  0.0464  0.3367 -0.0596
34320POPC   D2A57825   6.303  20.415  10.971 -0.0653  0.3169  0.0583
34320POPC   C3A57826   6.567  20.384  10.538 -0.0673 -0.2639 -0.6311
34320POPC   C4A57827   6.982  20.480  10.373  0.4622 -0.3958  0.1765
34320POPC   C1B57828   6.219  19.738  10.823  0.1009 -0.2124 -0.1857
34320POPC   C2B57829   6.562  19.971  10.927 -0.0708  0.0016 -0.1166
34320POPC   C3B57830   6.988  20.025  10.735 -0.2825  0.1617  0.1392
34320POPC   C4B57831   7.395  20.213  10.735 -0.0951 -0.2773 -0.1953
34321POPC   NC357832   6.690  17.574   9.611  0.2649 -0.2461 -0.1177
34321POPC   PO457833   6.555  17.386   9.917  0.0372 -0.3319  0.0816
34321POPC   GL157834   7.012  17.244   9.711  0.1532  0.1942 -0.2863
34321POPC   GL257835   6.994  17.260   9.399  0.0667  0.0167  0.0237
34321POPC   C1A57836   7.498  17.337   9.674  0.2401 -0.0417 -0.1274
34321POPC   D2A57837   7.877  17.183   9.440 -0.3572  0.1606 -0.0969
34321POPC   C3A57838   7.898  17.461   9.068 -0.1094  0.2010 -0.2572
34321POPC   C4A57839   7.843  17.847   8.798  0.1321  0.0969  0.1186
34321POPC   C1B57840   6.912  17.507   9.022 -0.0470  0.0694  0.0078
34321POPC   C2B57841   6.853  17.876   8.759 -0.2572  0.0897  0.0817
34321POPC   C3B57842   6.947  18.231   8.530 -0.0462  0.2583  0.2780
34321POPC   C4B57843   7.139  18.429   8.180  0.0102  0.1329  0.1731
34322POPC   NC357844  11.653  28.703  10.194 -0.0175 -0.1216  0.0050
34322POPC   PO457845  11.259  28.697  10.292  0.0420  0.0433 -0.0358
34322POPC   GL157846  11.331  28.497   9.953  0.2020  0.0372  0.1992
34322POPC   GL257847  11.569  28.300   9.879  0.0094  0.1560  0.0185
34322POPC   C1A57848  11.173  28.274   9.560 -0.1735 -0.0883  0.0522
34322POPC   D2A57849  10.818  28.052   9.385  0.0555  0.3233 -0.1434
34322POPC   C3A57850  10.610  27.786   9.076  0.3694 -0.0579  0.2385
34322POPC   C4A57851  10.526  27.765   8.641 -0.2168  0.2639 -0.3371
34322POPC   C1B57852  11.643  28.068   9.543 -0.1319 -0.3502  0.0491
34322POPC   C2B57853  11.555  27.691   9.235 -0.0188  0.0193 -0.2331
34322POPC   C3B57854  11.565  27.320   8.889  0.3562 -0.3368 -0.1257
34322POPC   C4B57855  11.574  27.056   8.496  0.0754 -0.1280 -0.0762
34323POPC   NC357856   3.779  24.051  15.471  0.0129 -0.0029 -0.2276
34323POPC   PO457857   4.147  24.019  15.249 -0.0355 -0.0810 -0.3624
34323POPC   GL157858   4.460  24.004  15.135 -0.5566 -0.0135  0.0636
34323POPC   GL257859   4.467  23.958  14.837 -0.0933 -0.2158  0.2560
34323POPC   C1A57860   4.635  23.613  15.286  0.0512  0.0005  0.2026
34323POPC   D2A57861   5.014  23.343  15.454  0.1902 -0.1748  0.0557
34323POPC   C3A57862   5.497  23.232  15.381 -0.1921  0.1023 -0.3778
34323POPC   C4A57863   5.906  23.331  15.332 -0.1550 -0.0365  0.1786
34323POPC   C1B57864   4.918  23.898  14.988  0.1223  0.2620  0.0532
34323POPC   C2B57865   5.132  23.808  15.401  0.1092  0.2157  0.0618
34323POPC   C3B57866   5.532  23.792  15.536 -0.0847  0.1390 -0.3537
34323POPC   C4B57867   5.931  23.689  15.792  0.1195  0.0498  0.1469
34324POPC   NC357868   4.140  23.552  15.008  0.1389 -0.0616  0.2603
34324POPC   PO457869   3.895  23.290  15.031 -0.1874  0.0415 -0.2311
34324POPC   GL157870   4.030  23.322  15.391 -0.1540 -0.0625  0.2612
34324POPC   GL257871   3.955  23.586  15.468  0.0382  0.1464  0.1719
34324POPC   C1A57872   4.150  23.119  15.846  0.0249 -0.1263  0.1334
34324POPC   D2A57873   4.348  22.907  16.207 -0.0468 -0.3889  0.1283
34324POPC   C3A57874   4.393  22.788  16.655  0.0339 -0.0759  0.3165
34324POPC   C4A57875   4.575  22.742  17.048  0.2756  0.0904  0.1326
34324POPC   C1B57876   4.320  23.570  15.730 -0.1392  0.1596  0.0082
34324POPC   C2B57877   4.772  23.633  15.919 -0.1092 -0.1806  0.4732
34324POPC   C3B57878   5.217  23.534  15.870 -0.0705 -0.0026 -0.2791
34324POPC   C4B57879   5.620  23.384  16.030  0.1718 -0.0273  0.2448
34325POPC   NC357880  13.185  28.749   9.511 -0.1391 -0.0738  0.0938
34325POPC   PO457881  12.821  28.635   9.325 -0.0774  0.0349  0.0271
34325POPC   GL157882  12.578  28.426   9.131 -0.2301  0.2694 -0.1264
34325POPC   GL257883  12.353  28.471   9.021 -0.3438 -0.2397  0.1109
34325POPC   C1A57884  12.534  27.938   9.007 -0.1782  0.2152 -0.2485
34325POPC   D2A57885  12.600  27.503   8.941  0.0665  0.0255 -0.0442
34325POPC   C3A57886  12.614  27.353   8.549 -0.0895 -0.2380 -0.0238
34325POPC   C4A57887  12.381  27.130   8.204 -0.0342  0.0641 -0.0439
34325POPC   C1B57888  12.240  28.226   8.603 -0.0843  0.1002 -0.4708
34325POPC   C2B57889  12.010  28.121   8.206 -0.2210 -0.0521  0.1446
34325POPC   C3B57890  11.941  28.117   7.775 -0.1618  0.2158 -0.0878
34325POPC   C4B57891  11.865  28.007   7.329  0.2095  0.1307  0.0877
34326POPC   NC357892   2.623  21.760   9.230 -0.1041  0.0663  0.2677
34326POPC   PO457893   2.251  21.749   9.301  0.1005 -0.1960  0.2390
34326POPC   GL157894   2.173  21.917   8.944  0.0866 -0.3019 -0.0011
34326POPC   GL257895   2.091  22.158   8.961 -0.1413 -0.0737 -0.1285
34326POPC   C1A57896   2.197  22.115   8.513 -0.1643 -0.4762 -0.2655
34326POPC   D2A57897   2.031  22.280   8.131 -0.1210 -0.1519  0.0081
34326POPC   C3A57898   1.876  22.084   7.715 -0.0446 -0.0184 -0.0980
34326POPC   C4A57899   1.617  21.860   7.471 -0.4706  0.2855 -0.1536
34326POPC   C1B57900   2.555  22.112   8.869  0.2057 -0.0105 -0.2925
34326POPC   C2B57901   2.782  22.001   8.482  0.1706 -0.2053  0.1155
34326POPC   C3B57902   2.975  21.994   8.048  0.4349 -0.1385  0.1745
34326POPC   C4B57903   3.248  22.187   7.758  0.2482 -0.0603  0.2247
34327POPC   NC357904  31.340  32.591   8.176 -0.3584  0.0560  0.2594
34327POPC   PO457905  31.017  32.829   8.230 -0.1303  0.4136 -0.1035
34327POPC   GL157906  30.731  32.946   7.931 -0.3641  0.1082 -0.0388
34327POPC   GL257907  30.672  33.234   7.990 -0.0065  0.1258  0.0635
34327POPC   C1A57908  30.895  33.056   7.510 -0.0189  0.2969  0.2961
34327POPC   D2A57909  31.091  33.232   7.097  0.1722 -0.0709  0.0969
34327POPC   C3A57910  31.258  33.017   6.741  0.0613 -0.2826 -0.3371
34327POPC   C4A57911  31.398  33.034   6.347 -0.1289 -0.0544  0.2927
34327POPC   C1B57912  30.515  33.336   7.565  0.0719  0.0085 -0.1696
34327POPC   C2B57913  30.575  33.301   7.121 -0.2271  0.1538 -0.0584
34327POPC   C3B57914  30.803  33.564   6.880 -0.3416 -0.0798 -0.2833
34327POPC   C4B57915  30.894  33.948   6.676 -0.2884 -0.0638  0.1152
34328POPC   NC357916   0.839  15.839   8.204  0.0432  0.0845 -0.0651
34328POPC   PO457917   0.630  16.170   8.248  0.2931  0.0821 -0.2331
34328POPC   GL157918   0.650  16.327   7.886 -0.1085 -0.3466 -0.2470
34328POPC   GL257919   0.646  16.048   7.759  0.0429 -0.0658 -0.0172
34328POPC   C1A57920   0.733  16.585   7.479  0.0148  0.0353 -0.3096
34328POPC   D2A57921   0.687  16.573   7.046  0.4390 -0.1467 -0.0015
34328POPC   C3A57922   0.764  16.859   6.725 -0.0037 -0.1296  0.2657
34328POPC   C4A57923   0.957  17.060   6.355 -0.1295 -0.3743  0.0085
34328POPC   C1B57924   0.675  16.131   7.297 -0.0838  0.2457  0.2423
34328POPC   C2B57925   0.861  16.137   6.873  0.0159  0.1594 -0.1006
34328POPC   C3B57926   1.016  15.909   6.501  0.1854  0.0062 -0.1794
34328POPC   C4B57927   1.033  15.414   6.460 -0.3898 -0.1783 -0.0230
34329POPC   NC357928   9.501  16.751  14.569 -0.0322 -0.0010 -0.1284
34329POPC   PO457929   9.733  16.965  14.311 -0.0696  0.0049  0.1323
34329POPC   GL157930   9.986  17.212  14.578 -0.2049  0.1264  0.0358
34329POPC   GL257931  10.272  17.207  14.736  0.2688  0.1508  0.1661
34329POPC   C1A57932   9.789  17.603  14.780 -0.1555  0.2169 -0.0192
34329POPC   D2A57933   9.794  17.969  15.013  0.2180 -0.0023 -0.0335
34329POPC   C3A57934   9.612  18.074  15.438  0.1298 -0.0583  0.0574
34329POPC   C4A57935   9.290  17.897  15.753  0.3788  0.2650 -0.1229
34329POPC   C1B57936  10.560  17.484  15.036  0.3546  0.1895  0.0272
34329POPC   C2B57937  10.601  17.789  15.308  0.0997 -0.2268  0.2397
34329POPC   C3B57938  10.632  18.222  15.390 -0.1040  0.0933 -0.1110
34329POPC   C4B57939  10.768  18.624  15.636  0.0121  0.0649  0.3619
34330POPC   NC357940   7.720  26.967  13.130  0.2746  0.0503  0.1647
34330POPC   PO457941   7.776  26.583  13.358 -0.2888  0.0723  0.1188
34330POPC   GL157942   8.035  26.360  13.288  0.2280  0.1753  0.3660
34330POPC   GL257943   7.975  26.123  13.475  0.2593 -0.1769 -0.1183
34330POPC   C1A57944   8.415  26.094  13.173  0.0791  0.0426  0.1191
34330POPC   D2A57945   8.766  25.913  12.963  0.3142  0.0297  0.0567
34330POPC   C3A57946   8.890  25.561  12.736  0.1445  0.3105  0.2734
34330POPC   C4A57947   9.157  25.297  12.552  0.1517  0.2906 -0.2235
34330POPC   C1B57948   7.908  25.873  13.147  0.0305  0.0619 -0.1167
34330POPC   C2B57949   7.968  25.437  12.940 -0.6242  0.3018 -0.0489
34330POPC   C3B57950   7.986  24.977  12.966 -0.3038  0.1742 -0.0618
34330POPC   C4B57951   8.183  24.559  12.762 -0.0429 -0.0116 -0.0088
34331POPC   NC357952  12.458  28.453   9.596  0.2856 -0.0965 -0.1215
34331POPC   PO457953  12.347  28.825   9.466 -0.2062  0.1779  0.2045
34331POPC   GL157954  12.141  28.859   9.162 -0.0701 -0.0024 -0.1267
34331POPC   GL257955  11.887  28.922   9.166 -0.1717  0.0210  0.1231
34331POPC   C1A57956  11.951  28.655   8.780  0.4044 -0.1033  0.0999
34331POPC   D2A57957  11.881  28.572   8.357  0.0576 -0.2212 -0.0425
34331POPC   C3A57958  11.579  28.496   8.023 -0.2470 -0.2234 -0.0290
34331POPC   C4A57959  11.315  28.416   7.698 -0.0031 -0.0364 -0.1594
34331POPC   C1B57960  11.511  28.879   8.800  0.3717 -0.3418 -0.3802
34331POPC   C2B57961  11.273  28.951   8.428 -0.1143 -0.0061 -0.0406
34331POPC   C3B57962  11.117  28.715   8.114  0.0505 -0.1391 -0.2371
34331POPC   C4B57963  10.832  28.513   7.790 -0.2185 -0.0865 -0.1991
34332POPC   NC357964   0.588  21.142   9.426  0.1643 -0.1641 -0.1666
34332POPC   PO457965   0.197  21.127   9.286 -0.0029 -0.0672 -0.0236
34332POPC   GL157966   0.128  21.244   8.986 -0.2559  0.1200  0.0060
34332POPC   GL257967   0.300  21.498   8.964  0.1158  0.0435 -0.1128
34332POPC   C1A57968   0.142  21.111   8.535  0.0605 -0.1925  0.0597
34332POPC   D2A57969   0.061  21.187   8.043  0.2402  0.0108 -0.0669
34332POPC   C3A57970  -0.039  21.321   7.586  0.1491  0.3191  0.3245
34332POPC   C4A57971  -0.223  21.125   7.216 -0.0020 -0.0829  0.1574
34332POPC   C1B57972  -0.060  21.538   8.697 -0.1740 -0.1381  0.2759
34332POPC   C2B57973  -0.104  21.636   8.288  0.2533 -0.0959  0.2285
34332POPC   C3B57974  -0.109  21.745   7.902  0.1524  0.1749 -0.3954
34332POPC   C4B57975  -0.258  21.863   7.467  0.1098 -0.0322 -0.2421
34333POPC   NC357976  15.414  29.502   8.466  0.0774  0.0211 -0.1978
34333POPC   PO457977  15.078  29.591   8.653  0.2845 -0.0144 -0.3744
34333POPC   GL157978  14.829  29.491   8.429  0.0124  0.0859  0.0246
34333POPC   GL257979  14.536  29.446   8.476  0.1306  0.1808  0.2486
34333POPC   C1A57980  14.718  29.458   7.972  0.0521  0.2402 -0.4284
34333POPC   D2A57981  14.699  29.575   7.549  0.0479  0.1909 -0.0091
34333POPC   C3A57982  14.330  29.491   7.287 -0.1746 -0.0166 -0.1295
34333POPC   C4A57983  14.041  29.275   6.997  0.0997  0.1539 -0.2904
34333POPC   C1B57984  14.138  29.416   8.243 -0.0742  0.0767 -0.1705
34333POPC   C2B57985  13.895  29.135   7.991 -0.2240  0.1566  0.1260
34333POPC   C3B57986  13.578  29.143   7.660  0.1153  0.0182 -0.0525
34333POPC   C4B57987  13.200  29.216   7.379  0.2693  0.1308 -0.1507
34334POPC   NC357988  14.437  22.145  10.137 -0.1479 -0.6044  0.1856
34334POPC   PO457989  14.825  22.269  10.093 -0.2425  0.1387  0.3574
34334POPC   GL157990  14.716  22.288   9.754 -0.1445  0.2941  0.3226
34334POPC   GL257991  14.806  22.165   9.527  0.2305  0.2923 -0.1280
34334POPC   C1A57992  14.351  22.341   9.477 -0.3199  0.3460  0.1030
34334POPC   D2A57993  14.053  22.536   9.174 -0.1194 -0.0569  0.1473
34334POPC   C3A57994  13.999  22.868   8.876 -0.1017 -0.1768  0.2587
34334POPC   C4A57995  13.967  23.052   8.435 -0.0594  0.0212  0.0557
34334POPC   C1B57996  14.459  21.848   9.358 -0.0295 -0.1033 -0.2453
34334POPC   C2B57997  14.289  21.904   8.947  0.0560 -0.3047  0.1051
34334POPC   C3B57998  14.401  21.585   8.670  0.2111 -0.1996 -0.1857
34334POPC   C4B57999  14.198  21.306   8.315 -0.1547 -0.1960 -0.1404
34335POPC   NC358000   6.290  30.991   8.322  0.1122 -0.1281 -0.1699
34335POPC   PO458001   6.468  30.826   8.593  0.3265  0.4951  0.1867
34335POPC   GL158002   6.710  30.784   8.283  0.0725  0.2201 -0.0756
34335POPC   GL258003   6.871  30.486   8.184  0.0233  0.3128  0.0874
34335POPC   C1A58004   6.889  30.972   7.927  0.0876 -0.3858 -0.0275
34335POPC   D2A58005   6.831  30.996   7.500 -0.0714 -0.0219 -0.2442
34335POPC   C3A58006   6.611  30.876   7.060  0.2012  0.3218  0.0699
34335POPC   C4A58007   6.361  31.094   6.745 -0.1044  0.3980  0.2249
34335POPC   C1B58008   6.908  30.428   7.711 -0.1593 -0.0622  0.1197
34335POPC   C2B58009   7.094  30.098   7.451 -0.0563 -0.0060  0.1207
34335POPC   C3B58010   7.049  29.944   7.030 -0.1271  0.3619 -0.1398
34335POPC   C4B58011   7.085  30.176   6.648  0.0467  0.0020 -0.0813
34336POPC   NC358012  14.189  25.640  10.157 -0.2419  0.1257 -0.0243
34336POPC   PO458013  14.435  25.363   9.989  0.0438  0.0672  0.0648
34336POPC   GL158014  14.057  25.263   9.824  0.2259  0.0577  0.0336
34336POPC   GL258015  13.998  25.013   9.911 -0.0196 -0.0973 -0.0608
34336POPC   C1A58016  13.757  25.486   9.612 -0.1187  0.1201  0.1747
34336POPC   D2A58017  13.388  25.462   9.380  0.1160  0.0030 -0.2444
34336POPC   C3A58018  13.046  25.747   9.209  0.0215 -0.0687 -0.0315
34336POPC   C4A58019  12.768  25.825   8.889 -0.1654 -0.1521  0.1515
34336POPC   C1B58020  13.957  25.073   9.420 -0.1737 -0.3592  0.2688
34336POPC   C2B58021  13.850  24.931   8.977 -0.1469  0.0495  0.3808
34336POPC   C3B58022  14.061  25.098   8.545 -0.1953  0.0502 -0.2117
34336POPC   C4B58023  14.472  25.361   8.340  0.4194 -0.2434  0.1365
34337POPC   NC358024   5.256  25.134  11.055 -0.0978 -0.0527  0.3121
34337POPC   PO458025   4.877  25.047  10.986  0.0678 -0.0243  0.1026
34337POPC   GL158026   4.984  24.709  10.885  0.4047  0.3213 -0.2671
34337POPC   GL258027   5.249  24.732  10.763 -0.0871  0.2677 -0.1523
34337POPC   C1A58028   5.238  24.349  11.048 -0.2045  0.0388  0.1513
34337POPC   D2A58029   5.631  24.143  10.829  0.0366 -0.2737  0.2213
34337POPC   C3A58030   5.998  24.176  10.571 -0.1713 -0.2136 -0.3358
34337POPC   C4A58031   6.280  24.292  10.289 -0.2746 -0.1049  0.2607
34337POPC   C1B58032   5.532  24.516  10.522 -0.0932 -0.3575  0.3862
34337POPC   C2B58033   5.904  24.612  10.254  0.1077  0.1785  0.0692
34337POPC   C3B58034   6.080  24.428   9.821  0.0198 -0.1129 -0.0022
34337POPC   C4B58035   6.008  24.527   9.335 -0.0406  0.0622  0.0458
34338POPC   NC358036   6.170  32.115   9.151 -0.2483  0.3974 -0.0559
34338POPC   PO458037   6.283  32.470   9.041  0.0157  0.0013  0.1900
34338POPC   GL158038   6.142  32.757   8.766 -0.1986  0.0919  0.0728
34338POPC   GL258039   6.340  32.929   8.902  0.0178 -0.1336 -0.3431
34338POPC   C1A58040   6.285  32.752   8.357 -0.0785  0.1661  0.0206
34338POPC   D2A58041   6.585  33.020   8.139  0.0129  0.1831 -0.1320
34338POPC   C3A58042   6.719  33.173   7.722 -0.1299  0.0019  0.1297
34338POPC   C4A58043   6.785  33.533   7.448 -0.0884 -0.3058 -0.0691
34338POPC   C1B58044   6.562  33.238   8.650 -0.1281 -0.0034  0.1147
34338POPC   C2B58045   6.784  33.552   8.431 -0.0874 -0.1667 -0.0820
34338POPC   C3B58046   6.848  33.868   8.081 -0.1940  0.1682  0.0654
34338POPC   C4B58047   6.836  34.312   7.994 -0.0193  0.0497  0.0872
34339POPC   NC358048   1.213  28.985   8.019 -0.1249  0.1884  0.2201
34339POPC   PO458049   1.426  29.279   7.955 -0.0483 -0.2458 -0.3179
34339POPC   GL158050   1.316  29.262   7.642 -0.0292  0.0883  0.1712
34339POPC   GL258051   1.122  29.150   7.516 -0.0371  0.1905  0.2252
34339POPC   C1A58052   1.531  29.302   7.216 -0.0974  0.2664 -0.0628
34339POPC   D2A58053   1.501  29.186   6.737  0.0502  0.2784  0.1249
34339POPC   C3A58054   1.431  28.843   6.448 -0.0182  0.0877 -0.0188
34339POPC   C4A58055   1.249  28.421   6.415 -0.0451  0.3226  0.1220
34339POPC   C1B58056   1.059  29.364   7.123  0.3154  0.1112 -0.2483
34339POPC   C2B58057   0.985  29.460   6.628 -0.3238 -0.1719 -0.1601
34339POPC   C3B58058   1.065  29.120   6.320  0.0678 -0.1158  0.0607
34339POPC   C4B58059   1.225  28.838   5.957 -0.1588 -0.0802  0.0009
34340POPC   NC358060   5.721  28.622   8.870 -0.1402 -0.3265 -0.0511
34340POPC   PO458061   5.735  28.230   8.894 -0.1051  0.1960 -0.0292
34340POPC   GL158062   5.544  28.322   8.584  0.1253  0.2780 -0.0542
34340POPC   GL258063   5.814  28.366   8.391 -0.1138  0.2779 -0.0634
34340POPC   C1A58064   5.593  27.991   8.226  0.0368  0.0339 -0.1133
34340POPC   D2A58065   5.984  27.955   7.955  0.0392  0.0132 -0.1118
34340POPC   C3A58066   5.885  27.925   7.446  0.0253 -0.0001 -0.1011
34340POPC   C4A58067   6.110  27.927   7.013  0.0342 -0.1839  0.0075
34340POPC   C1B58068   6.231  28.548   8.116 -0.0563  0.1069 -0.1556
34340POPC   C2B58069   6.368  28.746   7.709  0.1962 -0.2063 -0.0746
34340POPC   C3B58070   6.689  28.636   7.436  0.3742  0.1964  0.0802
34340POPC   C4B58071   7.006  28.561   7.127 -0.1503 -0.0348  0.0366
34341POPC   NC358072   2.569  31.915   8.829  0.0371 -0.0538  0.2245
34341POPC   PO458073   2.838  31.828   8.569  0.1182  0.1983 -0.0772
34341POPC   GL158074   2.808  32.024   8.121 -0.1639  0.3572  0.2029
34341POPC   GL258075   3.029  32.160   8.190  0.0228 -0.4033 -0.0340
34341POPC   C1A58076   2.792  31.951   7.675 -0.1045  0.1592  0.1881
34341POPC   D2A58077   2.972  31.930   7.183  0.2647  0.1347  0.1284
34341POPC   C3A58078   2.993  31.627   6.840  0.4273 -0.1426  0.0604
34341POPC   C4A58079   2.996  31.566   6.396 -0.3214 -0.1183 -0.0443
34341POPC   C1B58080   3.282  31.921   7.894 -0.0292 -0.0012 -0.0264
34341POPC   C2B58081   3.528  31.990   7.468 -0.0221 -0.4086  0.2409
34341POPC   C3B58082   3.470  32.084   7.001  0.0068 -0.2638 -0.0484
34341POPC   C4B58083   3.563  32.294   6.574  0.3065  0.0394  0.2636
34342POPC   NC358084  14.915  16.610   8.447  0.0188 -0.1248 -0.1601
34342POPC   PO458085  15.083  16.945   8.602 -0.1642  0.1908  0.0020
34342POPC   GL158086  15.045  17.006   8.293  0.0401 -0.0152  0.1453
34342POPC   GL258087  15.160  16.948   7.982  0.0963 -0.1175  0.2022
34342POPC   C1A58088  14.618  17.048   8.088 -0.2204  0.2485 -0.1339
34342POPC   D2A58089  14.441  16.702   7.840  0.1318  0.1018 -0.1590
34342POPC   C3A58090  14.419  16.808   7.383  0.0894 -0.2446  0.0396
34342POPC   C4A58091  14.487  16.674   6.940  0.4290  0.2567  0.1356
34342POPC   C1B58092  14.887  16.854   7.621  0.1274 -0.2381  0.0172
34342POPC   C2B58093  14.929  16.924   7.219  0.3103 -0.1654 -0.1003
34342POPC   C3B58094  14.777  17.018   6.792 -0.3184  0.0275 -0.0944
34342POPC   C4B58095  14.441  16.924   6.500 -0.2392 -0.1409 -0.2499
34343POPC   NC358096   2.972  30.113   8.068 -0.1474  0.2412 -0.1774
34343POPC   PO458097   3.271  29.903   8.063  0.0893  0.0529  0.0077
34343POPC   GL158098   3.569  29.772   7.797  0.1520 -0.4644 -0.2867
34343POPC   GL258099   3.743  29.560   7.935  0.3427 -0.0853  0.0669
34343POPC   C1A58100   3.518  29.835   7.376  0.0692  0.1404 -0.0422
34343POPC   D2A58101   3.540  29.744   6.930  0.1358  0.1201 -0.2433
34343POPC   C3A58102   3.161  29.871   6.724 -0.3970 -0.3370  0.1189
34343POPC   C4A58103   2.894  30.271   6.780  0.0632  0.1551 -0.1831
34343POPC   C1B58104   3.917  29.498   7.544  0.0660 -0.1250  0.1718
34343POPC   C2B58105   3.991  29.675   7.133 -0.1018 -0.2129 -0.0557
34343POPC   C3B58106   4.082  29.645   6.660  0.2211  0.1909  0.1831
34343POPC   C4B58107   4.092  29.760   6.145 -0.3609  0.1759  0.3516
34344POPC   NC358108   0.259  28.005   8.511 -0.3021 -0.2412  0.2843
34344POPC   PO458109   0.570  28.189   8.338  0.1272  0.2551 -0.0097
34344POPC   GL158110   0.555  27.941   8.080 -0.0104 -0.3190  0.2028
34344POPC   GL258111   0.578  28.162   7.826 -0.2120  0.1691  0.0952
34344POPC   C1A58112   0.452  27.668   7.765 -0.0692 -0.0980  0.0378
34344POPC   D2A58113   0.649  27.494   7.406  0.2228  0.0486 -0.1220
34344POPC   C3A58114   0.984  27.425   7.169  0.4852  0.0367  0.1417
34344POPC   C4A58115   1.328  27.607   6.882 -0.3250 -0.1128 -0.0096
34344POPC   C1B58116   0.690  27.997   7.397 -0.0158  0.2574  0.0372
34344POPC   C2B58117   0.695  27.859   6.982 -0.0434  0.1782  0.1184
34344POPC   C3B58118   0.799  27.594   6.637  0.0804 -0.2845 -0.3173
34344POPC   C4B58119   0.952  27.427   6.208 -0.0048  0.5152  0.1231
34345POPC   NC358120   1.645  27.654   8.674 -0.0614  0.0616  0.0011
34345POPC   PO458121   1.838  27.803   8.382 -0.5342  0.0874  0.0513
34345POPC   GL158122   2.092  27.589   8.133  0.0793  0.0215 -0.0030
34345POPC   GL258123   1.894  27.442   8.026  0.1678 -0.0767 -0.1562
34345POPC   C1A58124   2.246  27.556   7.692 -0.1072  0.3261 -0.0806
34345POPC   D2A58125   2.229  27.561   7.250 -0.0978  0.0868  0.3822
34345POPC   C3A58126   2.360  27.370   6.881 -0.0260  0.1715  0.0689
34345POPC   C4A58127   2.667  27.287   6.510 -0.1945  0.3483 -0.1687
34345POPC   C1B58128   1.852  27.197   7.631  0.1291 -0.2853 -0.3713
34345POPC   C2B58129   1.846  27.254   7.168  0.0120  0.0315  0.2144
34345POPC   C3B58130   1.728  27.339   6.728  0.0467  0.3588  0.0782
34345POPC   C4B58131   1.522  27.507   6.334  0.0834  0.0584  0.1696
34346POPC   NC358132   5.241  16.628   9.137 -0.1137 -0.2230  0.0177
34346POPC   PO458133   4.855  16.650   9.158  0.0556 -0.1996  0.1204
34346POPC   GL158134   4.967  16.667   8.776  0.1945  0.2261  0.1964
34346POPC   GL258135   5.021  16.351   8.716  0.1252 -0.3039 -0.1007
34346POPC   C1A58136   5.113  17.015   8.443 -0.2287  0.3674  0.1664
34346POPC   D2A58137   5.312  17.394   8.269 -0.0170 -0.0029 -0.2053
34346POPC   C3A58138   5.321  17.578   7.845  0.1244 -0.0788  0.1534
34346POPC   C4A58139   5.343  17.547   7.392 -0.0422  0.0038 -0.4168
34346POPC   C1B58140   5.020  16.541   8.270 -0.0416 -0.0063  0.0375
34346POPC   C2B58141   5.105  16.656   7.894 -0.1117  0.2268  0.0336
34346POPC   C3B58142   5.132  16.504   7.460 -0.0506  0.0554  0.1162
34346POPC   C4B58143   5.355  16.552   7.031  0.2817 -0.5252 -0.0265
34347POPC   NC358144  16.261  26.949  16.151  0.3702  0.0234 -0.2405
34347POPC   PO458145  16.231  27.194  16.427 -0.0480 -0.4120  0.1989
34347POPC   GL158146  16.203  27.278  16.880  0.0468 -0.2344 -0.5031
34347POPC   GL258147  16.077  27.462  17.019 -0.1473 -0.1022 -0.0562
34347POPC   C1A58148  15.974  27.053  17.274  0.1037 -0.1441 -0.0567
34347POPC   D2A58149  15.771  27.005  17.657  0.0380 -0.0178 -0.2704
34347POPC   C3A58150  15.416  27.082  17.914  0.0767 -0.0235  0.0855
34347POPC   C4A58151  15.009  27.188  17.735 -0.0026  0.0288  0.1314
34347POPC   C1B58152  16.247  27.412  17.440  0.1026  0.0335  0.4993
34347POPC   C2B58153  16.090  27.442  17.820  0.2204  0.1775  0.0961
34347POPC   C3B58154  15.964  27.186  18.157  0.0864 -0.2492 -0.0481
34347POPC   C4B58155  15.565  27.217  18.457 -0.2043 -0.1133  0.1265
34348POPC   NC358156  11.045  16.761   9.536 -0.0382  0.1074  0.2190
34348POPC   PO458157  11.081  16.913   9.184  0.0634  0.2736 -0.0817
34348POPC   GL158158  10.910  17.009   8.796 -0.0118 -0.2628  0.0125
34348POPC   GL258159  10.662  17.137   8.862  0.1315  0.1199  0.0559
34348POPC   C1A58160  11.120  17.342   8.533 -0.0055 -0.1234 -0.1342
34348POPC   D2A58161  11.259  17.793   8.423 -0.3406  0.0495  0.1619
34348POPC   C3A58162  11.456  17.876   7.987 -0.0972 -0.3136  0.3874
34348POPC   C4A58163  11.762  18.159   7.733 -0.0175 -0.4515 -0.1072
34348POPC   C1B58164  10.643  17.546   8.668 -0.0831  0.0839  0.3646
34348POPC   C2B58165  10.580  17.858   8.334 -0.2322 -0.0699 -0.0463
34348POPC   C3B58166  10.909  18.065   8.063 -0.0585  0.0085 -0.2348
34348POPC   C4B58167  11.253  18.302   8.274 -0.0073  0.2394 -0.1521
34349POPC   NC358168  13.156  31.064   8.522  0.2150 -0.2400  0.0285
34349POPC   PO458169  12.746  30.993   8.501 -0.1419 -0.1056  0.2974
34349POPC   GL158170  12.875  31.000   8.108 -0.2748  0.0394 -0.3623
34349POPC   GL258171  13.072  30.765   8.054  0.2208 -0.3750  0.0241
34349POPC   C1A58172  12.711  31.096   7.703  0.0005  0.1653  0.0974
34349POPC   D2A58173  12.734  30.855   7.309  0.1573  0.3331 -0.0862
34349POPC   C3A58174  13.169  30.836   7.048  0.1261 -0.1818 -0.1097
34349POPC   C4A58175  13.505  30.627   6.809 -0.4075  0.0366 -0.2727
34349POPC   C1B58176  12.831  30.550   7.755  0.1143  0.0386 -0.1432
34349POPC   C2B58177  12.660  30.249   7.441  0.2404 -0.0964 -0.0078
34349POPC   C3B58178  12.411  30.233   7.038 -0.0585 -0.0484  0.0636
34349POPC   C4B58179  12.201  30.011   6.705 -0.0302 -0.1936 -0.2586
34350POPC   NC358180   3.819  22.059  15.211 -0.2605 -0.1748  0.0418
34350POPC   PO458181   3.956  22.387  15.028 -0.1651 -0.0654 -0.0984
34350POPC   GL158182   4.099  22.416  15.341 -0.2779 -0.1794 -0.0383
34350POPC   GL258183   4.145  22.311  15.508 -0.0054  0.1774 -0.1121
34350POPC   C1A58184   4.466  22.660  15.515 -0.1201 -0.0466 -0.2606
34350POPC   D2A58185   4.891  22.598  15.737  0.1917  0.1542 -0.1035
34350POPC   C3A58186   4.881  22.778  16.165  0.2187 -0.0204 -0.1207
34350POPC   C4A58187   4.997  22.761  16.591 -0.1004 -0.0352  0.1014
34350POPC   C1B58188   4.322  22.442  15.945 -0.1248  0.0974  0.1790
34350POPC   C2B58189   4.572  22.421  16.338 -0.1663  0.2342 -0.0876
34350POPC   C3B58190   4.585  22.276  16.751  0.0620  0.0861 -0.2548
34350POPC   C4B58191   4.403  22.280  17.156 -0.1398  0.0074  0.0007
34351POPC   NC358192   0.229  25.360   9.727  0.4920  0.2174 -0.0035
34351POPC   PO458193  -0.099  25.447   9.481  0.0007 -0.2976 -0.0533
34351POPC   GL158194  -0.304  25.506   9.163 -0.3138 -0.0814  0.0575
34351POPC   GL258195  -0.363  25.273   9.019  0.0166  0.0489  0.1381
34351POPC   C1A58196  -0.404  25.878   8.949  0.0404 -0.1212  0.1715
34351POPC   D2A58197  -0.578  25.788   8.527  0.1411 -0.3522 -0.0002
34351POPC   C3A58198  -0.180  25.879   8.278 -0.2192 -0.1172 -0.2572
34351POPC   C4A58199   0.200  26.093   8.084  0.1071 -0.1650 -0.2347
34351POPC   C1B58200  -0.554  25.087   8.611 -0.0923 -0.0695  0.0620
34351POPC   C2B58201  -0.760  24.724   8.376 -0.1356 -0.0460 -0.1931
34351POPC   C3B58202  -0.983  24.436   8.145 -0.3527 -0.1173  0.2002
34351POPC   C4B58203  -1.303  24.129   8.057 -0.3181 -0.0247  0.1024
34352POPC   NC358204  14.989  20.622  10.069  0.0563 -0.0486  0.0872
34352POPC   PO458205  15.268  20.611   9.822 -0.2419 -0.0750  0.1116
34352POPC   GL158206  15.060  20.723   9.530  0.3745 -0.3837  0.0235
34352POPC   GL258207  14.852  20.519   9.402  0.1231  0.0596  0.2049
34352POPC   C1A58208  14.747  21.038   9.466  0.2694  0.2386  0.1078
34352POPC   D2A58209  14.541  21.259   9.094  0.0805  0.3598  0.2652
34352POPC   C3A58210  14.541  21.052   8.655  0.1326 -0.1491  0.0469
34352POPC   C4A58211  14.298  20.826   8.388 -0.1055  0.3827 -0.0925
34352POPC   C1B58212  14.550  20.736   9.094  0.2454  0.0487 -0.1307
34352POPC   C2B58213  14.186  20.766   8.866  0.2886 -0.0075 -0.1609
34352POPC   C3B58214  13.815  20.817   8.527  0.0636 -0.1821  0.1885
34352POPC   C4B58215  13.485  20.901   8.178 -0.0048 -0.2065 -0.1017
34353POPC   NC358216   9.642  32.469   9.891 -0.0082 -0.0824  0.1397
34353POPC   PO458217   9.284  32.297   9.904  0.0019  0.3468 -0.2993
34353POPC   GL158218   9.348  32.517   9.510 -0.1060  0.1838  0.2692
34353POPC   GL258219   9.176  32.774   9.590 -0.1769  0.1405 -0.0330
34353POPC   C1A58220   9.452  32.633   9.048 -0.0230 -0.0925  0.0943
34353POPC   D2A58221   9.466  32.994   8.742  0.0803  0.1168  0.0491
34353POPC   C3A58222   9.749  33.286   8.573 -0.1030 -0.2667 -0.1126
34353POPC   C4A58223  10.198  33.143   8.451  0.2587  0.0508  0.0222
34353POPC   C1B58224   9.058  33.036   9.202 -0.2302  0.0963  0.1356
34353POPC   C2B58225   8.972  33.212   8.784 -0.4124 -0.1344 -0.1482
34353POPC   C3B58226   9.020  33.449   8.494  0.0936  0.3558  0.1487
34353POPC   C4B58227   9.199  33.684   8.145 -0.2436 -0.0569 -0.3641
34354POPC   NC358228   7.440  32.380   9.091 -0.0368 -0.0151  0.0712
34354POPC   PO458229   7.108  32.302   9.281  0.0847 -0.0352 -0.4772
34354POPC   GL158230   7.107  32.608   8.914  0.0198 -0.1234  0.5567
34354POPC   GL258231   7.144  32.389   8.730  0.2000 -0.0418  0.1884
34354POPC   C1A58232   7.437  32.810   8.592 -0.4014 -0.0056 -0.3491
34354POPC   D2A58233   7.669  33.115   8.300 -0.2154  0.1445 -0.1162
34354POPC   C3A58234   7.772  33.168   7.843  0.0266 -0.0340 -0.2034
34354POPC   C4A58235   7.626  33.194   7.400 -0.0750 -0.2448  0.2736
34354POPC   C1B58236   7.082  32.286   8.261  0.3833  0.1077 -0.0076
34354POPC   C2B58237   7.293  32.286   7.799 -0.0910 -0.0162  0.0547
34354POPC   C3B58238   7.302  32.029   7.376 -0.0753 -0.0359 -0.2540
34354POPC   C4B58239   7.330  32.112   6.914 -0.0299 -0.4353  0.0259
34355POPC   NC358240   1.380  18.778   8.763  0.1702 -0.1357  0.3310
34355POPC   PO458241   1.426  19.183   8.875 -0.1020 -0.1682 -0.1621
34355POPC   GL158242   1.707  19.227   8.562 -0.1339 -0.0101  0.0898
34355POPC   GL258243   1.580  19.103   8.364  0.0578 -0.0011 -0.2619
34355POPC   C1A58244   1.595  19.606   8.283 -0.2253  0.2448 -0.0451
34355POPC   D2A58245   1.416  19.988   8.083  0.1985  0.2492  0.0925
34355POPC   C3A58246   1.666  20.182   7.717 -0.3653  0.1344  0.1045
34355POPC   C4A58247   1.796  19.925   7.340  0.2037 -0.0852  0.0578
34355POPC   C1B58248   1.521  19.190   7.951  0.1115  0.0882 -0.0680
34355POPC   C2B58249   1.374  19.039   7.501 -0.1140 -0.1762 -0.1092
34355POPC   C3B58250   1.462  19.008   7.056  0.1195  0.0213  0.0284
34355POPC   C4B58251   1.750  19.113   6.758 -0.2931  0.1853  0.0828
34356POPC   NC358252  11.406  16.557   9.020  0.1425  0.1018 -0.1796
34356POPC   PO458253  11.804  16.522   9.111 -0.1131 -0.0400  0.0244
34356POPC   GL158254  11.765  16.804   8.816 -0.0488 -0.0072  0.2852
34356POPC   GL258255  12.057  16.925   8.683  0.0236 -0.0745 -0.1766
34356POPC   C1A58256  11.373  16.788   8.580 -0.0781  0.0402 -0.2132
34356POPC   D2A58257  11.197  17.006   8.199  0.0288  0.3238  0.0053
34356POPC   C3A58258  10.712  16.994   8.095 -0.3040 -0.0283  0.2108
34356POPC   C4A58259  10.459  17.369   8.202  0.1574 -0.4439 -0.2314
34356POPC   C1B58260  11.832  16.822   8.250 -0.0176  0.0103  0.5188
34356POPC   C2B58261  11.680  16.862   7.776 -0.1830 -0.0609  0.0387
34356POPC   C3B58262  11.412  16.917   7.388  0.0863  0.0062  0.1195
34356POPC   C4B58263  11.016  16.624   7.294  0.0490 -0.0881 -0.3008
34357POPC   NC358264  13.964  19.581  12.941 -0.1443  0.1636 -0.2385
34357POPC   PO458265  13.911  19.346  13.279  0.2235  0.0677  0.1904
34357POPC   GL158266  13.783  19.713  13.393 -0.5487 -0.1485  0.1147
34357POPC   GL258267  13.572  19.623  13.570 -0.1506  0.3788  0.2004
34357POPC   C1A58268  14.038  20.043  13.571 -0.1857  0.5122 -0.0330
34357POPC   D2A58269  14.255  20.229  13.924 -0.1222 -0.1658 -0.0720
34357POPC   C3A58270  14.073  20.215  14.343  0.1299 -0.0007 -0.1585
34357POPC   C4A58271  13.717  20.384  14.585 -0.1452 -0.1936 -0.1392
34357POPC   C1B58272  13.460  20.088  13.525  0.0486  0.1451 -0.0248
34357POPC   C2B58273  13.318  20.569  13.509  0.0187 -0.1984 -0.0809
34357POPC   C3B58274  12.966  20.909  13.554 -0.1338  0.2857 -0.0710
34357POPC   C4B58275  12.604  21.135  13.617  0.0159 -0.2681 -0.0170
34358POPC   NC358276   5.967  25.268  13.325  0.2712 -0.1543 -0.0537
34358POPC   PO458277   5.930  25.283  13.729 -0.0560  0.0251  0.0497
34358POPC   GL158278   6.188  24.969  13.739  0.0763 -0.0738  0.3220
34358POPC   GL258279   6.423  25.148  13.619 -0.0228 -0.0520  0.0752
34358POPC   C1A58280   6.536  24.665  13.626 -0.3733  0.1453  0.0089
34358POPC   D2A58281   6.672  24.240  13.673 -0.1382 -0.2770 -0.3325
34358POPC   C3A58282   7.069  24.092  13.819 -0.0230  0.0856  0.1712
34358POPC   C4A58283   7.511  24.013  13.841 -0.1976 -0.0108 -0.0270
34358POPC   C1B58284   6.384  25.056  14.138 -0.0901 -0.0124  0.0984
34358POPC   C2B58285   6.700  25.023  14.466 -0.1188 -0.0466  0.5291
34358POPC   C3B58286   6.998  24.941  14.841  0.1476 -0.1573 -0.1786
34358POPC   C4B58287   7.338  24.865  15.182  0.1751  0.0748  0.2487
34359POPC   NC358288   3.817  25.586   9.507  0.2710 -0.1921 -0.2608
34359POPC   PO458289   3.426  25.610   9.391  0.0190  0.0511  0.2321
34359POPC   GL158290   3.656  25.427   9.100  0.1130 -0.1193 -0.0973
34359POPC   GL258291   3.586  25.433   8.815  0.2959  0.1902 -0.2221
34359POPC   C1A58292   4.095  25.443   8.861  0.2734 -0.1900  0.0006
34359POPC   D2A58293   4.444  25.634   8.571  0.1945 -0.0133 -0.1214
34359POPC   C3A58294   4.302  25.934   8.265  0.2565  0.0673  0.1484
34359POPC   C4A58295   3.894  25.931   7.987  0.1397  0.0573  0.0541
34359POPC   C1B58296   3.782  25.167   8.463  0.2556 -0.1868 -0.1399
34359POPC   C2B58297   3.799  24.980   8.032 -0.0025 -0.2973  0.0919
34359POPC   C3B58298   3.646  25.063   7.593  0.0586 -0.0086 -0.1504
34359POPC   C4B58299   3.419  24.978   7.202 -0.0166  0.2271 -0.2946
34360POPC   NC358300   5.358  26.283   9.297  0.0113 -0.0009  0.1860
34360POPC   PO458301   5.141  26.076   9.509  0.4562  0.2600  0.0019
34360POPC   GL158302   5.025  25.873   9.153  0.0241 -0.2003  0.1118
34360POPC   GL258303   5.229  25.891   8.953 -0.0129  0.0899  0.3049
34360POPC   C1A58304   4.874  25.505   8.911  0.0826 -0.0206 -0.2692
34360POPC   D2A58305   5.113  25.323   8.560  0.3267 -0.2131 -0.0511
34360POPC   C3A58306   5.089  25.313   8.086  0.0528 -0.1004 -0.1377
34360POPC   C4A58307   5.160  25.015   7.719 -0.0374 -0.3749 -0.1123
34360POPC   C1B58308   5.440  25.510   8.781  0.3033 -0.1959  0.2366
34360POPC   C2B58309   5.561  25.056   8.595  0.0420  0.1080  0.0350
34360POPC   C3B58310   5.503  24.566   8.559  0.0035  0.0358 -0.2241
34360POPC   C4B58311   5.388  24.289   8.186  0.2118 -0.1395  0.0578
34361POPC   NC358312  10.602  17.875  11.809 -0.0912  0.0148  0.0054
34361POPC   PO458313  10.200  17.829  11.882  0.0208  0.3740  0.0159
34361POPC   GL158314  10.180  18.236  11.826  0.0170 -0.1661 -0.1928
34361POPC   GL258315  10.379  18.317  11.896  0.1033 -0.0483 -0.2436
34361POPC   C1A58316  10.008  18.639  11.642 -0.0430  0.1975 -0.1211
34361POPC   D2A58317  10.188  19.092  11.702 -0.0431 -0.1171  0.0890
34361POPC   C3A58318  10.128  19.554  11.527 -0.0326  0.1357  0.0064
34361POPC   C4A58319  10.087  19.998  11.452  0.1710  0.0881  0.0163
34361POPC   C1B58320  10.482  18.761  11.944  0.1814 -0.2162 -0.0294
34361POPC   C2B58321  10.392  19.195  12.132  0.0127 -0.2259 -0.1445
34361POPC   C3B58322  10.117  19.545  12.121  0.1257 -0.1217 -0.3527
34361POPC   C4B58323   9.770  19.832  11.884  0.4356 -0.2136 -0.2597
34362POPC   NC358324  14.970  19.420  14.718  0.0542  0.0276  0.3889
34362POPC   PO458325  15.244  19.712  14.817 -0.1659  0.5320 -0.0941
34362POPC   GL158326  15.062  19.934  15.093 -0.0969  0.3129  0.0375
34362POPC   GL258327  15.145  20.206  15.156 -0.0657  0.3517  0.0513
34362POPC   C1A58328  14.709  19.996  15.416 -0.1467 -0.3920  0.0660
34362POPC   D2A58329  14.569  20.293  15.771 -0.0231  0.1977  0.0563
34362POPC   C3A58330  14.235  20.461  16.059  0.1680  0.2938 -0.2064
34362POPC   C4A58331  14.165  20.802  16.303  0.1069 -0.1356  0.1192
34362POPC   C1B58332  14.904  20.449  15.466 -0.1020 -0.3149  0.0571
34362POPC   C2B58333  14.658  20.761  15.708 -0.2613 -0.2043 -0.1205
34362POPC   C3B58334  14.259  20.868  15.811 -0.1725 -0.0444 -0.0562
34362POPC   C4B58335  13.963  21.174  15.981 -0.1038 -0.2675 -0.0363
34363POPC   NC358336   4.489  16.228   9.137 -0.4318 -0.0880  0.3470
34363POPC   PO458337   4.620  15.975   8.862 -0.3610 -0.0615  0.1516
34363POPC   GL158338   4.648  16.205   8.488 -0.2619  0.2502  0.0987
34363POPC   GL258339   4.538  16.462   8.592  0.0545  0.4146  0.1133
34363POPC   C1A58340   4.494  16.370   8.085 -0.0414  0.0230 -0.0242
34363POPC   D2A58341   4.402  16.583   7.672  0.1361 -0.0477 -0.2562
34363POPC   C3A58342   4.767  16.848   7.595 -0.0523 -0.1857 -0.0446
34363POPC   C4A58343   5.169  17.023   7.544 -0.1023 -0.0194 -0.0032
34363POPC   C1B58344   4.657  16.847   8.365  0.2022 -0.0037  0.0141
34363POPC   C2B58345   4.895  17.147   8.015  0.0768 -0.1816 -0.0423
34363POPC   C3B58346   4.888  17.394   7.632  0.0748 -0.0203 -0.2604
34363POPC   C4B58347   4.959  17.828   7.433 -0.2305  0.4040 -0.0199
34364POPC   NC358348   5.852  29.561   8.987  0.1868  0.0738 -0.1109
34364POPC   PO458349   6.149  29.369   9.099 -0.3360 -0.0340 -0.3684
34364POPC   GL158350   6.138  29.374   8.674 -0.3547 -0.2442 -0.3519
34364POPC   GL258351   5.951  29.517   8.492 -0.1153 -0.1158 -0.0322
34364POPC   C1A58352   6.403  29.545   8.263 -0.0353 -0.1463  0.1087
34364POPC   D2A58353   6.632  29.427   7.865 -0.0362  0.0070 -0.3440
34364POPC   C3A58354   6.712  29.120   7.517 -0.4467 -0.0949  0.2577
34364POPC   C4A58355   6.771  28.975   7.055  0.1027 -0.3162 -0.2206
34364POPC   C1B58356   5.854  29.365   8.117 -0.1881  0.2430 -0.0645
34364POPC   C2B58357   5.741  29.352   7.661 -0.0009 -0.0013 -0.1644
34364POPC   C3B58358   5.868  29.206   7.270 -0.1288  0.1441 -0.2735
34364POPC   C4B58359   5.870  29.489   6.848 -0.1940  0.2250 -0.0409
34365POPC   NC358360   5.960  26.108  10.401  0.1881  0.1662 -0.0332
34365POPC   PO458361   5.904  25.891  10.687  0.0202 -0.1334  0.2073
34365POPC   GL158362   6.171  25.641  10.693  0.0445 -0.0872  0.0208
34365POPC   GL258363   6.428  25.741  10.643  0.0530  0.2804  0.0152
34365POPC   C1A58364   6.189  25.188  10.666 -0.0997  0.3639  0.0950
34365POPC   D2A58365   6.380  24.917  10.438  0.3480 -0.0483 -0.1455
34365POPC   C3A58366   6.578  24.742  10.065  0.1645 -0.1765  0.1243
34365POPC   C4A58367   6.610  24.324   9.886 -0.0145  0.2392  0.0803
34365POPC   C1B58368   6.660  25.361  10.578 -0.0815 -0.0862  0.0417
34365POPC   C2B58369   6.887  24.991  10.370 -0.0358 -0.1534 -0.0238
34365POPC   C3B58370   7.212  24.813  10.086 -0.0119  0.2207 -0.0043
34365POPC   C4B58371   7.643  24.629  10.011 -0.1349  0.1215 -0.0626
34366POPC   NC358372  17.713  28.207   8.532  0.1382  0.1681  0.2220
34366POPC   PO458373  17.522  28.010   8.799  0.2969  0.0501  0.2389
34366POPC   GL158374  17.211  27.855   8.600 -0.0705 -0.0225 -0.1067
34366POPC   GL258375  17.270  27.936   8.290  0.0974  0.1310 -0.1085
34366POPC   C1A58376  16.884  27.612   8.447  0.0521 -0.0291 -0.3472
34366POPC   D2A58377  16.565  27.303   8.340  0.1826  0.3552  0.1498
34366POPC   C3A58378  16.149  27.336   8.136 -0.1431  0.0451 -0.3579
34366POPC   C4A58379  15.994  27.137   7.829 -0.2909 -0.1978 -0.0503
34366POPC   C1B58380  17.056  27.899   7.925  0.0250 -0.1857  0.2619
34366POPC   C2B58381  16.899  27.990   7.480  0.0382 -0.0217  0.2331
34366POPC   C3B58382  16.939  27.752   7.087 -0.2602 -0.1530  0.0224
34366POPC   C4B58383  16.908  27.460   6.732  0.0365 -0.1668 -0.0598
34367POPC   NC358384   1.441  24.702   9.439 -0.0994  0.0049  0.0590
34367POPC   PO458385   1.668  24.783   9.141  0.1589  0.0179 -0.2162
34367POPC   GL158386   1.643  24.773   8.767 -0.3648 -0.3908  0.1898
34367POPC   GL258387   1.383  24.939   8.775  0.1887 -0.0148  0.1058
34367POPC   C1A58388   1.528  24.538   8.399 -0.0790  0.2254  0.1974
34367POPC   D2A58389   1.315  24.582   7.963  0.1908 -0.0212  0.3702
34367POPC   C3A58390   1.599  24.452   7.634 -0.0532  0.0920 -0.0712
34367POPC   C4A58391   1.307  24.292   7.322 -0.2460  0.0347 -0.0962
34367POPC   C1B58392   1.324  24.966   8.301 -0.1258  0.0930  0.1492
34367POPC   C2B58393   1.136  25.160   7.880 -0.2023  0.0093  0.0533
34367POPC   C3B58394   0.987  25.034   7.481  0.0262 -0.4332 -0.1914
34367POPC   C4B58395   0.864  25.110   7.062 -0.1777 -0.2073  0.0826
34368POPC   NC358396   4.053  28.899   8.290  0.1280  0.1768  0.0571
34368POPC   PO458397   3.841  28.635   8.156 -0.0320  0.1580  0.2016
34368POPC   GL158398   3.721  28.278   7.825  0.3083 -0.1348  0.1090
34368POPC   GL258399   3.482  28.253   7.806  0.4022  0.1319  0.0779
34368POPC   C1A58400   3.768  28.007   7.437 -0.0250 -0.0262  0.1324
34368POPC   D2A58401   3.976  27.940   7.009  0.2098 -0.2367  0.3271
34368POPC   C3A58402   3.848  28.093   6.566  0.0899  0.1472  0.0216
34368POPC   C4A58403   3.846  28.458   6.216  0.2336 -0.3072 -0.0686
34368POPC   C1B58404   3.357  28.261   7.380 -0.1487 -0.1326 -0.1935
34368POPC   C2B58405   3.501  28.187   6.938 -0.1831  0.0326  0.2435
34368POPC   C3B58406   3.272  28.012   6.566  0.4551 -0.0558 -0.1308
34368POPC   C4B58407   2.962  27.753   6.353  0.1780 -0.1806  0.1269
34369POPC   NC358408   2.227  23.731   8.990  0.0180 -0.0419 -0.0987
34369POPC   PO458409   2.519  23.752   9.231  0.0164  0.1253 -0.2255
34369POPC   GL158410   2.850  23.734   9.010  0.1579 -0.4120 -0.0066
34369POPC   GL258411   2.756  23.935   8.789  0.1313 -0.0075  0.0054
34369POPC   C1A58412   2.939  23.359   8.743  0.0706  0.2518 -0.1040
34369POPC   D2A58413   3.193  23.110   8.487  0.0993  0.0393  0.0119
34369POPC   C3A58414   3.600  23.039   8.285 -0.0248 -0.0715  0.4210
34369POPC   C4A58415   3.945  23.109   7.949  0.0305 -0.1390 -0.1449
34369POPC   C1B58416   3.078  23.822   8.514  0.0231 -0.3567 -0.0314
34369POPC   C2B58417   3.390  23.816   8.231  0.0672 -0.1235  0.0127
34369POPC   C3B58418   3.367  23.868   7.754 -0.0718  0.2288  0.0136
34369POPC   C4B58419   3.593  24.001   7.359  0.1077 -0.2247  0.0570
34370POPC   NC358420  10.737  17.247   9.934 -0.2641 -0.1143 -0.0543
34370POPC   PO458421  11.104  17.484   9.935  0.0676  0.0038  0.0010
34370POPC   GL158422  11.011  17.684   9.669 -0.0098  0.3126  0.2160
34370POPC   GL258423  10.713  17.652   9.610  0.3703  0.0710  0.3281
34370POPC   C1A58424  10.905  18.034   9.370  0.0031  0.2309 -0.1508
34370POPC   D2A58425  10.907  18.365   9.063 -0.0646 -0.2920  0.1230
34370POPC   C3A58426  10.587  18.704   8.927  0.1322 -0.0218  0.4224
34370POPC   C4A58427  10.233  18.955   9.192 -0.2483  0.0649  0.1859
34370POPC   C1B58428  10.301  17.836   9.534  0.2854  0.2617  0.3738
34370POPC   C2B58429  10.064  18.083   9.232  0.3357 -0.2588 -0.2467
34370POPC   C3B58430  10.062  18.455   8.978  0.1165  0.0793 -0.4027
34370POPC   C4B58431   9.967  18.852   8.793  0.0284 -0.3383 -0.2846
34371POPC   NC358432   8.939  32.325   9.621 -0.1207 -0.1052  0.1808
34371POPC   PO458433   8.632  32.566   9.470 -0.0863 -0.2842  0.3678
34371POPC   GL158434   8.592  32.762   9.165  0.0078  0.0768 -0.1401
34371POPC   GL258435   8.467  32.933   8.984  0.1029 -0.0244  0.1177
34371POPC   C1A58436   8.560  32.511   8.748 -0.0513  0.0075  0.1361
34371POPC   D2A58437   8.559  32.439   8.311 -0.3304  0.0525 -0.2352
34371POPC   C3A58438   8.925  32.460   8.003  0.3533 -0.1837 -0.1306
34371POPC   C4A58439   9.231  32.395   7.679 -0.0154 -0.1073  0.3099
34371POPC   C1B58440   8.615  32.963   8.551 -0.0504  0.2086 -0.0502
34371POPC   C2B58441   8.698  32.938   8.060  0.3272  0.0740  0.0122
34371POPC   C3B58442   8.829  32.907   7.636 -0.0865  0.0936  0.1324
34371POPC   C4B58443   9.070  32.627   7.283  0.1285 -0.0818 -0.1099
34372POPC   NC358444  13.163  29.508   9.021  0.3254 -0.2803 -0.1731
34372POPC   PO458445  13.371  29.788   8.825 -0.0666 -0.0759  0.2961
34372POPC   GL158446  13.200  29.550   8.515  0.1385 -0.0780  0.2042
34372POPC   GL258447  13.177  29.797   8.305  0.3797  0.1840  0.1968
34372POPC   C1A58448  12.868  29.247   8.318  0.2060 -0.2772 -0.0570
34372POPC   D2A58449  12.843  28.931   8.002 -0.1408  0.1461 -0.0377
34372POPC   C3A58450  12.416  28.788   8.070  0.0655  0.3520 -0.0734
34372POPC   C4A58451  12.082  28.513   7.943  0.1677  0.0090 -0.0379
34372POPC   C1B58452  13.297  29.672   7.869 -0.3407  0.1282  0.3754
34372POPC   C2B58453  13.529  29.555   7.426 -0.0363  0.3181  0.0379
34372POPC   C3B58454  13.520  29.491   6.946 -0.2911  0.1611  0.1036
34372POPC   C4B58455  13.467  29.546   6.441  0.0736  0.2311  0.1701
34373POPC   NC358456   4.620  31.862   8.620 -0.0506  0.1358  0.2501
34373POPC   PO458457   4.700  32.201   8.746 -0.1122  0.2445  0.2343
34373POPC   GL158458   4.988  32.189   8.568  0.1115 -0.3520 -0.5293
34373POPC   GL258459   5.213  32.372   8.665 -0.0008  0.0144 -0.0452
34373POPC   C1A58460   5.027  32.421   8.155  0.0886 -0.0224 -0.1541
34373POPC   D2A58461   5.221  32.379   7.729 -0.2733  0.2776 -0.0449
34373POPC   C3A58462   5.139  32.653   7.391  0.2553 -0.1405 -0.2087
34373POPC   C4A58463   4.813  32.839   7.118  0.0812  0.4871  0.0315
34373POPC   C1B58464   5.371  32.109   8.319  0.1307 -0.0392 -0.0657
34373POPC   C2B58465   5.572  32.050   7.904  0.1368 -0.2075  0.1959
34373POPC   C3B58466   5.674  32.249   7.515  0.2162  0.1547 -0.1301
34373POPC   C4B58467   5.578  32.070   7.039 -0.0555 -0.0386 -0.2493
34374POPC   NC358468  10.898  17.650  10.899  0.3452 -0.0001 -0.1000
34374POPC   PO458469  10.758  17.820  11.257 -0.0380 -0.3066 -0.0233
34374POPC   GL158470  10.830  18.093  11.040 -0.1824  0.0731  0.0839
34374POPC   GL258471  10.667  18.104  10.809 -0.1998  0.0013 -0.0705
34374POPC   C1A58472  10.987  18.514  11.008 -0.3016  0.6162  0.0772
34374POPC   D2A58473  10.701  18.890  10.863  0.1054  0.1962  0.0798
34374POPC   C3A58474  10.636  19.280  10.620  0.0932 -0.0976  0.1115
34374POPC   C4A58475  10.684  19.549  10.266 -0.2705  0.1223 -0.0872
34374POPC   C1B58476  10.435  18.435  10.678  0.0130  0.0411  0.1536
34374POPC   C2B58477  10.365  18.798  10.425  0.2043  0.0364  0.3375
34374POPC   C3B58478  10.326  19.155  10.141 -0.1485  0.1481  0.0638
34374POPC   C4B58479  10.509  19.390   9.813 -0.0335  0.1824 -0.1721
34375POPC   NC358480   1.064  27.544   8.649  0.2167  0.0791 -0.0202
34375POPC   PO458481   0.781  27.738   8.470 -0.1258 -0.0642  0.0478
34375POPC   GL158482   0.845  27.629   8.078 -0.0806 -0.1446  0.2340
34375POPC   GL258483   0.970  27.440   8.099  0.0716  0.4190  0.1929
34375POPC   C1A58484   0.998  27.724   7.652  0.0364 -0.3691 -0.1840
34375POPC   D2A58485   1.155  27.930   7.238 -0.0702  0.0438  0.2005
34375POPC   C3A58486   1.072  28.082   6.807 -0.0938 -0.1467  0.0036
34375POPC   C4A58487   1.006  27.977   6.357 -0.0019 -0.0764 -0.1407
34375POPC   C1B58488   0.905  27.215   7.706 -0.2273  0.0443 -0.1277
34375POPC   C2B58489   0.959  26.897   7.408 -0.2708  0.0416 -0.1001
34375POPC   C3B58490   1.087  26.754   7.000 -0.0174  0.2413  0.2652
34375POPC   C4B58491   1.011  26.349   6.695 -0.2367 -0.3059 -0.5412
34376POPC   NC358492   9.653  16.830  13.829  0.0350 -0.1628 -0.1488
34376POPC   PO458493   9.346  16.669  14.019  0.0267  0.1636 -0.0786
34376POPC   GL158494   9.268  16.977  14.182 -0.2001  0.0434 -0.0525
34376POPC   GL258495   9.333  17.244  14.074  0.3128  0.1891 -0.0747
34376POPC   C1A58496   9.244  17.325  14.513  0.0436  0.0807 -0.2020
34376POPC   D2A58497   9.324  17.726  14.719  0.0811  0.2795  0.0056
34376POPC   C3A58498   9.175  17.951  15.086  0.2365 -0.2624  0.0957
34376POPC   C4A58499   9.139  18.314  15.331 -0.2217 -0.2185 -0.0856
34376POPC   C1B58500   9.531  17.663  14.233 -0.2270 -0.0281 -0.2259
34376POPC   C2B58501   9.422  18.085  14.345  0.0187 -0.4158 -0.0273
34376POPC   C3B58502   9.460  18.557  14.218 -0.1640 -0.0072  0.2078
34376POPC   C4B58503   9.184  18.892  14.210 -0.0287  0.2549  0.0646
34377POPC   NC358504   5.149  28.107   8.450 -0.1740  0.1101  0.1365
34377POPC   PO458505   4.793  28.295   8.481 -0.1207  0.3753 -0.1408
34377POPC   GL158506   4.745  28.063   8.295 -0.3075 -0.4787 -0.1149
34377POPC   GL258507   4.478  27.949   8.172  0.0968 -0.2717  0.0676
34377POPC   C1A58508   5.061  28.087   7.936  0.1298  0.0554 -0.1893
34377POPC   D2A58509   5.260  28.079   7.459 -0.3140  0.1072 -0.0092
34377POPC   C3A58510   5.466  27.796   7.796 -0.0608  0.2067 -0.0490
34377POPC   C4A58511   5.657  27.417   7.684 -0.0143 -0.3220 -0.5608
34377POPC   C1B58512   4.511  28.103   7.744 -0.1470 -0.1452 -0.1193
34377POPC   C2B58513   4.829  28.222   7.352  0.1845 -0.1535 -0.3248
34377POPC   C3B58514   5.145  28.089   7.032  0.0985  0.0583 -0.2241
34377POPC   C4B58515   5.574  28.029   6.997  0.2721 -0.1767 -0.2112
34378POPC   NC358516  17.226  20.525   9.642 -0.0792 -0.1053  0.4243
34378POPC   PO458517  17.318  20.680   9.283 -0.0967  0.2299 -0.0723
34378POPC   GL158518  17.220  20.817   8.885  0.0371  0.0990 -0.1142
34378POPC   GL258519  16.911  20.747   8.864  0.2130  0.2062 -0.1172
34378POPC   C1A58520  17.426  20.877   8.484  0.0242 -0.0237 -0.0366
34378POPC   D2A58521  17.488  20.805   8.010  0.2737 -0.1137 -0.3057
34378POPC   C3A58522  17.211  20.590   7.708 -0.4498  0.0714 -0.1222
34378POPC   C4A58523  17.016  20.342   7.335 -0.2085 -0.0201  0.0599
34378POPC   C1B58524  16.636  20.772   8.442 -0.0753 -0.3637 -0.3993
34378POPC   C2B58525  16.597  20.647   8.068 -0.0936 -0.3223 -0.1442
34378POPC   C3B58526  16.607  20.888   7.632 -0.0397 -0.3803 -0.0925
34378POPC   C4B58527  16.924  20.966   7.386  0.0382 -0.1343 -0.0737
34379POPC   NC358528   3.885  26.762   9.153  0.1385  0.1834 -0.0256
34379POPC   PO458529   3.729  26.412   9.101 -0.0568 -0.1193  0.0324
34379POPC   GL158530   3.493  26.299   8.862  0.1858 -0.3439  0.1597
34379POPC   GL258531   3.506  26.457   8.579 -0.2878  0.1724 -0.0892
34379POPC   C1A58532   3.391  25.940   8.631 -0.1649  0.0156 -0.0519
34379POPC   D2A58533   3.445  25.665   8.259 -0.1376 -0.1499  0.0827
34379POPC   C3A58534   3.766  25.481   8.020 -0.1504 -0.0520  0.0432
34379POPC   C4A58535   3.869  25.469   7.582  0.1432  0.0087  0.3268
34379POPC   C1B58536   3.799  26.136   8.384  0.2375 -0.0405  0.0647
34379POPC   C2B58537   3.907  25.704   8.464  0.0869 -0.2184 -0.0467
34379POPC   C3B58538   4.162  25.407   8.279 -0.0240 -0.2703 -0.0963
34379POPC   C4B58539   4.264  25.271   7.841  0.4800 -0.3212  0.0706
34380POPC   NC358540  11.595  18.045  10.591  0.4141  0.0712 -0.1411
34380POPC   PO458541  11.213  17.951  10.692 -0.0143 -0.0298 -0.3745
34380POPC   GL158542  11.192  18.304  10.601 -0.2077  0.1406 -0.0469
34380POPC   GL258543  11.288  18.384  10.323  0.3812  0.1483 -0.1270
34380POPC   C1A58544  10.910  18.672  10.476 -0.1978  0.4326 -0.3348
34380POPC   D2A58545  10.815  19.043  10.234  0.0822  0.1135 -0.1835
34380POPC   C3A58546  10.942  19.097   9.835 -0.0135  0.2315  0.0273
34380POPC   C4A58547  11.043  19.347   9.464  0.2523  0.1925 -0.3766
34380POPC   C1B58548  11.407  18.785  10.258 -0.1735  0.2720 -0.1595
34380POPC   C2B58549  11.316  19.108  10.591 -0.3242 -0.0917  0.0231
34380POPC   C3B58550  11.581  19.440  10.518  0.1581  0.1297 -0.1908
34380POPC   C4B58551  11.582  19.779  10.326  0.1106  0.0224  0.0846
34381POPC   NC358552   4.941  29.235   8.608 -0.1356 -0.3309  0.0261
34381POPC   PO458553   4.544  29.184   8.505 -0.4088  0.0941  0.1346
34381POPC   GL158554   4.545  29.295   8.142  0.2449 -0.0489 -0.2126
34381POPC   GL258555   4.312  29.354   8.044  0.0558 -0.0265  0.1478
34381POPC   C1A58556   4.648  29.025   7.798 -0.0060  0.0283 -0.1868
34381POPC   D2A58557   4.598  28.781   7.393  0.3205 -0.0551  0.0641
34381POPC   C3A58558   4.965  28.667   7.164  0.3014 -0.1828 -0.0156
34381POPC   C4A58559   4.945  28.465   6.797 -0.1010  0.1375 -0.0231
34381POPC   C1B58560   4.425  29.587   7.738 -0.0544 -0.0715  0.0845
34381POPC   C2B58561   4.426  29.834   7.365 -0.2217  0.1130  0.1003
34381POPC   C3B58562   4.535  29.813   6.946 -0.1178  0.2147 -0.2245
34381POPC   C4B58563   4.407  29.971   6.524 -0.1121  0.4742  0.1373
34382POPC   NC358564   5.608  19.233  10.643  0.1979  0.2828 -0.0272
34382POPC   PO458565   5.257  19.295  10.681  0.1356  0.2009  0.0457
34382POPC   GL158566   5.264  19.431  10.250  0.0691  0.0403 -0.1231
34382POPC   GL258567   5.463  19.629  10.388 -0.4801 -0.0546  0.1307
34382POPC   C1A58568   5.028  19.268   9.860  0.0872  0.0404  0.1638
34382POPC   D2A58569   5.037  19.198   9.384 -0.0614 -0.1268  0.0650
34382POPC   C3A58570   5.243  19.172   8.979  0.3210  0.1620 -0.0236
34382POPC   C4A58571   5.083  19.369   8.574 -0.0328  0.3932 -0.0974
34382POPC   C1B58572   5.509  20.071  10.454  0.1194 -0.0146 -0.3084
34382POPC   C2B58573   5.724  20.371  10.206  0.0750 -0.0036 -0.0472
34382POPC   C3B58574   5.743  20.747   9.892  0.0540  0.2057  0.0451
34382POPC   C4B58575   5.718  20.962   9.447  0.1715  0.1406 -0.0925
34383POPC   NC358576   5.128  20.939  14.254 -0.0200 -0.0888 -0.1042
34383POPC   PO458577   5.091  20.909  13.873  0.0793 -0.0313  0.1347
34383POPC   GL158578   5.490  20.867  13.947  0.0340 -0.3068 -0.1398
34383POPC   GL258579   5.602  21.004  14.062  0.0963  0.2177  0.1842
34383POPC   C1A58580   5.770  20.531  14.145 -0.1539 -0.0081 -0.1439
34383POPC   D2A58581   6.202  20.444  14.127 -0.0484  0.2506 -0.3556
34383POPC   C3A58582   6.552  20.574  14.386  0.0244 -0.1534  0.0850
34383POPC   C4A58583   6.992  20.550  14.218  0.1368  0.1328 -0.0090
34383POPC   C1B58584   6.012  21.071  14.261  0.0623  0.2088  0.1741
34383POPC   C2B58585   6.414  21.219  14.348 -0.1104  0.2428  0.0556
34383POPC   C3B58586   6.746  21.458  14.516  0.0935 -0.1909  0.4669
34383POPC   C4B58587   7.219  21.369  14.482 -0.3887 -0.0358  0.1315
34384POPC   NC358588   2.268  18.550   8.639 -0.1646 -0.2715  0.0038
34384POPC   PO458589   1.941  18.751   8.656 -0.2816  0.1880 -0.0263
34384POPC   GL158590   1.963  18.837   8.291 -0.1908  0.2620 -0.4663
34384POPC   GL258591   2.302  19.040   8.276  0.1750  0.1029 -0.0907
34384POPC   C1A58592   2.247  18.735   7.924  0.1016  0.0501 -0.0498
34384POPC   D2A58593   2.448  18.860   7.502  0.2145  0.2558  0.0244
34384POPC   C3A58594   2.655  18.539   7.298  0.2184 -0.0043  0.1440
34384POPC   C4A58595   2.793  18.372   6.875 -0.0108 -0.3056 -0.0953
34384POPC   C1B58596   1.987  19.290   7.997 -0.1178 -0.1905 -0.1915
34384POPC   C2B58597   1.802  19.614   7.734  0.2461  0.1143  0.1082
34384POPC   C3B58598   1.664  19.443   7.325  0.2324 -0.0135  0.2142
34384POPC   C4B58599   1.312  19.508   6.982 -0.0669  0.0133 -0.0385
34385POPC   NC358600  17.445  31.626   7.985  0.0830  0.0390 -0.0525
34385POPC   PO458601  17.490  31.224   8.023 -0.4624  0.1846 -0.0084
34385POPC   GL158602  17.337  31.257   7.576  0.0054  0.1704 -0.2646
34385POPC   GL258603  17.038  31.273   7.651 -0.2655 -0.1902 -0.3883
34385POPC   C1A58604  17.379  31.390   7.086  0.1052  0.0686 -0.2153
34385POPC   D2A58605  17.334  31.403   6.613  0.0829  0.0530 -0.0631
34385POPC   C3A58606  17.501  31.068   6.380  0.0009  0.0601  0.0832
34385POPC   C4A58607  17.818  31.101   6.094 -0.2060  0.3568  0.1306
34385POPC   C1B58608  16.945  31.574   7.277 -0.0191  0.1160 -0.1361
34385POPC   C2B58609  16.992  31.725   6.847 -0.2030  0.0737 -0.2223
34385POPC   C3B58610  17.030  31.700   6.404  0.1674 -0.1756  0.0427
34385POPC   C4B58611  17.369  31.474   6.094  0.0435 -0.5199  0.3948
34386POPC   NC358612   3.392  24.213   9.435  0.1346  0.1991 -0.2136
34386POPC   PO458613   3.307  23.815   9.469 -0.0133 -0.2197 -0.0316
34386POPC   GL158614   3.479  23.804   9.166  0.1013  0.0177 -0.2170
34386POPC   GL258615   3.287  23.638   8.972 -0.0213 -0.3762 -0.1401
34386POPC   C1A58616   3.714  23.871   8.792  0.2730 -0.0442  0.1879
34386POPC   D2A58617   3.818  23.987   8.356  0.0567  0.0551  0.1073
34386POPC   C3A58618   3.536  24.278   8.056 -0.1916  0.2970  0.0805
34386POPC   C4A58619   3.350  24.396   7.685 -0.1671 -0.1868 -0.1290
34386POPC   C1B58620   3.562  23.399   8.652  0.2371 -0.2539  0.0002
34386POPC   C2B58621   3.792  23.484   8.246  0.2162  0.1041  0.3444
34386POPC   C3B58622   3.811  23.754   7.857 -0.1028 -0.1437 -0.1585
34386POPC   C4B58623   4.041  24.066   7.666 -0.0582 -0.1153 -0.0550
34387POPC   NC358624   2.915  18.498   9.131 -0.2392  0.1893 -0.1795
34387POPC   PO458625   2.630  18.745   9.035 -0.1680 -0.0229  0.1696
34387POPC   GL158626   2.722  18.570   8.695  0.0344 -0.3126  0.1085
34387POPC   GL258627   3.037  18.706   8.683 -0.1107  0.1020  0.1017
34387POPC   C1A58628   2.604  18.432   8.273  0.2381  0.0447  0.0812
34387POPC   D2A58629   2.671  18.437   7.796  0.1058 -0.0271 -0.0990
34387POPC   C3A58630   2.776  18.140   7.503  0.0192 -0.2655 -0.0436
34387POPC   C4A58631   2.642  17.925   7.111  0.1209 -0.0995 -0.1446
34387POPC   C1B58632   3.130  18.518   8.229  0.1062 -0.2913 -0.1868
34387POPC   C2B58633   3.307  18.441   7.776  0.1033 -0.0199  0.0623
34387POPC   C3B58634   3.170  18.512   7.298  0.1262  0.0737  0.0628
34387POPC   C4B58635   3.354  18.632   6.893  0.0228 -0.2861 -0.4609
34388POPC   NC358636   1.739  14.120   8.766 -0.2604 -0.3504 -0.1813
34388POPC   PO458637   1.794  14.332   8.384  0.0745 -0.0160 -0.0237
34388POPC   GL158638   1.776  14.572   8.016  0.0232  0.0743  0.1768
34388POPC   GL258639   1.983  14.803   8.099 -0.0595 -0.1010 -0.0753
34388POPC   C1A58640   1.631  14.700   7.608  0.1778  0.0351 -0.0569
34388POPC   D2A58641   1.408  14.834   7.243  0.1492  0.0748 -0.0409
34388POPC   C3A58642   1.511  14.718   6.810 -0.0010  0.0499  0.2745
34388POPC   C4A58643   1.543  14.718   6.325 -0.1442  0.1036 -0.1145
34388POPC   C1B58644   2.197  14.660   7.726 -0.1438  0.1900  0.1991
34388POPC   C2B58645   2.322  14.514   7.302  0.0186 -0.0827  0.0677
34388POPC   C3B58646   2.322  14.624   6.829 -0.2379  0.0440  0.3470
34388POPC   C4B58647   2.084  14.759   6.462  0.1386 -0.2756 -0.3002
34389POPC   NC358648   2.763  19.373   8.956 -0.0922  0.0163 -0.0653
34389POPC   PO458649   3.001  19.056   9.004 -0.1367 -0.1205  0.1673
34389POPC   GL158650   3.146  19.207   8.602  0.1696  0.2684 -0.0656
34389POPC   GL258651   3.410  19.365   8.633 -0.1441  0.0616  0.0418
34389POPC   C1A58652   3.149  19.042   8.147  0.0026 -0.0277  0.0435
34389POPC   D2A58653   3.537  18.956   7.839  0.3577 -0.0007  0.0247
34389POPC   C3A58654   3.578  18.952   7.350  0.0335  0.1719 -0.2069
34389POPC   C4A58655   3.742  19.129   6.956 -0.2023  0.1133  0.1773
34389POPC   C1B58656   3.601  19.314   8.212  0.4323 -0.1948  0.1355
34389POPC   C2B58657   3.808  19.363   7.779 -0.1305  0.1595 -0.2586
34389POPC   C3B58658   3.730  19.709   7.511 -0.1322 -0.1292  0.2199
34389POPC   C4B58659   3.786  20.185   7.423  0.1730 -0.0561  0.0506
34390POPC   NC358660   1.846  32.814   8.327 -0.0037 -0.1410 -0.0617
34390POPC   PO458661   1.902  33.104   8.082  0.0840  0.1388  0.2182
34390POPC   GL158662   2.075  33.084   7.775 -0.0188 -0.2281  0.1224
34390POPC   GL258663   1.965  33.086   7.508  0.0122 -0.1080 -0.0969
34390POPC   C1A58664   2.412  32.835   7.571 -0.1665  0.0287 -0.0770
34390POPC   D2A58665   2.744  32.764   7.214  0.0523 -0.0142 -0.1725
34390POPC   C3A58666   2.802  32.903   6.775 -0.2674 -0.3015  0.2816
34390POPC   C4A58667   2.955  33.010   6.298 -0.0193  0.1588  0.1542
34390POPC   C1B58668   2.093  33.059   7.037  0.0778  0.1405  0.1162
34390POPC   C2B58669   2.302  33.003   6.652 -0.1274  0.0186  0.3552
34390POPC   C3B58670   2.475  33.079   6.204 -0.3003 -0.1245 -0.1442
34390POPC   C4B58671   2.718  33.158   5.858  0.1112  0.1681  0.1705
34391POPC   NC358672  15.298  22.085  13.284 -0.0175 -0.1886 -0.1168
34391POPC   PO458673  15.166  22.133  13.685  0.0023  0.1646  0.2442
34391POPC   GL158674  14.752  22.202  13.789  0.0468  0.0563  0.5381
34391POPC   GL258675  14.501  22.037  13.756  0.0099  0.1592  0.0685
34391POPC   C1A58676  14.434  22.481  13.658 -0.1680  0.0876  0.4674
34391POPC   D2A58677  14.146  22.812  13.681 -0.0369  0.0140 -0.0046
34391POPC   C3A58678  13.822  22.794  13.954 -0.0455  0.1369  0.1784
34391POPC   C4A58679  13.636  22.378  14.059 -0.0250  0.2195  0.1139
34391POPC   C1B58680  14.159  22.301  14.038  0.1790 -0.1113 -0.2167
34391POPC   C2B58681  13.941  22.174  14.383  0.2202 -0.2504 -0.1631
34391POPC   C3B58682  13.698  22.050  14.807 -0.2193  0.1237  0.3252
34391POPC   C4B58683  13.550  21.750  15.125  0.0501 -0.1193 -0.1272
34392POPC   NC358684   0.585  23.796   9.160 -0.1792  0.1699  0.2810
34392POPC   PO458685   0.957  23.773   9.286 -0.1038 -0.0920  0.1454
34392POPC   GL158686   0.912  23.724   8.868  0.3652  0.1730  0.0356
34392POPC   GL258687   1.057  23.463   8.967  0.2936  0.1680  0.2560
34392POPC   C1A58688   0.474  23.536   8.638  0.4600 -0.0470  0.2010
34392POPC   D2A58689   0.198  23.376   8.299  0.1021 -0.0036 -0.0547
34392POPC   C3A58690   0.489  23.533   7.938  0.0070 -0.3814  0.0899
34392POPC   C4A58691   0.767  23.916   7.933 -0.2701  0.0263 -0.0054
34392POPC   C1B58692   0.900  23.138   8.706  0.0988  0.0491  0.3340
34392POPC   C2B58693   0.791  22.968   8.287 -0.2066  0.1015 -0.2299
34392POPC   C3B58694   0.831  22.874   7.852  0.3772 -0.1277  0.0366
34392POPC   C4B58695   0.988  22.788   7.434 -0.3382  0.1234  0.2201
34393POPC   NC358696  11.452  29.039   9.409  0.2016  0.2291  0.1065
34393POPC   PO458697  11.601  28.817   9.710  0.3029  0.1437  0.0678
34393POPC   GL158698  11.679  28.514   9.475  0.0645  0.1027 -0.1768
34393POPC   GL258699  11.950  28.484   9.363  0.0910 -0.0212  0.0166
34393POPC   C1A58700  11.481  28.421   9.103  0.0183 -0.0645  0.1910
34393POPC   D2A58701  11.544  28.302   8.584 -0.3780 -0.0479  0.2039
34393POPC   C3A58702  11.552  28.002   8.195  0.1775 -0.2558 -0.2196
34393POPC   C4A58703  11.450  27.943   7.747  0.2769  0.1226  0.3417
34393POPC   C1B58704  12.033  28.081   9.171  0.0016  0.4009  0.3382
34393POPC   C2B58705  11.776  27.929   8.852 -0.1610  0.0908  0.3971
34393POPC   C3B58706  11.702  27.546   8.509 -0.1315 -0.1598  0.3407
34393POPC   C4B58707  11.634  27.525   8.021  0.0534  0.1057  0.1351
34394POPC   NC358708   5.230  17.186   9.703 -0.1499 -0.0554  0.1213
34394POPC   PO458709   5.160  17.120   9.312 -0.1373  0.3918 -0.1116
34394POPC   GL158710   5.125  17.178   8.967 -0.1909 -0.0510  0.4865
34394POPC   GL258711   4.928  17.139   8.842 -0.0628 -0.2466  0.0320
34394POPC   C1A58712   5.219  17.603   8.772  0.0903  0.0961 -0.0128
34394POPC   D2A58713   5.130  17.827   8.464 -0.0066 -0.0979  0.0365
34394POPC   C3A58714   5.501  17.950   8.249 -0.0230 -0.0427 -0.4190
34394POPC   C4A58715   5.806  18.283   8.093  0.1562 -0.1053  0.1872
34394POPC   C1B58716   4.716  17.367   8.414 -0.2370 -0.2241 -0.1393
34394POPC   C2B58717   4.789  17.679   8.106  0.2436 -0.2733  0.0242
34394POPC   C3B58718   5.005  18.028   7.929  0.4728 -0.0010  0.0803
34394POPC   C4B58719   5.338  18.407   8.010  0.4269  0.0461 -0.0263
34395POPC   NC358720  16.185  17.128   8.446 -0.1665 -0.0016 -0.1271
34395POPC   PO458721  15.920  17.415   8.431  0.3235  0.1920 -0.0665
34395POPC   GL158722  15.860  17.818   8.335 -0.0540 -0.1475 -0.4064
34395POPC   GL258723  15.609  17.716   8.154  0.2967 -0.1134  0.2310
34395POPC   C1A58724  15.967  17.964   7.915  0.0325  0.1795 -0.0083
34395POPC   D2A58725  16.120  18.288   7.626 -0.3357  0.1645  0.0313
34395POPC   C3A58726  15.877  18.584   7.387 -0.3591  0.1035  0.2308
34395POPC   C4A58727  15.895  18.706   6.901  0.4884  0.0943 -0.0678
34395POPC   C1B58728  15.313  17.880   7.843  0.0038  0.0551 -0.2681
34395POPC   C2B58729  14.878  17.891   7.797  0.1585 -0.2088 -0.0156
34395POPC   C3B58730  14.616  17.827   7.408 -0.0135  0.1660  0.3514
34395POPC   C4B58731  14.422  17.750   6.995  0.0657 -0.1531 -0.2127
34396POPC   NC358732   3.287  25.151   9.215  0.0654 -0.0066  0.2104
34396POPC   PO458733   3.291  24.904   9.494  0.1554  0.0414 -0.0085
34396POPC   GL158734   3.084  24.722   9.207 -0.1247  0.0190 -0.4052
34396POPC   GL258735   3.316  24.619   9.051 -0.1178 -0.0302 -0.4070
34396POPC   C1A58736   2.912  24.775   8.734 -0.1310 -0.3106  0.1286
34396POPC   D2A58737   2.677  24.744   8.318 -0.1295  0.0422 -0.2140
34396POPC   C3A58738   2.597  24.419   7.983 -0.0955 -0.0054  0.0657
34396POPC   C4A58739   2.559  24.443   7.543  0.0927  0.2571  0.0198
34396POPC   C1B58740   3.394  24.904   8.750  0.0857 -0.4352  0.2635
34396POPC   C2B58741   3.285  24.690   8.323  0.1828  0.1450  0.1033
34396POPC   C3B58742   3.007  24.696   7.964 -0.1051  0.0670  0.0316
34396POPC   C4B58743   3.013  24.676   7.496 -0.1217 -0.0358 -0.4689
34397POPC   NC358744  15.650  31.987   8.224  0.2530  0.0299 -0.3433
34397POPC   PO458745  15.732  31.638   8.382  0.0329 -0.0843  0.0511
34397POPC   GL158746  15.823  31.604   7.959  0.5332 -0.1743 -0.2799
34397POPC   GL258747  15.513  31.424   7.880  0.0191  0.0497  0.1093
34397POPC   C1A58748  16.004  31.612   7.522  0.0057  0.1001  0.1606
34397POPC   D2A58749  15.814  31.638   7.127  0.1460 -0.0752  0.3153
34397POPC   C3A58750  15.549  31.818   6.819  0.2008 -0.1577  0.0561
34397POPC   C4A58751  15.117  32.075   6.801 -0.0364  0.2589 -0.1560
34397POPC   C1B58752  15.478  31.472   7.445  0.1565  0.1208 -0.0354
34397POPC   C2B58753  15.333  31.417   6.987  0.0096  0.1125 -0.3656
34397POPC   C3B58754  15.159  31.580   6.607  0.0854 -0.1953  0.0993
34397POPC   C4B58755  15.314  31.795   6.234 -0.0748 -0.0209 -0.2065
34398POPC   NC358756   2.582  24.558   9.214  0.1524  0.0057  0.3424
34398POPC   PO458757   2.884  24.299   9.270 -0.1148 -0.0842  0.2032
34398POPC   GL158758   2.981  24.366   8.887  0.2866  0.3106  0.2648
34398POPC   GL258759   3.234  24.137   8.919 -0.4377  0.0839  0.0152
34398POPC   C1A58760   2.938  24.299   8.413 -0.0605 -0.0137  0.0202
34398POPC   D2A58761   2.948  24.102   7.976  0.0436 -0.0110 -0.1925
34398POPC   C3A58762   2.837  23.683   7.749  0.0292 -0.0999 -0.2620
34398POPC   C4A58763   2.895  23.290   7.498 -0.0290  0.0604  0.3933
34398POPC   C1B58764   3.502  24.278   8.593  0.1344 -0.2446  0.0240
34398POPC   C2B58765   3.801  24.628   8.367  0.0528  0.0756 -0.1864
34398POPC   C3B58766   4.006  24.460   7.953 -0.1473 -0.2001 -0.1903
34398POPC   C4B58767   3.855  24.501   7.520  0.0953 -0.0260 -0.1879
34399POPC   NC358768  14.859  24.588  11.898  0.2530  0.1035 -0.0764
34399POPC   PO458769  14.465  24.647  11.733 -0.4627  0.2970 -0.0734
34399POPC   GL158770  14.159  24.256  11.784 -0.0010  0.0155 -0.4254
34399POPC   GL258771  14.234  24.094  11.512 -0.2130 -0.1352  0.0053
34399POPC   C1A58772  13.765  24.310  11.519  0.2841  0.0945 -0.3951
34399POPC   D2A58773  13.351  24.419  11.413 -0.1340 -0.0762  0.1696
34399POPC   C3A58774  13.003  24.448  11.772 -0.0824 -0.2577  0.1063
34399POPC   C4A58775  12.986  24.057  12.025 -0.0293 -0.3029  0.3271
34399POPC   C1B58776  14.072  23.690  11.278 -0.0987  0.1727  0.0570
34399POPC   C2B58777  13.763  23.332  11.217  0.1297 -0.1269 -0.2104
34399POPC   C3B58778  13.661  22.853  11.142  0.0702  0.1468  0.2589
34399POPC   C4B58779  13.484  22.491  11.073 -0.0705 -0.0207  0.1711
34400POPC   NC358780   5.568  19.750  11.671 -0.2587 -0.0039  0.2946
34400POPC   PO458781   5.464  19.623  12.029  0.2103  0.0209 -0.4188
34400POPC   GL158782   5.828  19.756  12.161 -0.1761 -0.1461 -0.1678
34400POPC   GL258783   6.018  19.723  11.876 -0.1101 -0.1613  0.1496
34400POPC   C1A58784   6.098  20.172  12.212  0.1229  0.0209  0.3013
34400POPC   D2A58785   6.368  20.470  12.324  0.3289  0.1229 -0.1591
34400POPC   C3A58786   6.653  20.721  12.117 -0.0903 -0.3245 -0.0197
34400POPC   C4A58787   7.014  20.873  11.918  0.0554 -0.0177  0.1052
34400POPC   C1B58788   6.431  19.994  11.834 -0.0481 -0.1778  0.1926
34400POPC   C2B58789   6.901  20.165  11.864 -0.1750  0.0474  0.0046
34400POPC   C3B58790   7.292  20.103  12.125 -0.0285  0.1655 -0.1588
34400POPC   C4B58791   7.695  20.197  12.366 -0.1209 -0.2563  0.1456
34401POPC   NC358792   4.097  23.134  10.360  0.0616  0.1489 -0.0732
34401POPC   PO458793   4.313  23.082  10.690  0.1436  0.2635 -0.0701
34401POPC   GL158794   4.549  22.893  10.422 -0.1368  0.2605  0.0058
34401POPC   GL258795   4.523  23.090  10.096 -0.2753  0.0760  0.0387
34401POPC   C1A58796   4.869  22.706  10.154 -0.1982  0.1866 -0.1500
34401POPC   D2A58797   5.138  22.424   9.997 -0.1603 -0.1448  0.1609
34401POPC   C3A58798   5.195  22.505   9.518  0.1590  0.2598 -0.4555
34401POPC   C4A58799   5.164  22.621   9.107  0.1938  0.1302 -0.0613
34401POPC   C1B58800   5.003  23.225  10.047 -0.0645  0.2406 -0.1595
34401POPC   C2B58801   5.409  23.246   9.856 -0.0637 -0.0689 -0.1398
34401POPC   C3B58802   5.832  23.346   9.799  0.1136  0.0436  0.0009
34401POPC   C4B58803   6.130  23.609   9.584  0.1275  0.3036  0.1529
34402POPC   NC358804   9.070  17.449  11.732 -0.0205 -0.1393 -0.1846
34402POPC   PO458805   9.208  17.771  11.502  0.1599 -0.0116 -0.1044
34402POPC   GL158806   9.298  18.110  11.378 -0.1266 -0.0541  0.0756
34402POPC   GL258807   9.302  18.202  11.067  0.2552  0.3861 -0.0323
34402POPC   C1A58808   9.296  18.588  11.365  0.3104 -0.1739 -0.0858
34402POPC   D2A58809   9.294  19.076  11.246  0.1140  0.2070 -0.1225
34402POPC   C3A58810   9.162  19.527  11.278 -0.2264 -0.1103  0.2737
34402POPC   C4A58811   9.267  19.976  11.473 -0.1164 -0.4507  0.2644
34402POPC   C1B58812   9.407  18.590  10.849  0.1710  0.1774 -0.0406
34402POPC   C2B58813   9.536  18.978  10.749  0.1884  0.0917  0.3824
34402POPC   C3B58814   9.689  19.400  10.596  0.0242 -0.1151  0.2512
34402POPC   C4B58815   9.810  19.762  10.807  0.0646 -0.1731  0.1512
34403POPC   NC358816  11.805  27.715  10.504 -0.1163 -0.3761 -0.3487
34403POPC   PO458817  12.112  27.855  10.305  0.0808 -0.1603  0.3529
34403POPC   GL158818  12.035  27.501  10.087  0.1957  0.1727  0.1876
34403POPC   GL258819  11.974  27.269  10.224  0.6281  0.1092 -0.2610
34403POPC   C1A58820  11.644  27.448   9.786 -0.2056  0.1104 -0.3972
34403POPC   D2A58821  11.397  27.285   9.448  0.1206 -0.0254 -0.2858
34403POPC   C3A58822  11.154  27.052   9.122 -0.2372 -0.0236 -0.1344
34403POPC   C4A58823  11.141  26.763   8.800 -0.3357 -0.2697 -0.1280
34403POPC   C1B58824  11.816  26.933  10.037  0.2561  0.2093 -0.0205
34403POPC   C2B58825  11.726  26.801   9.628  0.2682 -0.0019 -0.2372
34403POPC   C3B58826  11.665  26.538   9.297  0.0835 -0.0446 -0.0020
34403POPC   C4B58827  11.523  26.313   8.914  0.4039  0.2085  0.1623
34404POPC   NC358828  15.318  19.525   9.076  0.0219  0.2078  0.1026
34404POPC   PO458829  15.340  19.142   9.111 -0.0135 -0.1849  0.1173
34404POPC   GL158830  15.098  18.942   8.912 -0.3153  0.0286  0.0058
34404POPC   GL258831  14.807  19.055   9.034  0.0132 -0.0667  0.1574
34404POPC   C1A58832  14.855  18.925   8.531 -0.1655 -0.1298  0.0029
34404POPC   D2A58833  14.699  19.216   8.286 -0.2894  0.0275 -0.0589
34404POPC   C3A58834  14.421  19.278   8.680 -0.0209 -0.1394  0.0772
34404POPC   C4A58835  14.380  19.171   9.161 -0.1626  0.3761  0.1050
34404POPC   C1B58836  14.848  19.470   8.823  0.2180 -0.2717 -0.4016
34404POPC   C2B58837  14.994  19.634   8.478  0.0303  0.3137 -0.0320
34404POPC   C3B58838  14.966  19.833   8.063  0.1901  0.1078 -0.1755
34404POPC   C4B58839  14.880  19.957   7.670  0.0702  0.0969 -0.3372
34405POPC   NC358840   7.744  27.778  11.488 -0.2249 -0.2286 -0.0340
34405POPC   PO458841   7.623  27.461  11.316  0.2456  0.0270  0.0131
34405POPC   GL158842   7.754  27.137  11.119 -0.1087 -0.1078  0.2797
34405POPC   GL258843   7.925  27.138  10.927 -0.0086  0.1577  0.0667
34405POPC   C1A58844   7.571  26.801  10.856  0.0792 -0.2119 -0.0042
34405POPC   D2A58845   7.720  26.388  10.745  0.5074  0.0387  0.1385
34405POPC   C3A58846   7.933  26.001  10.633 -0.4758 -0.0217 -0.0155
34405POPC   C4A58847   8.213  25.664  10.493 -0.3127 -0.3271 -0.0677
34405POPC   C1B58848   8.037  26.750  10.670  0.2564 -0.0337 -0.0056
34405POPC   C2B58849   8.123  26.430  10.409 -0.5182 -0.0259 -0.1630
34405POPC   C3B58850   8.354  26.073  10.296  0.1330 -0.0929 -0.0990
34405POPC   C4B58851   8.785  26.042  10.254  0.0147 -0.1200 -0.0567
34406POPC   NC358852   9.073  29.161   9.577 -0.2443  0.4247 -0.2897
34406POPC   PO458853   8.741  29.267   9.385 -0.0037  0.0036 -0.1444
34406POPC   GL158854   8.999  29.194   9.095 -0.0511 -0.0335  0.3746
34406POPC   GL258855   8.759  29.109   8.907  0.1393  0.0116  0.4492
34406POPC   C1A58856   9.150  28.849   8.826 -0.0713 -0.1219  0.0535
34406POPC   D2A58857   9.352  28.501   8.551 -0.1329 -0.6732  0.1177
34406POPC   C3A58858   9.792  28.612   8.393  0.3039  0.0948 -0.0425
34406POPC   C4A58859  10.096  28.631   8.029 -0.0175  0.2480 -0.0271
34406POPC   C1B58860   8.706  28.973   8.473  0.0421  0.1719  0.3273
34406POPC   C2B58861   8.397  28.819   8.143  0.1974 -0.3194  0.2276
34406POPC   C3B58862   8.403  28.667   7.702 -0.2545  0.0437  0.0868
34406POPC   C4B58863   8.404  28.592   7.254 -0.0857 -0.1610  0.0072
34407POPC   NC358864   5.068  27.581   8.724 -0.1768  0.0158 -0.0289
34407POPC   PO458865   4.802  27.839   8.714  0.0055 -0.3049 -0.2210
34407POPC   GL158866   4.805  27.629   8.373  0.2351  0.1303 -0.0124
34407POPC   GL258867   5.023  27.657   8.194  0.1384  0.1057  0.1680
34407POPC   C1A58868   4.853  27.219   8.184  0.3397  0.2327  0.0122
34407POPC   D2A58869   4.747  27.032   7.775 -0.4341  0.4174  0.0381
34407POPC   C3A58870   4.703  27.129   7.345 -0.2335 -0.0209  0.0913
34407POPC   C4A58871   4.669  27.521   7.124  0.2890  0.0260  0.0531
34407POPC   C1B58872   5.204  27.307   7.864 -0.1144 -0.1469  0.3136
34407POPC   C2B58873   5.242  27.167   7.497  0.0420 -0.0399  0.3713
34407POPC   C3B58874   5.180  27.126   7.037  0.2749  0.2992 -0.0136
34407POPC   C4B58875   5.038  26.866   6.702  0.1720  0.1222  0.0556
34408POPC   NC358876   4.992  22.883  11.676  0.2027  0.1135  0.2723
34408POPC   PO458877   4.750  22.943  11.368 -0.0201  0.1172 -0.0572
34408POPC   GL158878   5.030  22.702  11.162 -0.0340 -0.0802  0.4474
34408POPC   GL258879   5.042  22.970  10.970 -0.0779  0.0869  0.1319
34408POPC   C1A58880   5.460  22.626  10.978  0.2234 -0.0230  0.2908
34408POPC   D2A58881   5.964  22.667  10.978 -0.0460 -0.1502 -0.1480
34408POPC   C3A58882   6.134  22.920  10.612  0.2556  0.0576 -0.3312
34408POPC   C4A58883   6.448  23.114  10.343  0.1565 -0.3536  0.2317
34408POPC   C1B58884   5.185  22.974  10.552  0.1179 -0.1616 -0.0454
34408POPC   C2B58885   5.375  22.892  10.144 -0.2173  0.0813  0.1528
34408POPC   C3B58886   5.724  22.852   9.854  0.0099 -0.1655 -0.4424
34408POPC   C4B58887   6.098  22.707   9.672 -0.2268  0.1347  0.3427
34409POPC   NC358888  13.556  25.534  13.890 -0.0593  0.0647  0.1441
34409POPC   PO458889  13.351  25.365  13.646 -0.2762  0.0144 -0.2872
34409POPC   GL158890  12.995  25.206  13.529  0.1693  0.0261  0.0674
34409POPC   GL258891  12.734  25.134  13.384  0.0183  0.2857  0.1974
34409POPC   C1A58892  12.738  24.902  13.821  0.0986  0.0178  0.1812
34409POPC   D2A58893  12.280  24.778  13.933 -0.1889  0.0022 -0.1572
34409POPC   C3A58894  11.882  24.479  13.978  0.0108 -0.0192 -0.0261
34409POPC   C4A58895  11.709  24.120  14.174 -0.3127 -0.1197 -0.0697
34409POPC   C1B58896  12.319  24.965  13.448  0.0524 -0.1588 -0.0014
34409POPC   C2B58897  11.902  24.816  13.450  0.3295  0.0606  0.0069
34409POPC   C3B58898  11.562  24.635  13.611 -0.0990 -0.1200 -0.1063
34409POPC   C4B58899  11.115  24.795  13.594  0.1443  0.1161  0.1536
34410POPC   NC358900   2.256  22.981   9.325 -0.0041  0.2066 -0.1316
34410POPC   PO458901   2.113  23.374   9.279 -0.2214 -0.1993 -0.1252
34410POPC   GL158902   2.247  23.275   8.946 -0.1344  0.2215  0.2499
34410POPC   GL258903   2.134  23.079   8.765  0.1725 -0.1633  0.0395
34410POPC   C1A58904   2.458  23.429   8.553 -0.0633 -0.2350 -0.3403
34410POPC   D2A58905   2.681  23.707   8.238  0.0492 -0.1063 -0.0519
34410POPC   C3A58906   3.095  23.460   8.119 -0.1897 -0.0781  0.2200
34410POPC   C4A58907   3.418  23.337   7.826  0.2665  0.5092  0.0052
34410POPC   C1B58908   2.277  23.030   8.290  0.0896  0.3513 -0.0883
34410POPC   C2B58909   2.237  22.703   7.945  0.1303 -0.2106  0.2028
34410POPC   C3B58910   2.317  22.366   7.651  0.1838  0.0913 -0.0420
34410POPC   C4B58911   2.221  21.950   7.368  0.0799 -0.0580 -0.1295
34411POPC   NC358912  12.177  16.581  14.796 -0.3976  0.0813  0.0364
34411POPC   PO458913  12.255  16.885  14.997  0.1513 -0.0525 -0.1609
34411POPC   GL158914  12.181  17.153  15.185 -0.1710 -0.0698 -0.2640
34411POPC   GL258915  11.903  17.045  15.330 -0.1206  0.0632 -0.0240
34411POPC   C1A58916  11.977  17.549  15.378  0.1659  0.1339  0.2244
34411POPC   D2A58917  11.667  17.813  15.612 -0.0598  0.1237  0.3295
34411POPC   C3A58918  11.389  18.086  15.837  0.3750 -0.2964  0.2288
34411POPC   C4A58919  11.057  18.265  16.086  0.1036 -0.0379  0.3222
34411POPC   C1B58920  11.614  17.269  15.567 -0.0276  0.2591  0.1787
34411POPC   C2B58921  11.557  17.425  16.009  0.2679  0.0136  0.1928
34411POPC   C3B58922  11.265  17.278  16.329 -0.0790  0.1217 -0.0010
34411POPC   C4B58923  11.207  16.905  16.607  0.0714 -0.0895 -0.0091
34412POPC   NC358924   5.096  18.635  14.904 -0.0320 -0.2639  0.1766
34412POPC   PO458925   4.959  18.260  14.928  0.1724 -0.0908 -0.3514
34412POPC   GL158926   5.218  18.233  15.183  0.2277  0.1123  0.1352
34412POPC   GL258927   5.224  18.040  15.390  0.0036 -0.1024 -0.0625
34412POPC   C1A58928   5.634  18.299  15.442 -0.2742  0.1353 -0.2792
34412POPC   D2A58929   5.974  18.383  15.748  0.2048  0.2730  0.0861
34412POPC   C3A58930   6.032  18.679  16.121  0.0007 -0.1534  0.1180
34412POPC   C4A58931   6.068  18.915  16.491 -0.1070  0.3332 -0.0122
34412POPC   C1B58932   5.243  18.493  15.568 -0.1439 -0.1296  0.0364
34412POPC   C2B58933   5.397  18.760  15.898  0.0187 -0.2606  0.3194
34412POPC   C3B58934   5.735  19.040  16.022  0.2140  0.2345  0.0788
34412POPC   C4B58935   5.854  19.427  16.339 -0.1918 -0.2853  0.3197
34413POPC   NC358936  16.587  19.972   8.729 -0.0772  0.0337 -0.2544
34413POPC   PO458937  16.499  19.609   8.801 -0.1270  0.0971 -0.0571
34413POPC   GL158938  16.605  19.480   8.425  0.4397  0.0847  0.0976
34413POPC   GL258939  16.407  19.609   8.279 -0.0849 -0.2046 -0.1775
34413POPC   C1A58940  16.815  19.879   8.288 -0.3840  0.0195  0.2156
34413POPC   D2A58941  16.838  20.319   8.387  0.0690 -0.1708 -0.1504
34413POPC   C3A58942  17.073  20.636   8.231 -0.0679 -0.2300 -0.1490
34413POPC   C4A58943  17.018  21.000   7.926  0.1068 -0.2456 -0.0547
34413POPC   C1B58944  16.183  19.576   7.849 -0.1676  0.1915 -0.0536
34413POPC   C2B58945  15.928  19.680   7.451 -0.2014  0.0495  0.0081
34413POPC   C3B58946  15.879  19.424   7.098 -0.0190 -0.4476  0.2166
34413POPC   C4B58947  15.550  19.141   6.934  0.0521 -0.0026 -0.0181
34414POPC   NC358948   5.094  19.825  10.129 -0.2587  0.1371  0.1292
34414POPC   PO458949   4.814  20.065  10.225  0.3548 -0.0091  0.0021
34414POPC   GL158950   4.766  20.331   9.886  0.0789 -0.3871  0.0228
34414POPC   GL258951   4.471  20.327   9.789 -0.0562 -0.0182 -0.0645
34414POPC   C1A58952   4.997  20.423   9.507  0.0031  0.1184 -0.1789
34414POPC   D2A58953   5.421  20.517   9.423  0.1264 -0.0058 -0.0730
34414POPC   C3A58954   5.734  20.393   9.138 -0.2521 -0.2017  0.1936
34414POPC   C4A58955   5.774  20.414   8.672  0.0710  0.1803 -0.0172
34414POPC   C1B58956   4.681  20.033   9.516  0.0290 -0.1974 -0.0327
34414POPC   C2B58957   4.885  19.894   9.150  0.0514  0.1117 -0.1397
34414POPC   C3B58958   5.189  19.686   8.906  0.1310  0.0118  0.3052
34414POPC   C4B58959   5.567  19.441   8.694 -0.2106 -0.0897  0.0624
34415POPC   NC358960   6.899  28.206   9.499 -0.2396 -0.3643  0.3061
34415POPC   PO458961   6.929  27.866   9.303  0.2281 -0.1661  0.1682
34415POPC   GL158962   7.032  27.802   8.892  0.0828  0.0369 -0.3217
34415POPC   GL258963   6.998  27.496   8.954  0.1358 -0.1248 -0.1085
34415POPC   C1A58964   7.295  27.619   8.530 -0.1620 -0.4762  0.1864
34415POPC   D2A58965   7.478  27.484   8.126  0.0384 -0.0341 -0.0377
34415POPC   C3A58966   7.227  27.258   7.794  0.1318  0.0504 -0.2530
34415POPC   C4A58967   7.151  27.051   7.410  0.0374 -0.1256 -0.0094
34415POPC   C1B58968   7.238  27.091   8.864 -0.0197  0.0955 -0.0188
34415POPC   C2B58969   7.441  26.742   8.655 -0.0682  0.4024  0.1787
34415POPC   C3B58970   7.616  26.387   8.382 -0.1037 -0.1714 -0.0661
34415POPC   C4B58971   7.855  26.072   8.143 -0.1506 -0.2368  0.1316
34416POPC   NC358972   8.766  17.278  13.427 -0.2282  0.0975 -0.4344
34416POPC   PO458973   8.795  17.602  13.182 -0.0025 -0.0789  0.0130
34416POPC   GL158974   8.853  17.940  13.122 -0.3126  0.4488 -0.1577
34416POPC   GL258975   8.958  18.094  12.899  0.0772 -0.2048  0.2023
34416POPC   C1A58976   8.827  18.315  13.399  0.0892  0.0214 -0.0256
34416POPC   D2A58977   9.038  18.601  13.659 -0.1515  0.0705  0.0155
34416POPC   C3A58978   9.056  19.084  13.623  0.0032 -0.0210  0.0596
34416POPC   C4A58979   9.005  19.571  13.537  0.0385 -0.1248 -0.2435
34416POPC   C1B58980   8.964  18.536  12.956 -0.1340  0.0373  0.1255
34416POPC   C2B58981   9.039  18.951  12.836 -0.0620 -0.2580  0.1146
34416POPC   C3B58982   9.042  19.302  12.631 -0.3335  0.1867  0.1745
34416POPC   C4B58983   9.129  19.519  12.245  0.1049  0.0884 -0.0551
34417POPC   NC358984   3.077  32.764   8.503 -0.2046  0.0719  0.1958
34417POPC   PO458985   2.759  32.655   8.306  0.2292  0.1084  0.0869
34417POPC   GL158986   3.083  32.702   7.951  0.0233 -0.0721 -0.1451
34417POPC   GL258987   3.314  32.810   8.073 -0.0835 -0.0808  0.5080
34417POPC   C1A58988   2.879  32.975   7.668 -0.2264 -0.0785  0.1963
34417POPC   D2A58989   2.876  33.349   7.476  0.2252 -0.2863  0.1607
34417POPC   C3A58990   2.926  33.605   7.805 -0.0678 -0.0465 -0.1970
34417POPC   C4A58991   3.077  33.801   8.146  0.2904  0.1946 -0.0869
34417POPC   C1B58992   3.348  32.884   7.568 -0.0942  0.0387  0.2073
34417POPC   C2B58993   3.420  33.001   7.182 -0.1101 -0.2814 -0.2052
34417POPC   C3B58994   3.511  33.407   6.969 -0.2729 -0.0239  0.0132
34417POPC   C4B58995   3.667  33.797   7.146 -0.2435 -0.0720  0.3069
34418POPC   NC358996  10.198  18.033  11.065 -0.0062  0.3650 -0.1728
34418POPC   PO458997  10.206  17.989  11.424 -0.0674  0.2290  0.0640
34418POPC   GL158998  10.286  18.396  11.332 -0.0872  0.1030  0.3037
34418POPC   GL258999  10.496  18.413  11.146  0.0858  0.2193 -0.1110
34418POPC   C1A59000  10.539  18.818  11.357  0.1006  0.0617  0.1399
34418POPC   D2A59001  10.401  19.210  11.270  0.1690 -0.1780  0.1311
34418POPC   C3A59002  10.190  19.560  11.047 -0.0211  0.1466 -0.0755
34418POPC   C4A59003  10.176  20.039  11.012  0.0350 -0.1361 -0.0771
34418POPC   C1B59004  10.207  18.759  10.985  0.0380  0.1341 -0.0634
34418POPC   C2B59005  10.139  19.170  10.749 -0.2208 -0.1053  0.0631
34418POPC   C3B59006  10.211  19.540  10.474  0.0118 -0.4386 -0.1419
34418POPC   C4B59007  10.305  19.803  10.097  0.1885 -0.1656  0.1200
34419POPC   NC359008   0.997   0.021   7.892  0.0190 -0.1345  0.0014
34419POPC   PO459009   1.330  -0.069   8.149  0.2520 -0.1151  0.1497
34419POPC   GL159010   1.361  -0.067   7.701  0.2094 -0.1975  0.0966
34419POPC   GL259011   1.471   0.253   7.746 -0.1583  0.3963  0.1155
34419POPC   C1A59012   1.254   0.133   7.253 -0.1700  0.1761  0.1143
34419POPC   D2A59013   1.209   0.569   7.092 -0.0811  0.3256  0.0288
34419POPC   C3A59014   1.646   0.557   6.935 -0.5213  0.0487  0.1397
34419POPC   C4A59015   1.822   0.705   6.528  0.0140  0.1816  0.2066
34419POPC   C1B59016   1.652   0.625   7.474  0.2497 -0.0637 -0.1459
34419POPC   C2B59017   2.004   0.785   7.230 -0.4051 -0.3079 -0.0982
34419POPC   C3B59018   2.131   0.950   6.815  0.1831 -0.1778  0.1007
34419POPC   C4B59019   2.500   1.038   6.585 -0.1724 -0.0770  0.0209
34420POPC   NC359020   9.562  31.799   9.823  0.0493  0.3709 -0.1262
34420POPC   PO459021   9.764  32.091   9.566 -0.0825 -0.1593  0.2506
34420POPC   GL159022   9.813  32.301   9.231 -0.1511 -0.1896  0.4444
34420POPC   GL259023   9.801  32.573   9.359  0.1634 -0.1702 -0.1878
34420POPC   C1A59024   9.804  32.238   8.818 -0.3030 -0.0454  0.4136
34420POPC   D2A59025   9.911  32.284   8.385 -0.3587  0.2336 -0.1774
34420POPC   C3A59026   9.901  32.515   7.920  0.0314  0.4153 -0.0434
34420POPC   C4A59027   9.667  32.675   7.556 -0.2866  0.2946 -0.0726
34420POPC   C1B59028   9.883  32.719   8.940 -0.1465  0.0393  0.3775
34420POPC   C2B59029   9.847  32.759   8.464  0.2125  0.1094 -0.0148
34420POPC   C3B59030   9.733  33.002   8.090  0.0694 -0.0893  0.2202
34420POPC   C4B59031   9.547  33.357   7.795  0.1702 -0.1608  0.2509
34421POPC   NC359032   2.322  20.508   9.463 -0.1130  0.0009  0.0654
34421POPC   PO459033   2.088  20.441   9.212  0.3585 -0.1232  0.2407
34421POPC   GL159034   2.137  20.616   8.870  0.0549  0.1111 -0.1682
34421POPC   GL259035   2.105  20.432   8.658  0.0309  0.0355 -0.0591
34421POPC   C1A59036   2.279  21.001   8.628  0.0873 -0.1397  0.3170
34421POPC   D2A59037   2.549  21.049   8.243  0.2319 -0.2549 -0.0970
34421POPC   C3A59038   2.356  20.746   7.893  0.0082  0.1728  0.3637
34421POPC   C4A59039   2.111  20.460   7.543 -0.1214 -0.2583 -0.4393
34421POPC   C1B59040   2.313  20.281   8.176  0.1160 -0.2314 -0.4426
34421POPC   C2B59041   2.521  20.334   7.762 -0.3377  0.1458 -0.0796
34421POPC   C3B59042   2.849  20.242   7.444  0.0058 -0.1111 -0.2414
34421POPC   C4B59043   3.062  20.072   7.107 -0.0315 -0.0039  0.0482
34422POPC   NC359044   4.507  16.341  14.887 -0.3813  0.0503  0.0867
34422POPC   PO459045   4.546  16.302  15.255  0.0249  0.3547 -0.0271
34422POPC   GL159046   4.638  16.405  15.636  0.0602 -0.3251  0.1041
34422POPC   GL259047   4.377  16.529  15.847  0.1099 -0.1458  0.2746
34422POPC   C1A59048   4.844  16.777  15.918  0.3769 -0.1181  0.0441
34422POPC   D2A59049   5.180  17.109  15.993  0.1827  0.0244  0.0667
34422POPC   C3A59050   5.302  17.257  16.434 -0.1666  0.0011 -0.1952
34422POPC   C4A59051   5.350  17.581  16.814  0.1151 -0.1934  0.3162
34422POPC   C1B59052   4.395  16.744  16.295 -0.2082 -0.3549  0.0996
34422POPC   C2B59053   4.724  16.925  16.587  0.0746 -0.1515  0.0282
34422POPC   C3B59054   4.889  17.131  16.914 -0.1373 -0.0101  0.2088
34422POPC   C4B59055   5.104  17.212  17.330  0.2503 -0.0251  0.1492
34423POPC   NC359056   0.981  19.707  15.342 -0.1112  0.1456  0.0876
34423POPC   PO459057   0.867  19.608  15.719  0.1068 -0.0605  0.2216
34423POPC   GL159058   0.694  19.521  16.055  0.0534 -0.0145  0.0119
34423POPC   GL259059   0.747  19.339  16.324 -0.0776 -0.1122  0.2174
34423POPC   C1A59060   0.271  19.329  16.164 -0.0710 -0.1763  0.2238
34423POPC   D2A59061   0.074  18.925  16.216  0.2023 -0.1086 -0.0118
34423POPC   C3A59062   0.019  18.871  16.622 -0.1936  0.1077  0.1377
34423POPC   C4A59063   0.220  18.558  16.943 -0.1702  0.1155 -0.0492
34423POPC   C1B59064   0.900  19.391  16.739 -0.3127 -0.1347 -0.1607
34423POPC   C2B59065   0.948  19.356  17.204 -0.3369 -0.0142  0.0572
34423POPC   C3B59066   0.891  19.473  17.565  0.0204 -0.1709 -0.0261
34423POPC   C4B59067   0.867  19.769  17.954  0.1279  0.0954 -0.1822
34424POPC   NC359068   0.210  20.189   9.064 -0.0573  0.1241  0.4872
34424POPC   PO459069  -0.038  20.142   9.348 -0.1418 -0.0706  0.0116
34424POPC   GL159070  -0.186  19.922   8.992  0.0792  0.1061 -0.0997
34424POPC   GL259071  -0.257  20.136   8.868 -0.1226  0.0520 -0.1035
34424POPC   C1A59072  -0.466  19.666   8.720  0.2530 -0.4492 -0.0472
34424POPC   D2A59073  -0.657  19.483   8.375 -0.0500 -0.1551  0.1618
34424POPC   C3A59074  -0.870  19.501   7.959 -0.1248  0.0518  0.2160
34424POPC   C4A59075  -1.125  19.534   7.593  0.0523  0.1646 -0.1414
34424POPC   C1B59076  -0.270  20.346   8.534 -0.1960 -0.0977  0.3060
34424POPC   C2B59077  -0.307  20.601   8.122  0.0101 -0.1190 -0.2340
34424POPC   C3B59078  -0.341  20.731   7.682 -0.0855 -0.1034 -0.1003
34424POPC   C4B59079  -0.537  20.613   7.252 -0.2566  0.2245 -0.0260
34425POPC   NC359080   6.759  29.577   9.179 -0.0489 -0.0159 -0.0229
34425POPC   PO459081   6.817  29.851   8.922  0.1744  0.3170 -0.1092
34425POPC   GL159082   6.967  29.828   8.635  0.0365 -0.3101  0.0392
34425POPC   GL259083   6.960  30.069   8.452  0.1330  0.2632 -0.1588
34425POPC   C1A59084   6.884  29.514   8.345 -0.0335  0.1044 -0.1180
34425POPC   D2A59085   6.802  29.098   8.257  0.0790 -0.0262  0.2073
34425POPC   C3A59086   6.496  28.950   8.542  0.1323 -0.0436 -0.1564
34425POPC   C4A59087   6.180  28.605   8.598  0.0648 -0.0123  0.0417
34425POPC   C1B59088   7.084  29.984   8.031  0.0313 -0.0954 -0.1420
34425POPC   C2B59089   6.855  29.789   7.665 -0.1320 -0.1466 -0.0139
34425POPC   C3B59090   6.561  29.584   7.379  0.1110  0.0409 -0.1692
34425POPC   C4B59091   6.474  29.433   7.021  0.2183  0.0098  0.2424
34426POPC   NC359092  12.733  32.305   9.167  0.2217  0.0322  0.0096
34426POPC   PO459093  12.698  32.370   8.757  0.0813  0.0509  0.1309
34426POPC   GL159094  12.612  32.306   8.423  0.1080 -0.0830 -0.0497
34426POPC   GL259095  12.325  32.282   8.363 -0.0122 -0.1680  0.2005
34426POPC   C1A59096  12.569  32.694   8.157  0.0659  0.0323  0.2369
34426POPC   D2A59097  12.246  32.843   7.829  0.0631 -0.0958  0.0381
34426POPC   C3A59098  12.403  33.028   7.434 -0.0706 -0.1452 -0.1446
34426POPC   C4A59099  12.434  33.359   7.046  0.2331  0.1593 -0.1804
34426POPC   C1B59100  12.192  32.339   7.915  0.0353  0.1787 -0.0624
34426POPC   C2B59101  12.295  32.244   7.481 -0.0773 -0.2697 -0.0978
34426POPC   C3B59102  12.382  32.084   7.025 -0.1226  0.1151 -0.2127
34426POPC   C4B59103  12.680  31.778   6.897  0.1182 -0.0406  0.1461
34427POPC   NC359104   4.345  24.446  10.444 -0.0120  0.0718  0.2718
34427POPC   PO459105   4.120  24.514  10.143 -0.1726 -0.2507 -0.0520
34427POPC   GL159106   4.371  24.461   9.808  0.0226 -0.5532  0.1746
34427POPC   GL259107   4.657  24.413   9.917  0.0423  0.0954 -0.0847
34427POPC   C1A59108   4.611  23.990   9.623 -0.1211  0.2338 -0.2919
34427POPC   D2A59109   4.881  23.845   9.275  0.0454 -0.0216  0.1608
34427POPC   C3A59110   4.726  23.727   8.839  0.3916 -0.1211  0.1868
34427POPC   C4A59111   4.817  23.668   8.380 -0.2153 -0.1116 -0.0285
34427POPC   C1B59112   4.684  24.514   9.471 -0.3608  0.0450 -0.1552
34427POPC   C2B59113   4.578  24.220   9.116  0.1765  0.0784  0.0199
34427POPC   C3B59114   4.726  24.213   8.666 -0.1371 -0.1964  0.1790
34427POPC   C4B59115   4.955  24.119   8.245  0.0245  0.0566  0.0263
34428POPC   NC359116  14.934  24.139   9.683 -0.1186 -0.1671 -0.0745
34428POPC   PO459117  15.124  24.300   9.366  0.0691 -0.1826 -0.1064
34428POPC   GL159118  14.723  24.230   9.327  0.1815  0.2556 -0.3279
34428POPC   GL259119  14.719  24.426   9.089  0.0492  0.0121 -0.1722
34428POPC   C1A59120  14.358  23.918   9.267 -0.5690 -0.0733  0.3244
34428POPC   D2A59121  14.058  23.658   9.067 -0.0574  0.0245 -0.1481
34428POPC   C3A59122  14.135  23.433   8.671 -0.1593 -0.1256 -0.1245
34428POPC   C4A59123  14.433  23.149   8.421 -0.2828  0.0272  0.0946
34428POPC   C1B59124  14.492  24.352   8.678  0.1448 -0.0048  0.0236
34428POPC   C2B59125  14.307  24.200   8.314  0.5210 -0.0600  0.0172
34428POPC   C3B59126  14.438  24.154   7.886  0.0446 -0.2430  0.0189
34428POPC   C4B59127  14.329  23.724   7.679 -0.2238  0.1750 -0.0240
34429POPC   NC359128   2.130  28.823   7.938 -0.0011 -0.0003 -0.3241
34429POPC   PO459129   1.732  28.859   8.009  0.1661  0.1490 -0.3212
34429POPC   GL159130   1.628  28.786   7.705  0.1739  0.0034  0.3019
34429POPC   GL259131   1.382  28.726   7.588  0.3001 -0.3809 -0.0583
34429POPC   C1A59132   1.730  28.690   7.259  0.1271 -0.1425 -0.1804
34429POPC   D2A59133   1.525  28.611   6.896  0.1461 -0.0621  0.1168
34429POPC   C3A59134   1.707  28.451   6.568 -0.0456 -0.0457  0.1158
34429POPC   C4A59135   1.700  28.497   6.076 -0.0819 -0.2251 -0.0373
34429POPC   C1B59136   1.127  28.792   7.174 -0.0170 -0.0465  0.1278
34429POPC   C2B59137   0.844  29.005   6.891 -0.2966  0.0992 -0.1243
34429POPC   C3B59138   0.581  29.041   6.513 -0.0235  0.0472 -0.2446
34429POPC   C4B59139   0.698  29.028   6.067 -0.0557  0.1644 -0.1591
34430POPC   NC359140   8.969  17.924  10.282  0.1260  0.2259 -0.2052
34430POPC   PO459141   8.569  17.956  10.286 -0.1764 -0.0385  0.2674
34430POPC   GL159142   8.379  17.972   9.951 -0.3399 -0.2341 -0.0223
34430POPC   GL259143   8.135  18.006  10.019 -0.2728  0.2918 -0.1503
34430POPC   C1A59144   8.301  18.225   9.562 -0.0423 -0.0223  0.0500
34430POPC   D2A59145   8.349  18.313   9.120  0.0509  0.2513  0.0761
34430POPC   C3A59146   8.246  18.711   8.932 -0.1046 -0.1869 -0.3074
34430POPC   C4A59147   8.444  19.088   8.776 -0.1152  0.1863  0.3695
34430POPC   C1B59148   7.972  18.431  10.042 -0.0313 -0.2489 -0.3202
34430POPC   C2B59149   7.875  18.874  10.028 -0.0388 -0.0569  0.0933
34430POPC   C3B59150   7.900  19.248   9.765  0.2410  0.0016 -0.0174
34430POPC   C4B59151   7.714  19.174   9.318  0.1298 -0.2031  0.1244
34431POPC   NC359152  16.140  18.605   8.618  0.0435 -0.0039  0.2093
34431POPC   PO459153  16.014  18.231   8.537 -0.0592  0.2891 -0.0666
34431POPC   GL159154  16.072  18.469   8.121 -0.1362  0.2404 -0.0207
34431POPC   GL259155  16.330  18.494   8.038 -0.4826  0.0819  0.0943
34431POPC   C1A59156  15.807  18.718   7.868  0.2165  0.1732  0.1527
34431POPC   D2A59157  15.388  18.747   7.760 -0.0695 -0.0543 -0.3671
34431POPC   C3A59158  15.271  19.231   7.609 -0.0305  0.2075 -0.0592
34431POPC   C4A59159  15.088  19.602   7.436 -0.0367  0.1905  0.1277
34431POPC   C1B59160  16.377  18.715   7.611 -0.0372  0.0542  0.0005
34431POPC   C2B59161  16.596  18.957   7.266 -0.2390 -0.0658  0.0169
34431POPC   C3B59162  16.803  19.350   7.164  0.1433 -0.0452 -0.0001
34431POPC   C4B59163  16.773  19.645   6.854 -0.1044 -0.1498  0.2434
34432POPC   NC359164   3.962  18.840  14.886 -0.0354 -0.1922  0.3309
34432POPC   PO459165   4.249  19.018  14.688 -0.1407  0.0324 -0.1002
34432POPC   GL159166   4.454  19.081  15.010  0.6909  0.1035  0.0059
34432POPC   GL259167   4.359  18.897  15.189  0.2333  0.0994  0.2366
34432POPC   C1A59168   4.546  19.436  15.334  0.0909  0.2167 -0.1878
34432POPC   D2A59169   4.527  19.827  15.584  0.0960  0.1410  0.0002
34432POPC   C3A59170   4.658  20.209  15.866 -0.2145 -0.2983 -0.0767
34432POPC   C4A59171   4.550  20.331  16.324 -0.4660  0.2151  0.0925
34432POPC   C1B59172   4.329  19.082  15.643 -0.0231 -0.3211 -0.0771
34432POPC   C2B59173   4.634  19.234  15.956 -0.0685  0.1454 -0.3372
34432POPC   C3B59174   4.816  19.011  16.335  0.1124 -0.1686 -0.0340
34432POPC   C4B59175   4.536  18.748  16.668  0.2308  0.2744  0.0465
34433POPC   NC359176  32.561  22.462   9.688 -0.2819 -0.2704 -0.2257
34433POPC   PO459177  32.350  22.783   9.653  0.3784  0.0469 -0.0733
34433POPC   GL159178  32.277  22.576   9.336 -0.0584  0.3341 -0.3918
34433POPC   GL259179  32.534  22.482   9.182  0.1156  0.2369 -0.1021
34433POPC   C1A59180  32.115  22.516   8.924 -0.1589  0.1002  0.0979
34433POPC   D2A59181  31.850  22.275   8.645 -0.0107 -0.1878 -0.0041
34433POPC   C3A59182  31.621  22.177   8.259 -0.1198  0.1280 -0.0283
34433POPC   C4A59183  31.785  22.127   7.807  0.2579 -0.0386  0.1273
34433POPC   C1B59184  32.540  22.538   8.693  0.0378  0.1837  0.0547
34433POPC   C2B59185  32.415  22.539   8.276  0.1184  0.0118 -0.3353
34433POPC   C3B59186  32.241  22.670   7.900 -0.1564  0.0047  0.0106
34433POPC   C4B59187  32.389  22.700   7.427  0.0830  0.0109 -0.0768
34434POPC   NC359188  12.580  28.977   9.034 -0.0632 -0.0617 -0.0601
34434POPC   PO459189  12.948  29.071   9.139 -0.2959 -0.1371 -0.0730
34434POPC   GL159190  13.083  29.078   8.693  0.2339 -0.2208 -0.1331
34434POPC   GL259191  13.342  29.109   8.736  0.0995  0.2522 -0.0528
34434POPC   C1A59192  13.151  28.770   8.360 -0.0409 -0.1876 -0.0893
34434POPC   D2A59193  13.056  28.480   8.000 -0.3113 -0.1188  0.0560
34434POPC   C3A59194  12.717  28.531   7.717  0.0383  0.1237 -0.2018
34434POPC   C4A59195  12.283  28.459   7.516 -0.0346 -0.2977  0.2193
34434POPC   C1B59196  13.626  29.050   8.402  0.3360 -0.3233 -0.1355
34434POPC   C2B59197  13.495  28.786   8.038 -0.1727  0.1447  0.1153
34434POPC   C3B59198  13.219  28.767   7.677  0.1311 -0.1140  0.3214
34434POPC   C4B59199  13.120  28.640   7.265  0.4197  0.0417 -0.3532
34435POPC   NC359200  14.680  31.740   8.393 -0.2938 -0.0879  0.2322
34435POPC   PO459201  14.886  31.446   8.486 -0.1318  0.0535 -0.0552
34435POPC   GL159202  14.865  31.188   8.167  0.3369 -0.1608 -0.1342
34435POPC   GL259203  15.119  31.134   8.035  0.4491  0.2924  0.1182
34435POPC   C1A59204  14.745  30.976   7.753  0.2661 -0.1790  0.1602
34435POPC   D2A59205  14.527  30.846   7.375 -0.1743 -0.0132  0.1095
34435POPC   C3A59206  14.711  30.729   7.028  0.1851  0.0795  0.2249
34435POPC   C4A59207  14.936  30.454   6.796  0.2269  0.1371  0.0575
34435POPC   C1B59208  15.254  31.005   7.579  0.2329  0.2168 -0.3062
34435POPC   C2B59209  15.193  30.924   7.109 -0.2042 -0.1708 -0.1471
34435POPC   C3B59210  14.939  31.108   6.733 -0.1550 -0.0908 -0.3266
34435POPC   C4B59211  14.630  31.456   6.628 -0.1350 -0.2125  0.4553
34436POPC   NC359212   8.839  18.012  11.062  0.0512 -0.0704 -0.5192
34436POPC   PO459213   8.967  18.025  10.750 -0.0350  0.2522 -0.4557
34436POPC   GL159214   8.870  18.344  10.442  0.3066  0.2056  0.0042
34436POPC   GL259215   9.127  18.486  10.446 -0.1774  0.0695  0.4115
34436POPC   C1A59216   8.520  18.638  10.370 -0.1646  0.0743 -0.2244
34436POPC   D2A59217   8.345  18.869  10.052 -0.1959  0.0503 -0.1425
34436POPC   C3A59218   8.534  18.744   9.632 -0.0278  0.1193  0.0952
34436POPC   C4A59219   8.752  18.402   9.439 -0.1168 -0.2443  0.0719
34436POPC   C1B59220   9.203  18.935  10.335  0.2260  0.1310  0.2603
34436POPC   C2B59221   9.361  19.345  10.230 -0.0487 -0.1342 -0.0169
34436POPC   C3B59222   9.337  19.840  10.150 -0.2072  0.1791  0.0459
34436POPC   C4B59223   9.201  20.267  10.163  0.2599 -0.0028  0.0419
34437POPC   NC359224  10.225  30.643   8.544 -0.1746 -0.2498  0.2993
34437POPC   PO459225  10.458  30.689   8.885 -0.1623  0.5127  0.1899
34437POPC   GL159226  10.570  31.024   8.646 -0.0844  0.0119 -0.0267
34437POPC   GL259227  10.774  30.959   8.461 -0.2730  0.2692 -0.0581
34437POPC   C1A59228  10.517  31.302   8.224  0.1833 -0.2513  0.0174
34437POPC   D2A59229  10.414  31.552   7.843  0.2104  0.1434 -0.2412
34437POPC   C3A59230  10.113  31.512   7.502  0.0300 -0.1580  0.3144
34437POPC   C4A59231  10.111  31.167   7.191 -0.0329  0.0605  0.2643
34437POPC   C1B59232  10.687  30.841   7.974 -0.0768 -0.0670 -0.1383
34437POPC   C2B59233  10.589  30.704   7.484  0.1387  0.1540  0.0298
34437POPC   C3B59234  10.617  30.453   7.099 -0.0656 -0.1878  0.0438
34437POPC   C4B59235  10.899  30.271   6.766 -0.0004 -0.0609 -0.1224
34438POPC   NC359236  15.450  18.014   9.103  0.0416 -0.2647  0.1934
34438POPC   PO459237  15.267  18.367   9.101 -0.1627  0.0298 -0.0926
34438POPC   GL159238  15.221  18.421   8.733 -0.2883  0.3044  0.0879
34438POPC   GL259239  15.455  18.209   8.589  0.3015 -0.2320 -0.2818
34438POPC   C1A59240  15.201  18.643   8.309  0.1303 -0.1424 -0.1470
34438POPC   D2A59241  15.037  18.965   8.027  0.0397  0.0712  0.2905
34438POPC   C3A59242  14.920  18.875   7.618  0.1333  0.0055  0.3723
34438POPC   C4A59243  14.681  18.898   7.157  0.4655  0.0734  0.2726
34438POPC   C1B59244  15.508  18.297   8.136  0.1230  0.0567  0.2505
34438POPC   C2B59245  15.602  18.296   7.708  0.0246 -0.1126  0.0466
34438POPC   C3B59246  15.324  18.130   7.391 -0.1710 -0.0027 -0.0405
34438POPC   C4B59247  15.091  17.773   7.292  0.3696  0.0765 -0.1969
34439POPC   NC359248   2.674  30.410   7.733  0.0700  0.2914 -0.2073
34439POPC   PO459249   2.937  30.659   7.908 -0.1648  0.0283  0.2454
34439POPC   GL159250   3.025  30.568   7.472 -0.3554  0.0967  0.3043
34439POPC   GL259251   3.140  30.805   7.391 -0.0527  0.2192  0.1017
34439POPC   C1A59252   2.794  30.204   7.289 -0.0315 -0.1634  0.0127
34439POPC   D2A59253   2.945  29.804   7.181 -0.0407  0.0062 -0.2398
34439POPC   C3A59254   2.747  29.612   6.771 -0.0107 -0.0616  0.1025
34439POPC   C4A59255   2.777  29.546   6.315 -0.1668  0.0261  0.0458
34439POPC   C1B59256   3.227  30.685   6.956  0.1663 -0.0486 -0.1725
34439POPC   C2B59257   3.083  30.644   6.496 -0.2548 -0.0740  0.0381
34439POPC   C3B59258   2.788  30.536   6.186  0.1329 -0.0861 -0.1731
34439POPC   C4B59259   2.394  30.440   5.958  0.0629  0.0048  0.1487
34440POPC   NC359260  14.264  17.068   9.057  0.1969  0.0134  0.1777
34440POPC   PO459261  14.679  17.086   8.969  0.0273  0.1797 -0.0506
34440POPC   GL159262  14.514  17.375   8.751 -0.2489 -0.3693 -0.2136
34440POPC   GL259263  14.343  17.613   8.866  0.1533 -0.0010  0.0319
34440POPC   C1A59264  14.404  17.433   8.303 -0.0382 -0.3683  0.2633
34440POPC   D2A59265  14.364  17.653   7.870 -0.1089  0.0469  0.1947
34440POPC   C3A59266  14.124  17.636   7.483 -0.1374  0.1535  0.4574
34440POPC   C4A59267  13.960  17.995   7.185  0.0982 -0.1708 -0.0100
34440POPC   C1B59268  14.127  17.751   8.521  0.4094 -0.3085  0.2036
34440POPC   C2B59269  13.940  18.086   8.322  0.2845  0.1278 -0.0357
34440POPC   C3B59270  13.707  18.464   8.281  0.1394  0.0586  0.3733
34440POPC   C4B59271  13.594  18.768   7.944 -0.0806 -0.2740  0.2354
34441POPC   NC359272   5.075  22.042  12.852  0.0630 -0.0403 -0.0437
34441POPC   PO459273   5.299  21.929  12.522 -0.2023  0.0124  0.1938
34441POPC   GL159274   5.699  21.924  12.512 -0.0138 -0.0723 -0.4494
34441POPC   GL259275   5.858  21.681  12.659  0.1219  0.2416 -0.2850
34441POPC   C1A59276   6.056  22.011  12.297 -0.0157  0.4190  0.1456
34441POPC   D2A59277   6.444  21.835  12.149  0.0562  0.0577  0.2543
34441POPC   C3A59278   6.791  21.680  12.361  0.0167 -0.1704 -0.1464
34441POPC   C4A59279   7.221  21.471  12.536 -0.3238 -0.1528  0.0916
34441POPC   C1B59280   6.055  21.880  13.004 -0.0875  0.4596 -0.1777
34441POPC   C2B59281   6.426  22.120  13.145 -0.2260 -0.1636  0.0265
34441POPC   C3B59282   6.865  22.260  13.143 -0.1891  0.2691  0.1425
34441POPC   C4B59283   7.164  22.416  13.513  0.0593 -0.0268  0.2543
34442POPC   NC359284   3.184  27.546   8.277 -0.0419  0.1445  0.0676
34442POPC   PO459285   3.548  27.362   8.295 -0.1248  0.0161  0.2676
34442POPC   GL159286   3.612  27.327   8.002  0.0514 -0.2401 -0.0186
34442POPC   GL259287   3.500  27.062   7.890 -0.0313  0.2367 -0.0307
34442POPC   C1A59288   3.933  27.171   7.679 -0.2955 -0.3350 -0.0819
34442POPC   D2A59289   4.223  27.117   7.339 -0.1065 -0.3128  0.3247
34442POPC   C3A59290   4.129  27.439   6.997  0.2870  0.1817 -0.0803
34442POPC   C4A59291   3.993  27.489   6.596 -0.0510  0.0736  0.0796
34442POPC   C1B59292   3.569  26.903   7.466 -0.0273  0.0403 -0.1878
34442POPC   C2B59293   3.834  26.698   7.211 -0.2901  0.1857  0.1284
34442POPC   C3B59294   4.063  26.938   6.872  0.1472 -0.1119  0.0147
34442POPC   C4B59295   4.495  27.090   6.688 -0.0855  0.2398 -0.0020
34443POPC   NC359296   6.189  30.341   8.896  0.2252 -0.0663 -0.0107
34443POPC   PO459297   5.912  30.050   8.923 -0.0465 -0.0936 -0.0615
34443POPC   GL159298   5.985  30.009   8.544 -0.0400 -0.5357  0.1747
34443POPC   GL259299   6.216  29.928   8.501  0.0853  0.3833  0.1278
34443POPC   C1A59300   6.010  29.957   8.087  0.0529 -0.3306 -0.1955
34443POPC   D2A59301   6.184  29.666   7.800  0.0938 -0.2208  0.1054
34443POPC   C3A59302   6.039  29.723   7.348  0.1326  0.0190  0.0740
34443POPC   C4A59303   5.753  29.904   7.030 -0.0552  0.3558 -0.0162
34443POPC   C1B59304   6.592  29.954   8.115 -0.0812 -0.2566  0.1769
34443POPC   C2B59305   6.440  30.158   7.709 -0.0354 -0.1778  0.2528
34443POPC   C3B59306   6.515  30.053   7.273  0.2364 -0.0866 -0.2474
34443POPC   C4B59307   6.598  30.198   6.847  0.0948 -0.0050 -0.0138
34444POPC   NC359308  15.142  28.281   9.003  0.1820  0.1100 -0.1848
34444POPC   PO459309  15.521  28.403   8.870 -0.2547 -0.2203 -0.1567
34444POPC   GL159310  15.253  28.583   8.623  0.5380 -0.3015  0.3234
34444POPC   GL259311  15.024  28.411   8.502  0.1685 -0.2104 -0.1133
34444POPC   C1A59312  15.282  28.652   8.141  0.1651  0.0176  0.0511
34444POPC   D2A59313  15.223  28.442   7.712 -0.1329  0.0180  0.0083
34444POPC   C3A59314  14.777  28.270   7.513  0.0246 -0.1218 -0.3813
34444POPC   C4A59315  14.616  28.308   7.096 -0.1523  0.0644  0.0095
34444POPC   C1B59316  14.796  28.442   8.075  0.0938  0.2392  0.0458
34444POPC   C2B59317  14.477  28.587   7.727  0.0884 -0.1386 -0.0574
34444POPC   C3B59318  14.170  28.402   7.372  0.2341  0.1027 -0.0999
34444POPC   C4B59319  14.153  28.233   6.912  0.0991  0.2455  0.1603
34445POPC   NC359320   5.661  18.553  13.553  0.3598 -0.0215  0.1689
34445POPC   PO459321   6.051  18.497  13.590 -0.2501 -0.2470 -0.2788
34445POPC   GL159322   6.050  18.804  13.850  0.1165  0.1695  0.0507
34445POPC   GL259323   6.051  19.045  13.760 -0.0169  0.1222  0.1456
34445POPC   C1A59324   5.989  18.976  14.297  0.1679 -0.1479  0.0743
34445POPC   D2A59325   5.964  18.797  14.717 -0.3249  0.1896  0.1741
34445POPC   C3A59326   6.032  18.924  15.117 -0.0413 -0.2003  0.0273
34445POPC   C4A59327   5.921  18.868  15.600  0.0073 -0.1456 -0.0762
34445POPC   C1B59328   6.419  19.078  14.055 -0.0910  0.0675  0.0508
34445POPC   C2B59329   6.832  19.302  14.167  0.2481 -0.2677 -0.0333
34445POPC   C3B59330   7.087  19.634  14.303  0.1095 -0.2879 -0.0531
34445POPC   C4B59331   7.444  19.655  14.575 -0.0751  0.0846  0.1349
34446POPC   NC359332   2.662  29.452   7.823 -0.3321 -0.0632 -0.1367
34446POPC   PO459333   2.253  29.326   7.930 -0.1191  0.0210 -0.1563
34446POPC   GL159334   2.297  29.268   7.549 -0.0039 -0.3624  0.5400
34446POPC   GL259335   2.425  29.001   7.562  0.6914 -0.1215 -0.1062
34446POPC   C1A59336   2.088  29.119   7.173 -0.3408 -0.0078 -0.1680
34446POPC   D2A59337   1.988  28.847   6.815  0.0631  0.0428 -0.0021
34446POPC   C3A59338   1.877  29.043   6.416  0.0660 -0.0055 -0.0151
34446POPC   C4A59339   1.668  29.055   6.025  0.1566  0.3554 -0.2705
34446POPC   C1B59340   2.581  29.279   7.200 -0.2484 -0.1640 -0.1746
34446POPC   C2B59341   2.332  29.375   6.790 -0.1465  0.3211  0.1414
34446POPC   C3B59342   2.297  29.341   6.342  0.1944  0.0570  0.2054
34446POPC   C4B59343   2.112  29.288   5.958  0.3039 -0.0099 -0.3743
34447POPC   NC359344  12.369  30.204   8.501 -0.3552 -0.0614 -0.2349
34447POPC   PO459345  12.743  30.387   8.491 -0.2178 -0.1206 -0.1631
34447POPC   GL159346  12.651  30.462   8.161 -0.2057  0.2887 -0.3240
34447POPC   GL259347  12.503  30.714   8.138 -0.0848  0.2068 -0.0347
34447POPC   C1A59348  12.436  30.228   7.864  0.0890 -0.0505 -0.1739
34447POPC   D2A59349  12.240  30.039   7.497 -0.2995  0.2340 -0.0110
34447POPC   C3A59350  12.453  29.762   7.201 -0.0053 -0.1516  0.3886
34447POPC   C4A59351  12.665  29.359   7.236  0.0153  0.0101 -0.1572
34447POPC   C1B59352  12.361  30.728   7.695  0.2886  0.0301  0.0376
34447POPC   C2B59353  12.249  30.704   7.226 -0.1491 -0.1705  0.1294
34447POPC   C3B59354  12.116  30.515   6.796 -0.0637  0.0419  0.1249
34447POPC   C4B59355  11.896  30.446   6.391 -0.0164 -0.1164  0.0373
34448POPC   NC359356  14.684  22.956  11.145  0.1630  0.1716  0.0802
34448POPC   PO459357  14.641  22.653  10.960 -0.0434  0.1204 -0.0740
34448POPC   GL159358  14.311  22.608  10.734  0.1943 -0.1543  0.1978
34448POPC   GL259359  14.253  22.511  10.455  0.1883 -0.0785  0.1465
34448POPC   C1A59360  13.859  22.613  10.720  0.3687  0.0912 -0.0466
34448POPC   D2A59361  13.394  22.829  10.675 -0.1593  0.2905  0.1739
34448POPC   C3A59362  13.075  22.520  10.773 -0.1857  0.1939 -0.0017
34448POPC   C4A59363  12.814  22.088  10.686  0.1054  0.2166  0.0696
34448POPC   C1B59364  13.913  22.160  10.348  0.0391  0.0480  0.3029
34448POPC   C2B59365  13.565  22.215  10.028  0.0875  0.2341 -0.0079
34448POPC   C3B59366  13.224  22.395   9.790  0.1659  0.0805  0.0274
34448POPC   C4B59367  12.794  22.493   9.809 -0.3514  0.1736 -0.1449
34449POPC   NC359368   4.194  27.154   8.632 -0.1897 -0.2064  0.2880
34449POPC   PO459369   4.308  26.939   8.934  0.0725  0.2781 -0.1160
34449POPC   GL159370   4.336  26.653   8.699 -0.3968  0.2802 -0.2627
34449POPC   GL259371   4.037  26.648   8.650  0.2149  0.1390 -0.4335
34449POPC   C1A59372   4.572  26.258   8.542  0.1165  0.0192 -0.0643
34449POPC   D2A59373   4.786  26.159   8.194 -0.0294 -0.0697  0.1132
34449POPC   C3A59374   4.989  25.811   7.976  0.5190  0.0663 -0.0745
34449POPC   C4A59375   5.193  25.530   7.670  0.1828 -0.1694 -0.0677
34449POPC   C1B59376   4.181  26.519   8.231  0.0987  0.2258  0.0189
34449POPC   C2B59377   4.375  26.248   7.870  0.1722  0.3581 -0.1313
34449POPC   C3B59378   4.529  25.802   7.792  0.0774  0.2947  0.1649
34449POPC   C4B59379   4.729  25.457   7.730  0.3341 -0.0732 -0.0856
34450POPC   NC359380   3.807  31.327   8.437  0.2429 -0.1375  0.2254
34450POPC   PO459381   3.766  31.719   8.557 -0.0649  0.0540 -0.0245
34450POPC   GL159382   3.784  31.698   8.166 -0.0107  0.1482 -0.0509
34450POPC   GL259383   3.632  31.617   7.910  0.3953  0.0350  0.1732
34450POPC   C1A59384   3.944  31.986   7.785 -0.2221 -0.2531 -0.0713
34450POPC   D2A59385   4.208  32.136   7.411 -0.0607 -0.1439 -0.0346
34450POPC   C3A59386   4.000  32.077   6.998 -0.1542  0.0963 -0.1903
34450POPC   C4A59387   4.052  32.296   6.566 -0.3259 -0.1395  0.0224
34450POPC   C1B59388   3.329  31.500   7.633  0.0361  0.0080 -0.1797
34450POPC   C2B59389   3.132  31.338   7.254  0.0084  0.0970  0.0536
34450POPC   C3B59390   2.811  30.971   7.126 -0.0281 -0.0336  0.0117
34450POPC   C4B59391   2.523  30.606   7.007 -0.1532 -0.4197  0.3805
34451POPC   NC359392   5.489  26.048  12.245 -0.1549  0.2812  0.0060
34451POPC   PO459393   5.520  25.968  11.835  0.2793 -0.1296  0.0829
34451POPC   GL159394   5.843  25.772  11.811  0.0289  0.6392  0.1600
34451POPC   GL259395   6.011  25.894  11.647 -0.2819  0.0781 -0.1380
34451POPC   C1A59396   6.286  25.623  11.946 -0.1700  0.1961 -0.2187
34451POPC   D2A59397   6.498  25.294  12.195 -0.0590  0.0262 -0.1600
34451POPC   C3A59398   6.641  24.889  11.962 -0.0563  0.2140  0.0944
34451POPC   C4A59399   6.491  24.438  11.944  0.1778 -0.3509 -0.1690
34451POPC   C1B59400   6.132  25.450  11.540  0.0711 -0.2490  0.3145
34451POPC   C2B59401   6.549  25.229  11.480 -0.1378  0.0230  0.1070
34451POPC   C3B59402   6.871  24.938  11.506 -0.1160  0.1069  0.0601
34451POPC   C4B59403   7.310  24.753  11.413  0.3618 -0.1646  0.0993
34452POPC   NC359404  13.416  19.862  12.959  0.0039 -0.3434 -0.2024
34452POPC   PO459405  13.461  19.548  12.732  0.1426 -0.0054  0.0520
34452POPC   GL159406  13.269  19.884  12.524  0.1160 -0.2281 -0.0767
34452POPC   GL259407  13.047  19.635  12.473 -0.3823 -0.2195  0.0026
34452POPC   C1A59408  13.026  20.283  12.650  0.1844 -0.0063 -0.0065
34452POPC   D2A59409  12.859  20.593  12.981 -0.1138 -0.2346  0.0310
34452POPC   C3A59410  12.409  20.676  12.908 -0.1252 -0.0795  0.0441
34452POPC   C4A59411  11.986  20.544  13.003 -0.2706 -0.0572  0.2276
34452POPC   C1B59412  12.704  19.846  12.692 -0.1110 -0.0553  0.2267
34452POPC   C2B59413  12.643  20.107  13.066  0.3061  0.2195  0.0449
34452POPC   C3B59414  12.387  20.422  13.295  0.0137  0.4689  0.1584
34452POPC   C4B59415  12.121  20.805  13.412 -0.1320 -0.0954  0.1000
34453POPC   NC359416  13.687  19.675  11.773  0.1431  0.4281 -0.3261
34453POPC   PO459417  13.506  19.683  12.109  0.1622 -0.0077 -0.1306
34453POPC   GL159418  13.257  19.944  12.073  0.2611 -0.2407 -0.0350
34453POPC   GL259419  13.104  19.951  11.810 -0.0314  0.1633  0.1223
34453POPC   C1A59420  12.845  20.065  12.236  0.2361  0.1072 -0.0845
34453POPC   D2A59421  12.563  20.335  12.514 -0.0031  0.1849  0.0297
34453POPC   C3A59422  12.226  20.151  12.798 -0.1051 -0.3479 -0.1803
34453POPC   C4A59423  11.884  20.008  12.999  0.0255  0.0889  0.0056
34453POPC   C1B59424  12.834  20.340  11.774  0.2796  0.0153 -0.0947
34453POPC   C2B59425  12.437  20.406  11.920 -0.2033  0.1149 -0.1498
34453POPC   C3B59426  11.993  20.594  11.986  0.0837 -0.0284  0.2460
34453POPC   C4B59427  11.783  20.885  12.225 -0.2541  0.4560  0.0912
34454POPC   NC359428   3.708  20.112  15.072 -0.0261 -0.0564 -0.1135
34454POPC   PO459429   4.008  19.851  14.938  0.0328 -0.1300  0.0983
34454POPC   GL159430   4.118  19.953  15.308 -0.2920 -0.1294 -0.0868
34454POPC   GL259431   3.963  20.008  15.541 -0.2682  0.0023 -0.0162
34454POPC   C1A59432   4.347  20.311  15.490  0.0116  0.0936  0.1495
34454POPC   D2A59433   4.498  20.660  15.647 -0.1660  0.0787  0.0683
34454POPC   C3A59434   4.650  20.768  16.069  0.2129  0.0126 -0.3394
34454POPC   C4A59435   4.909  20.742  16.478  0.0249 -0.1572 -0.0146
34454POPC   C1B59436   4.202  19.911  15.925 -0.2682 -0.0880 -0.2094
34454POPC   C2B59437   4.580  19.812  16.131 -0.2386 -0.3129  0.1628
34454POPC   C3B59438   4.960  19.568  16.284  0.1253  0.1672 -0.1821
34454POPC   C4B59439   5.400  19.540  16.130 -0.3946  0.1788 -0.1273
34455POPC   NC359440  13.858  17.550   9.777  0.0107 -0.0785  0.2777
34455POPC   PO459441  13.953  17.360   9.467  0.0127 -0.2139 -0.2485
34455POPC   GL159442  13.868  17.386   9.027 -0.1145  0.2492 -0.6253
34455POPC   GL259443  13.775  17.618   8.821  0.0169  0.0025 -0.0229
34455POPC   C1A59444  14.003  17.257   8.632  0.0595  0.2361 -0.3129
34455POPC   D2A59445  13.812  17.257   8.238 -0.0814  0.1280  0.1027
34455POPC   C3A59446  13.923  17.603   7.986  0.0517 -0.1395  0.1915
34455POPC   C4A59447  14.005  18.006   7.755  0.1505  0.1396  0.3107
34455POPC   C1B59448  13.606  17.740   8.439  0.0301  0.3419  0.0211
34455POPC   C2B59449  13.312  18.072   8.285  0.1292 -0.0488 -0.0642
34455POPC   C3B59450  13.176  18.364   7.915  0.1587  0.3759 -0.2138
34455POPC   C4B59451  13.017  18.588   7.524 -0.2041  0.0719 -0.1921
34456POPC   NC359452   3.684  23.775   9.995  0.1560  0.0016 -0.0839
34456POPC   PO459453   3.999  23.590  10.179  0.1842 -0.0975  0.1585
34456POPC   GL159454   4.311  23.460  10.004  0.5617 -0.0527  0.2559
34456POPC   GL259455   4.240  23.483   9.743 -0.1754  0.2335  0.1141
34456POPC   C1A59456   4.681  23.541  10.190  0.2328  0.0120 -0.1627
34456POPC   D2A59457   5.043  23.528  10.474 -0.1369  0.0285 -0.1786
34456POPC   C3A59458   5.442  23.364  10.285  0.3196 -0.2688 -0.4182
34456POPC   C4A59459   5.930  23.227  10.281  0.2012 -0.1808 -0.2552
34456POPC   C1B59460   4.539  23.130   9.593  0.1898 -0.0941 -0.0851
34456POPC   C2B59461   4.987  22.997   9.596 -0.1436  0.2511 -0.3773
34456POPC   C3B59462   5.417  22.902   9.448  0.2615 -0.3739  0.2519
34456POPC   C4B59463   5.793  23.161   9.298  0.2307 -0.3218 -0.0659
34457POPC   NC359464  12.424  19.130  11.749 -0.1248 -0.1624 -0.2880
34457POPC   PO459465  12.696  19.008  11.997 -0.2958  0.1697  0.1785
34457POPC   GL159466  12.578  19.414  12.153 -0.0948  0.2037  0.0406
34457POPC   GL259467  12.782  19.586  12.082 -0.2481 -0.0390  0.3066
34457POPC   C1A59468  12.386  19.769  12.334  0.0383 -0.1347 -0.2226
34457POPC   D2A59469  11.907  19.845  12.412 -0.1654  0.0843  0.2253
34457POPC   C3A59470  11.650  20.121  12.053 -0.2205  0.1990 -0.1293
34457POPC   C4A59471  11.470  20.523  12.038 -0.0697 -0.0801  0.1749
34457POPC   C1B59472  12.472  19.665  11.764  0.0012  0.1022 -0.2195
34457POPC   C2B59473  12.487  20.059  11.536 -0.0404  0.0224 -0.0301
34457POPC   C3B59474  12.145  20.328  11.523 -0.1853  0.0427  0.0231
34457POPC   C4B59475  11.713  20.495  11.547 -0.0173  0.0173  0.2082
34458POPC   NC359476  15.667  21.686   9.502  0.1757 -0.0731  0.2474
34458POPC   PO459477  15.416  21.966   9.579 -0.1744 -0.4464 -0.1324
34458POPC   GL159478  15.157  21.899   9.209 -0.1317 -0.0271 -0.1996
34458POPC   GL259479  14.958  21.732   9.421  0.2249  0.3234  0.1246
34458POPC   C1A59480  14.826  22.146   8.994 -0.1476  0.0567  0.2849
34458POPC   D2A59481  14.551  22.282   8.687 -0.0342 -0.0926  0.2613
34458POPC   C3A59482  14.290  22.037   8.486  0.0819 -0.1050 -0.0536
34458POPC   C4A59483  13.985  21.741   8.408 -0.1186 -0.1871  0.3061
34458POPC   C1B59484  14.832  21.634   8.969 -0.1631  0.2648 -0.1402
34458POPC   C2B59485  14.900  21.460   8.529  0.1590  0.0398 -0.0860
34458POPC   C3B59486  14.803  21.160   8.212 -0.2081  0.0503 -0.0410
34458POPC   C4B59487  14.492  21.050   7.851 -0.2161 -0.0149 -0.1090
34459POPC   NC359488   2.438  32.316   8.325 -0.2108  0.2740  0.4082
34459POPC   PO459489   2.180  32.273   8.002 -0.1502  0.2406 -0.0648
34459POPC   GL159490   2.402  32.206   7.722  0.2096 -0.1115  0.1076
34459POPC   GL259491   2.139  32.343   7.533  0.0902  0.0822 -0.2442
34459POPC   C1A59492   2.625  32.276   7.348  0.2040 -0.1666  0.1405
34459POPC   D2A59493   2.795  32.337   6.860 -0.3697 -0.4862 -0.3518
34459POPC   C3A59494   3.120  32.082   6.678 -0.1136 -0.0900 -0.1253
34459POPC   C4A59495   3.184  31.964   6.174 -0.2535  0.1180  0.1651
34459POPC   C1B59496   2.135  32.617   7.175  0.1706  0.1693 -0.0365
34459POPC   C2B59497   2.345  32.556   6.772 -0.0666 -0.1385 -0.1470
34459POPC   C3B59498   2.612  32.574   6.437 -0.2140 -0.1082 -0.2210
34459POPC   C4B59499   3.064  32.485   6.449  0.1619 -0.1617 -0.2071
34460POPC   NC359500   0.564  19.945   9.262 -0.4735  0.1902  0.1275
34460POPC   PO459501   0.892  19.923   9.083 -0.1802  0.1975 -0.1293
34460POPC   GL159502   1.045  20.067   8.683  0.0374 -0.2853  0.2118
34460POPC   GL259503   1.278  20.050   8.656  0.0546 -0.1686 -0.3948
34460POPC   C1A59504   0.888  19.891   8.245 -0.3581 -0.0290  0.1894
34460POPC   D2A59505   0.988  19.969   7.795  0.1326  0.3007 -0.1488
34460POPC   C3A59506   0.694  19.672   7.579  0.3969 -0.1900 -0.0048
34460POPC   C4A59507   0.647  19.508   7.964 -0.3096 -0.1779 -0.0140
34460POPC   C1B59508   1.214  20.375   8.340  0.1604 -0.0809 -0.2005
34460POPC   C2B59509   0.959  20.429   8.026 -0.2535 -0.1230  0.0709
34460POPC   C3B59510   0.597  20.535   7.831  0.0316 -0.0401  0.1380
34460POPC   C4B59511   0.351  20.444   7.411  0.0932 -0.1359 -0.1377
34461POPC   NC359512  12.077  17.984   9.952 -0.1717  0.0049  0.0741
34461POPC   PO459513  11.695  18.080  10.113 -0.1654  0.1362  0.0968
34461POPC   GL159514  11.886  18.410   9.999  0.0248 -0.2491 -0.2367
34461POPC   GL259515  12.210  18.469   9.984 -0.1784  0.1065  0.0385
34461POPC   C1A59516  11.548  18.653   9.816 -0.0123 -0.1851  0.4548
34461POPC   D2A59517  11.183  18.743   9.577 -0.0678  0.1457 -0.0156
34461POPC   C3A59518  10.843  18.447   9.568  0.0177 -0.0522 -0.1324
34461POPC   C4A59519  10.493  18.356   9.279 -0.0179 -0.1223 -0.0570
34461POPC   C1B59520  12.029  18.843   9.753 -0.1652  0.1074  0.0592
34461POPC   C2B59521  11.978  19.235   9.489 -0.0786  0.2906  0.0365
34461POPC   C3B59522  12.002  19.461   9.141  0.0031 -0.0758  0.2088
34461POPC   C4B59523  11.688  19.408   8.783  0.0536  0.2900  0.0917
34462POPC   NC359524   3.135  22.787   9.756 -0.0929  0.2608  0.2446
34462POPC   PO459525   3.462  22.958   9.744 -0.1280 -0.1037  0.0923
34462POPC   GL159526   3.562  22.837   9.419 -0.1245 -0.1320  0.2862
34462POPC   GL259527   3.313  22.745   9.290  0.0976  0.1650 -0.1397
34462POPC   C1A59528   3.874  22.687   9.101 -0.1284  0.0002  0.0487
34462POPC   D2A59529   4.184  22.621   8.772  0.3583  0.0421 -0.2389
34462POPC   C3A59530   4.672  22.631   8.801  0.2334 -0.0889  0.3751
34462POPC   C4A59531   5.039  22.841   8.584  0.1355  0.4527  0.0657
34462POPC   C1B59532   3.363  22.676   8.850 -0.0543 -0.1293  0.2952
34462POPC   C2B59533   3.421  22.553   8.407 -0.0765 -0.1223 -0.1247
34462POPC   C3B59534   3.473  22.595   7.959 -0.3017  0.2680  0.0624
34462POPC   C4B59535   3.725  22.788   7.661 -0.1465 -0.0947  0.3873
34463POPC   NC359536   9.260  28.654  16.029  0.0145 -0.3426 -0.1044
34463POPC   PO459537   9.145  29.013  15.971 -0.1322  0.2354 -0.2346
34463POPC   GL159538   9.228  29.071  16.340 -0.3609  0.0561  0.1615
34463POPC   GL259539   9.010  29.021  16.480 -0.0985 -0.5781 -0.0125
34463POPC   C1A59540   9.390  28.981  16.772 -0.1972  0.0021  0.0102
34463POPC   D2A59541   9.246  28.769  17.179 -0.1890  0.3939  0.1144
34463POPC   C3A59542   9.263  28.731  17.624 -0.0369  0.0134 -0.0398
34463POPC   C4A59543   9.340  28.331  17.878  0.1496 -0.2439  0.0621
34463POPC   C1B59544   8.862  28.892  16.902 -0.0139 -0.0112 -0.2135
34463POPC   C2B59545   8.444  28.752  17.065 -0.0256  0.1351  0.0425
34463POPC   C3B59546   8.290  28.810  17.512  0.0407  0.0519  0.2153
34463POPC   C4B59547   8.460  28.914  17.942 -0.2624 -0.0570 -0.1755
34464POPC   NC359548   1.330  18.073   8.283 -0.1927  0.1037  0.0903
34464POPC   PO459549   1.189  17.764   8.464 -0.0306 -0.0102 -0.2238
34464POPC   GL159550   1.023  17.756   8.146  0.1801 -0.2944  0.1008
34464POPC   GL259551   0.850  17.523   8.008  0.2443  0.0319  0.1830
34464POPC   C1A59552   1.150  17.937   7.705  0.0375 -0.2446  0.3094
34464POPC   D2A59553   1.088  18.066   7.276 -0.0899 -0.0207 -0.1061
34464POPC   C3A59554   1.249  17.760   6.934 -0.2828 -0.1619  0.0021
34464POPC   C4A59555   1.174  17.349   6.656  0.1119  0.2271  0.1037
34464POPC   C1B59556   0.789  17.554   7.573 -0.0043  0.1851 -0.2693
34464POPC   C2B59557   0.439  17.809   7.360  0.0225 -0.1512 -0.2065
34464POPC   C3B59558   0.243  18.004   6.894  0.0805 -0.0652 -0.0644
34464POPC   C4B59559   0.201  18.290   6.517 -0.1416  0.0765 -0.3616
34465POPC   NC359560   0.890  21.788   9.227  0.0592  0.0207 -0.1323
34465POPC   PO459561   0.758  21.439   9.080 -0.0080 -0.2813 -0.2345
34465POPC   GL159562   0.735  21.343   8.776  0.1697 -0.1260 -0.0135
34465POPC   GL259563   0.788  21.159   8.590  0.0938  0.1016  0.1105
34465POPC   C1A59564   0.437  21.515   8.462 -0.0082 -0.0292 -0.1514
34465POPC   D2A59565   0.363  21.533   8.001 -0.2692 -0.0222  0.2021
34465POPC   C3A59566   0.374  21.548   7.545 -0.1154  0.0949 -0.1754
34465POPC   C4A59567   0.472  21.510   7.059 -0.0679 -0.1904  0.0753
34465POPC   C1B59568   0.649  21.084   8.128  0.1871  0.0239 -0.0741
34465POPC   C2B59569   0.494  21.050   7.682  0.5124 -0.0673  0.0015
34465POPC   C3B59570   0.225  20.995   7.333  0.0911 -0.0723  0.1518
34465POPC   C4B59571   0.125  21.088   6.880 -0.0886 -0.0246  0.1402
34466POPC   NC359572   6.770  18.269  13.833 -0.1935  0.1829 -0.0091
34466POPC   PO459573   6.784  18.336  13.480  0.0767  0.1191 -0.1816
34466POPC   GL159574   7.055  18.648  13.581  0.2023  0.2139  0.1787
34466POPC   GL259575   7.020  18.807  13.345 -0.2309  0.0886  0.1909
34466POPC   C1A59576   7.260  19.008  13.774 -0.2838 -0.0702 -0.0306
34466POPC   D2A59577   7.425  19.378  13.994  0.1704  0.0931 -0.1645
34466POPC   C3A59578   7.659  19.276  14.324  0.0822  0.3830 -0.0972
34466POPC   C4A59579   7.773  19.063  14.705 -0.1791 -0.2267  0.1821
34466POPC   C1B59580   7.412  18.938  13.292 -0.1543  0.3133 -0.2291
34466POPC   C2B59581   7.613  19.350  13.459 -0.3886  0.2882  0.2843
34466POPC   C3B59582   7.629  19.748  13.683  0.2022 -0.2070 -0.0365
34466POPC   C4B59583   7.599  20.206  13.635 -0.0582  0.0064 -0.1709
34467POPC   NC359584  15.331  25.695   9.430  0.2486  0.2020 -0.2575
34467POPC   PO459585  15.447  25.861   9.121 -0.2152  0.0016  0.1666
34467POPC   GL159586  15.331  25.940   8.796 -0.0358  0.2873 -0.1443
34467POPC   GL259587  15.494  26.102   8.627  0.0036  0.1149  0.0676
34467POPC   C1A59588  15.071  25.906   8.393 -0.1175  0.1235  0.1715
34467POPC   D2A59589  14.875  26.044   7.998 -0.0106  0.0718 -0.0149
34467POPC   C3A59590  14.924  25.849   7.626  0.0638  0.0852  0.1562
34467POPC   C4A59591  14.908  25.631   7.243  0.0575 -0.1563 -0.0449
34467POPC   C1B59592  15.543  26.061   8.199 -0.1836 -0.1182  0.2332
34467POPC   C2B59593  15.688  25.679   7.957  0.1429 -0.2344  0.1584
34467POPC   C3B59594  15.748  25.497   7.566  0.1242 -0.1404 -0.3046
34467POPC   C4B59595  15.805  25.064   7.305 -0.1468  0.1711 -0.2318
34468POPC   NC359596  13.835  19.607  10.737 -0.0036  0.0419  0.0732
34468POPC   PO459597  14.013  19.370  10.447 -0.0613 -0.2595  0.0593
34468POPC   GL159598  13.700  19.382  10.225 -0.0402 -0.2305 -0.2069
34468POPC   GL259599  13.722  19.621  10.099  0.1161  0.0428  0.2040
34468POPC   C1A59600  13.385  19.301   9.886 -0.2090  0.0030  0.3484
34468POPC   D2A59601  13.011  19.468   9.704  0.2463 -0.2116 -0.2483
34468POPC   C3A59602  12.725  19.835   9.774  0.0206 -0.2738 -0.3325
34468POPC   C4A59603  12.629  20.105  10.114  0.0489 -0.0847 -0.0920
34468POPC   C1B59604  13.537  19.776   9.657 -0.3151 -0.0703 -0.0232
34468POPC   C2B59605  13.184  19.772   9.367  0.2159 -0.0465 -0.1412
34468POPC   C3B59606  12.923  19.705   9.024  0.0086  0.5552 -0.1574
34468POPC   C4B59607  12.544  19.865   8.784  0.2271 -0.3010  0.1773
34469POPC   NC359608   2.266  29.478  16.979  0.0695  0.1516 -0.3178
34469POPC   PO459609   2.436  29.152  16.912  0.3156  0.2455 -0.1876
34469POPC   GL159610   2.279  29.138  17.302 -0.1026  0.2680  0.0695
34469POPC   GL259611   2.495  29.139  17.434  0.3791  0.0285  0.0365
34469POPC   C1A59612   1.925  28.976  17.560 -0.1363  0.0298  0.1462
34469POPC   D2A59613   1.913  28.735  17.952  0.0134 -0.0764 -0.1162
34469POPC   C3A59614   1.901  28.744  18.418 -0.1145  0.3033  0.0534
34469POPC   C4A59615   1.601  28.623  18.722  0.2628  0.2228 -0.3714
34469POPC   C1B59616   2.579  28.950  17.881 -0.0476 -0.1491 -0.1787
34469POPC   C2B59617   2.785  28.825  18.306  0.1839 -0.0411  0.1776
34469POPC   C3B59618   3.066  28.984  18.586 -0.3360 -0.1495  0.2143
34469POPC   C4B59619   3.367  29.300  18.792 -0.0650 -0.1469  0.0755
34470POPC   NC359620   7.222  18.215  12.491  0.1212  0.1859  0.0378
34470POPC   PO459621   7.302  18.166  12.106  0.0205 -0.0254  0.1273
34470POPC   GL159622   7.451  18.476  12.053  0.4240  0.1409  0.4459
34470POPC   GL259623   7.545  18.583  11.818  0.2790 -0.1407  0.0425
34470POPC   C1A59624   7.743  18.851  12.186 -0.1037 -0.2301  0.0715
34470POPC   D2A59625   8.137  19.019  12.341  0.0267 -0.0170  0.0072
34470POPC   C3A59626   8.261  19.381  12.525  0.1083 -0.2462  0.2554
34470POPC   C4A59627   8.352  19.615  12.951 -0.0621 -0.0275  0.2231
34470POPC   C1B59628   7.787  18.807  11.548 -0.0157 -0.0541 -0.1007
34470POPC   C2B59629   7.760  19.261  11.418 -0.0967 -0.1602 -0.5178
34470POPC   C3B59630   7.671  19.688  11.619  0.3638  0.4512 -0.1477
34470POPC   C4B59631   7.298  20.011  11.632  0.1426  0.3706  0.0998
34471POPC   NC359632   0.398  29.432   8.366 -0.1045  0.0378  0.0567
34471POPC   PO459633   0.632  29.603   8.153 -0.1200 -0.3810  0.0083
34471POPC   GL159634   0.442  29.326   7.917 -0.0842  0.0670 -0.0862
34471POPC   GL259635   0.632  29.155   7.786  0.0152 -0.4960  0.0794
34471POPC   C1A59636   0.194  29.352   7.565 -0.0842 -0.0091  0.2171
34471POPC   D2A59637   0.197  29.708   7.228 -0.1080  0.1615 -0.3091
34471POPC   C3A59638  -0.090  29.583   6.893  0.2705  0.1387  0.0317
34471POPC   C4A59639  -0.487  29.328   6.913 -0.1681  0.0167  0.1603
34471POPC   C1B59640   0.632  29.222   7.323  0.0848  0.0191  0.1357
34471POPC   C2B59641   0.416  29.345   6.935  0.0219  0.0970 -0.0442
34471POPC   C3B59642   0.152  29.206   6.614 -0.0701  0.0208 -0.0388
34471POPC   C4B59643   0.152  28.991   6.161  0.0508  0.0986 -0.0873
34472POPC   NC359644   5.317  20.417  13.963  0.0705  0.2903 -0.2465
34472POPC   PO459645   5.310  20.539  13.600  0.0020 -0.0389 -0.1460
34472POPC   GL159646   5.725  20.553  13.662  0.2075 -0.1137 -0.0691
34472POPC   GL259647   5.812  20.283  13.624  0.3004  0.2219  0.0173
34472POPC   C1A59648   6.010  20.852  13.841  0.0665 -0.2480 -0.0345
34472POPC   D2A59649   6.443  20.860  13.891 -0.0296  0.0481  0.1137
34472POPC   C3A59650   6.634  20.478  13.761  0.0011  0.1448  0.0109
34472POPC   C4A59651   6.307  20.117  13.701 -0.2687  0.2748  0.1025
34472POPC   C1B59652   6.180  20.561  13.464 -0.1091  0.0627  0.0827
34472POPC   C2B59653   6.481  20.825  13.162 -0.1371 -0.0488  0.1563
34472POPC   C3B59654   6.931  20.996  13.126  0.0143  0.1204  0.3829
34472POPC   C4B59655   7.338  20.978  12.905 -0.3197  0.1670 -0.1310
34473POPC   NC359656   0.340  17.403   7.801  0.1438  0.0283 -0.0252
34473POPC   PO459657   0.362  17.456   8.188 -0.1759 -0.0190 -0.0941
34473POPC   GL159658   0.237  17.739   8.146 -0.0632 -0.1265 -0.2077
34473POPC   GL259659   0.082  17.921   8.170 -0.0451  0.0624 -0.0209
34473POPC   C1A59660   0.604  17.922   7.846  0.0701  0.2112 -0.0613
34473POPC   D2A59661   0.647  18.257   7.623  0.2696 -0.1226  0.1735
34473POPC   C3A59662   0.632  18.208   7.168 -0.0629 -0.0783  0.3978
34473POPC   C4A59663   0.630  18.371   6.752  0.0583 -0.2107 -0.1091
34473POPC   C1B59664   0.091  18.061   7.682  0.1074  0.4127 -0.2642
34473POPC   C2B59665   0.153  18.283   7.311 -0.0241  0.0140 -0.0141
34473POPC   C3B59666   0.056  18.492   6.892  0.0784  0.1100  0.0295
34473POPC   C4B59667   0.003  18.769   6.508 -0.2224 -0.2079 -0.4354
34474POPC   NC359668  12.348  18.966  12.331  0.1552  0.1227 -0.2769
34474POPC   PO459669  12.402  18.894  12.723 -0.0155  0.1814 -0.2777
34474POPC   GL159670  12.347  19.303  12.724  0.2018  0.1718 -0.2658
34474POPC   GL259671  12.168  19.385  12.562 -0.1793  0.2436  0.0871
34474POPC   C1A59672  12.105  19.549  13.041  0.1845  0.6257  0.1511
34474POPC   D2A59673  11.762  19.570  13.313 -0.2584  0.2203 -0.0777
34474POPC   C3A59674  11.536  19.945  13.356  0.1392 -0.1729 -0.3604
34474POPC   C4A59675  11.526  20.316  13.161  0.0015 -0.1986  0.2237
34474POPC   C1B59676  11.722  19.437  12.746 -0.2432 -0.3486 -0.0210
34474POPC   C2B59677  11.379  19.681  12.903  0.4235  0.0691  0.3537
34474POPC   C3B59678  10.956  19.830  13.134  0.3790 -0.0775  0.0295
34474POPC   C4B59679  10.706  20.077  13.468  0.1341  0.0433  0.2211
34475POPC   NC359680   5.611  26.686  10.036  0.1307  0.1835  0.1662
34475POPC   PO459681   5.898  26.417  10.040  0.0611 -0.2596  0.1591
34475POPC   GL159682   6.008  26.402   9.668 -0.2209  0.0396  0.3105
34475POPC   GL259683   5.793  26.167   9.517 -0.0952 -0.0597 -0.0177
34475POPC   C1A59684   6.214  26.553   9.290 -0.0071 -0.0332  0.1073
34475POPC   D2A59685   6.501  26.689   8.920 -0.1218  0.0924 -0.0662
34475POPC   C3A59686   6.623  26.350   8.625 -0.0877 -0.1154  0.0914
34475POPC   C4A59687   6.652  26.032   8.282 -0.0960 -0.0449 -0.1150
34475POPC   C1B59688   5.967  26.107   9.128 -0.0161  0.1810 -0.0359
34475POPC   C2B59689   5.844  25.874   8.788 -0.3605  0.0902  0.4341
34475POPC   C3B59690   5.949  25.454   8.515  0.3072 -0.0451  0.2707
34475POPC   C4B59691   6.168  25.015   8.717  0.0946 -0.0263  0.0236
34476POPC   NC359692   2.130  21.686   9.792 -0.1082 -0.0792  0.4395
34476POPC   PO459693   1.815  21.784   9.562  0.0037 -0.3542 -0.0886
34476POPC   GL159694   1.790  21.868   9.132  0.3544  0.1672  0.2640
34476POPC   GL259695   1.750  21.610   9.120  0.2656 -0.0975 -0.0897
34476POPC   C1A59696   1.674  22.153   8.756 -0.1050  0.0293  0.5616
34476POPC   D2A59697   1.454  22.310   8.410 -0.2488 -0.3727 -0.0120
34476POPC   C3A59698   1.500  22.199   7.983 -0.0117 -0.2032 -0.0405
34476POPC   C4A59699   1.334  22.419   7.654 -0.1359 -0.2776 -0.3449
34476POPC   C1B59700   1.832  21.684   8.691  0.0690  0.3785 -0.0356
34476POPC   C2B59701   1.868  21.829   8.253 -0.0248  0.0092  0.0952
34476POPC   C3B59702   1.865  21.552   7.910 -0.0816 -0.2591  0.1795
34476POPC   C4B59703   2.106  21.447   7.559  0.2792 -0.0469 -0.1020
34477POPC   NC359704   5.109  20.912  11.345  0.1098 -0.1807 -0.0986
34477POPC   PO459705   5.084  20.512  11.294  0.0867 -0.2734  0.1015
34477POPC   GL159706   5.461  20.603  11.304  0.3983 -0.0782  0.0084
34477POPC   GL259707   5.507  20.728  11.045 -0.0328  0.2683 -0.2506
34477POPC   C1A59708   5.932  20.591  11.243  0.0490  0.3323  0.0109
34477POPC   D2A59709   6.279  20.828  11.366  0.0450 -0.0850  0.3540
34477POPC   C3A59710   6.441  21.244  11.261 -0.0207 -0.4566 -0.1743
34477POPC   C4A59711   6.619  21.684  11.192 -0.0248  0.1077  0.2208
34477POPC   C1B59712   5.778  20.465  10.804 -0.0326  0.3326  0.0329
34477POPC   C2B59713   6.129  20.500  10.509 -0.3601  0.1300 -0.0461
34477POPC   C3B59714   6.185  20.616  10.077 -0.1133  0.1722  0.4728
34477POPC   C4B59715   6.510  20.671   9.744  0.0751 -0.1913 -0.0030
34478POPC   NC359716  13.613  24.561  12.845  0.1952 -0.2232 -0.0957
34478POPC   PO459717  13.975  24.502  12.728 -0.0906 -0.3243 -0.0020
34478POPC   GL159718  13.760  24.155  12.722 -0.0125 -0.1673 -0.1463
34478POPC   GL259719  13.622  24.234  12.450  0.1126  0.0877 -0.1883
34478POPC   C1A59720  13.888  23.706  12.772 -0.2190  0.1437 -0.0495
34478POPC   D2A59721  13.824  23.254  12.749 -0.1270 -0.1010 -0.3623
34478POPC   C3A59722  13.631  23.146  12.380  0.2622 -0.1118  0.2632
34478POPC   C4A59723  13.269  23.204  12.123  0.2983 -0.1270  0.2465
34478POPC   C1B59724  13.319  23.996  12.348  0.0509 -0.1154 -0.1191
34478POPC   C2B59725  12.988  23.690  12.423  0.1398  0.3095  0.1587
34478POPC   C3B59726  12.529  23.716  12.479  0.2670 -0.2546  0.1150
34478POPC   C4B59727  12.199  23.633  12.831 -0.0878  0.0303  0.2122
34479POPC   NC359728   3.624  20.948   9.489 -0.1103 -0.0847 -0.1362
34479POPC   PO459729   3.439  21.248   9.582 -0.1491  0.1015 -0.1225
34479POPC   GL159730   3.633  21.437   9.291  0.1455  0.0655  0.0246
34479POPC   GL259731   3.920  21.307   9.214 -0.2894  0.0131 -0.0784
34479POPC   C1A59732   3.683  21.646   8.845 -0.2017  0.0100  0.1925
34479POPC   D2A59733   4.046  21.743   8.558 -0.0201 -0.2189 -0.3846
34479POPC   C3A59734   4.043  21.946   8.163  0.1253 -0.0602 -0.0731
34479POPC   C4A59735   3.892  22.310   7.914 -0.0889  0.3524  0.3172
34479POPC   C1B59736   4.285  21.065   8.968 -0.3222  0.0388  0.1110
34479POPC   C2B59737   4.406  20.847   8.618 -0.2683 -0.0763  0.0695
34479POPC   C3B59738   4.727  20.897   8.259  0.2270 -0.0291 -0.0782
34479POPC   C4B59739   5.112  21.055   8.036  0.0186 -0.1064 -0.3553
34480POPC   NC359740  14.501  19.228   9.643  0.1502 -0.1553 -0.0396
34480POPC   PO459741  14.257  19.372   9.907  0.0031  0.2230 -0.4324
34480POPC   GL159742  13.971  19.519   9.584  0.2702 -0.2601 -0.2894
34480POPC   GL259743  13.845  19.252   9.425 -0.0211 -0.0444 -0.0788
34480POPC   C1A59744  14.012  19.595   9.127  0.2157 -0.1632  0.2292
34480POPC   D2A59745  14.080  19.791   8.707  0.2101  0.2137 -0.0771
34480POPC   C3A59746  14.099  19.551   8.308  0.1409 -0.1051 -0.3503
34480POPC   C4A59747  14.378  19.436   7.975  0.0411  0.3143 -0.0925
34480POPC   C1B59748  13.504  19.418   9.190  0.0383  0.2374 -0.1183
34480POPC   C2B59749  13.333  19.494   8.790  0.3999 -0.1690  0.0771
34480POPC   C3B59750  13.061  19.420   8.470 -0.0113 -0.1489  0.0964
34480POPC   C4B59751  12.622  19.332   8.452  0.0957 -0.0366 -0.2906
34481POPC   NC359752   3.179  26.078   9.176 -0.0678 -0.1265  0.1164
34481POPC   PO459753   2.775  26.111   9.242 -0.0700  0.2339  0.1910
34481POPC   GL159754   2.717  25.855   8.897  0.0804 -0.0690 -0.0301
34481POPC   GL259755   2.498  25.766   8.772  0.0138 -0.1141 -0.2517
34481POPC   C1A59756   2.901  25.749   8.489 -0.1401 -0.0255  0.1199
34481POPC   D2A59757   2.948  25.658   8.056  0.0923  0.3669  0.0486
34481POPC   C3A59758   2.884  25.633   7.559  0.0089 -0.0905 -0.0444
34481POPC   C4A59759   3.071  25.754   7.144 -0.3504  0.0928 -0.0918
34481POPC   C1B59760   2.559  25.422   8.528  0.2101 -0.0089  0.2372
34481POPC   C2B59761   2.747  25.218   8.117 -0.2106  0.0050  0.0675
34481POPC   C3B59762   2.827  25.140   7.700 -0.1415 -0.3802  0.2391
34481POPC   C4B59763   2.958  25.144   7.269  0.0156 -0.1112 -0.1409
34482POPC   NC359764   8.807  27.819  10.623 -0.2132  0.1807 -0.0889
34482POPC   PO459765   8.408  27.849  10.561 -0.0797  0.1100 -0.1141
34482POPC   GL159766   8.287  27.522  10.423 -0.0648 -0.1753  0.1552
34482POPC   GL259767   8.334  27.310  10.566  0.0151 -0.4421 -0.1605
34482POPC   C1A59768   8.356  27.319  10.029  0.0750  0.1368 -0.0860
34482POPC   D2A59769   8.412  26.896   9.840 -0.3243 -0.0894 -0.1386
34482POPC   C3A59770   8.568  26.449   9.727  0.1159  0.0569 -0.2189
34482POPC   C4A59771   8.643  26.011   9.582  0.1113 -0.0867 -0.0072
34482POPC   C1B59772   8.566  26.885  10.470 -0.2482  0.2748  0.1928
34482POPC   C2B59773   8.978  26.626  10.396 -0.0103 -0.2525  0.2007
34482POPC   C3B59774   9.311  26.294  10.368  0.2681 -0.3622 -0.0074
34482POPC   C4B59775   9.573  25.914  10.392 -0.2065 -0.3119  0.0475
34483POPC   NC359776   7.372  28.003   9.143  0.1329  0.0936 -0.1216
34483POPC   PO459777   7.341  28.323   9.322 -0.0447 -0.2847  0.0191
34483POPC   GL159778   7.328  28.419   8.876  0.1476  0.1478 -0.0715
34483POPC   GL259779   7.458  28.606   8.775  0.2178  0.2987  0.0736
34483POPC   C1A59780   7.440  28.081   8.614  0.0258 -0.4759  0.0512
34483POPC   D2A59781   7.495  28.026   8.160  0.0865 -0.2185  0.1750
34483POPC   C3A59782   7.201  27.883   7.875 -0.0643  0.1480  0.3794
34483POPC   C4A59783   6.848  27.569   7.743 -0.1786 -0.1735 -0.1853
34483POPC   C1B59784   7.650  28.492   8.421  0.2715  0.0191 -0.2120
34483POPC   C2B59785   7.963  28.502   8.083 -0.1215 -0.0686  0.0800
34483POPC   C3B59786   8.136  28.226   7.766  0.0776  0.0688  0.1616
34483POPC   C4B59787   8.065  28.115   7.315 -0.1429  0.1803  0.0089
34484POPC   NC359788   2.012  19.994   9.271  0.2165  0.2752  0.0160
34484POPC   PO459789   2.207  19.653   9.180 -0.4810 -0.0408  0.1136
34484POPC   GL159790   2.365  19.741   8.844 -0.0137 -0.1497  0.0108
34484POPC   GL259791   2.129  19.985   8.806  0.0347 -0.0639 -0.1512
34484POPC   C1A59792   2.558  19.475   8.506  0.0444 -0.4057 -0.0979
34484POPC   D2A59793   2.726  19.051   8.498 -0.1863  0.2276 -0.0970
34484POPC   C3A59794   2.718  18.887   8.036  0.0752  0.0490 -0.3495
34484POPC   C4A59795   2.979  18.957   7.708  0.0586 -0.0501 -0.0484
34484POPC   C1B59796   2.494  19.946   8.460  0.2066 -0.2831 -0.2491
34484POPC   C2B59797   2.547  19.828   8.036 -0.0858 -0.6189  0.5257
34484POPC   C3B59798   2.630  19.727   7.629 -0.2693 -0.2428  0.0598
34484POPC   C4B59799   2.777  19.690   7.137 -0.1773  0.0872  0.3834
34485POPC   NC359800   7.141  30.974   8.349 -0.1607  0.0584 -0.2852
34485POPC   PO459801   7.230  31.267   8.586 -0.1125  0.1683 -0.2502
34485POPC   GL159802   7.504  31.268   8.313 -0.1635  0.0476 -0.0172
34485POPC   GL259803   7.555  31.473   8.195 -0.0571 -0.2693 -0.0361
34485POPC   C1A59804   7.786  31.208   7.880  0.0997 -0.1144 -0.0656
34485POPC   D2A59805   8.141  31.207   7.589 -0.2459 -0.0886  0.2765
34485POPC   C3A59806   7.845  31.095   7.254  0.0150 -0.2292 -0.0125
34485POPC   C4A59807   7.806  31.277   6.864 -0.2166 -0.2760 -0.3784
34485POPC   C1B59808   7.254  31.325   7.838 -0.1799 -0.1283  0.1199
34485POPC   C2B59809   7.135  31.560   7.457  0.2663  0.2898 -0.1506
34485POPC   C3B59810   7.239  31.581   6.994  0.0659  0.4186 -0.1196
34485POPC   C4B59811   7.342  31.306   6.622 -0.1851 -0.1833  0.0628
34486POPC   NC359812   2.931  21.246   9.321 -0.1659  0.0451  0.0555
34486POPC   PO459813   2.783  20.900   9.480  0.0554 -0.0911  0.0941
34486POPC   GL159814   2.717  20.697   9.071 -0.4915  0.1945  0.1422
34486POPC   GL259815   2.707  20.917   8.879 -0.1656 -0.1691  0.2208
34486POPC   C1A59816   3.093  20.634   8.771  0.3088  0.2457 -0.1292
34486POPC   D2A59817   3.459  20.700   8.489  0.0181 -0.2542  0.0234
34486POPC   C3A59818   3.565  21.123   8.259  0.1292  0.0984 -0.1315
34486POPC   C4A59819   3.844  21.455   8.174 -0.0661  0.1542  0.0841
34486POPC   C1B59820   3.007  21.064   8.538 -0.0258 -0.2305  0.0533
34486POPC   C2B59821   3.029  21.089   8.092 -0.0554  0.3085 -0.1118
34486POPC   C3B59822   3.104  21.172   7.647 -0.0379 -0.0527 -0.1184
34486POPC   C4B59823   2.870  21.128   7.224  0.1170  0.0223  0.1726
34487POPC   NC359824  10.130  32.366   9.713 -0.1563  0.2050  0.0251
34487POPC   PO459825  10.284  32.738   9.710 -0.0751  0.1973 -0.1011
34487POPC   GL159826  10.019  32.908   9.437 -0.0780 -0.0697 -0.2390
34487POPC   GL259827  10.194  33.122   9.328 -0.0880 -0.4562 -0.3897
34487POPC   C1A59828   9.711  33.133   9.184  0.3397  0.3282 -0.0997
34487POPC   D2A59829   9.418  33.459   8.970 -0.0822 -0.3022 -0.2077
34487POPC   C3A59830   9.528  33.725   8.614  0.0956 -0.1290 -0.1024
34487POPC   C4A59831   9.706  33.624   8.214  0.0793  0.0166 -0.0166
34487POPC   C1B59832  10.081  33.399   8.992 -0.1420 -0.0092  0.2624
34487POPC   C2B59833  10.072  33.719   8.599 -0.0627  0.1213  0.4474
34487POPC   C3B59834   9.876  34.063   8.333 -0.4983 -0.0116  0.0078
34487POPC   C4B59835   9.945  34.490   8.390  0.1223  0.2928 -0.2089
34488POPC   NC359836  10.975  15.934   9.340  0.2397 -0.0184 -0.2638
34488POPC   PO459837  11.001  16.345   9.260 -0.0204 -0.2049  0.0478
34488POPC   GL159838  11.018  16.315   8.871  0.3813  0.0442 -0.2743
34488POPC   GL259839  11.037  15.989   8.838  0.1185 -0.0305  0.3144
34488POPC   C1A59840  10.875  16.560   8.510 -0.3769 -0.0853  0.2871
34488POPC   D2A59841  10.884  16.494   8.077 -0.0603  0.2543 -0.0092
34488POPC   C3A59842  10.621  16.591   7.714 -0.0022 -0.0445 -0.0637
34488POPC   C4A59843  10.512  16.857   7.339 -0.2341  0.1501 -0.0186
34488POPC   C1B59844  11.112  16.137   8.379 -0.0975  0.3631  0.1277
34488POPC   C2B59845  11.410  16.458   8.177  0.0874  0.0296 -0.2830
34488POPC   C3B59846  11.260  16.580   7.762  0.3305  0.3610 -0.3486
34488POPC   C4B59847  11.004  16.930   7.689 -0.1047  0.3580 -0.0106
34489POPC   NC359848   9.487  31.089   9.232  0.0295  0.2422 -0.3173
34489POPC   PO459849   9.858  31.106   9.127  0.0343  0.0775 -0.2263
34489POPC   GL159850   9.977  31.071   8.799  0.0391 -0.6319 -0.2460
34489POPC   GL259851  10.137  31.169   8.638 -0.4268 -0.0917 -0.3179
34489POPC   C1A59852   9.691  31.258   8.413  0.1656  0.0613 -0.0775
34489POPC   D2A59853   9.421  31.455   8.102  0.0446 -0.0416  0.0140
34489POPC   C3A59854   9.414  31.544   7.658 -0.1915 -0.2819  0.0876
34489POPC   C4A59855   9.581  31.505   7.228  0.0501 -0.4879  0.0183
34489POPC   C1B59856  10.063  30.997   8.250  0.2030 -0.0389  0.1053
34489POPC   C2B59857  10.265  31.049   7.858 -0.0785 -0.2250  0.0902
34489POPC   C3B59858  10.538  31.184   7.440 -0.0737  0.0959  0.1148
34489POPC   C4B59859  10.869  31.226   7.124 -0.2856 -0.1425  0.1877
34490POPC   NC359860   7.632  29.780   9.473 -0.1194 -0.1230 -0.0178
34490POPC   PO459861   7.657  29.633   9.103 -0.3144  0.0468  0.0294
34490POPC   GL159862   7.802  29.282   8.794  0.1728  0.2243  0.2744
34490POPC   GL259863   7.812  29.454   8.579  0.0694  0.0289 -0.3509
34490POPC   C1A59864   7.867  28.970   8.416  0.0171 -0.1518 -0.1524
34490POPC   D2A59865   7.934  29.013   7.941  0.0292  0.0496  0.2650
34490POPC   C3A59866   7.567  29.064   7.565  0.0082 -0.1287  0.0871
34490POPC   C4A59867   7.186  29.050   7.290 -0.0824 -0.2153 -0.1131
34490POPC   C1B59868   8.091  29.432   8.238  0.1197  0.0850  0.0847
34490POPC   C2B59869   8.378  29.299   7.877  0.1901 -0.2358  0.1683
34490POPC   C3B59870   8.154  29.103   7.494 -0.4184  0.0426  0.1549
34490POPC   C4B59871   7.931  28.625   7.399  0.0265 -0.6055  0.0341
34491POPC   NC359872   6.645  15.905   9.207 -0.1662  0.2881  0.3460
34491POPC   PO459873   6.958  15.988   9.065  0.3658 -0.0538  0.1484
34491POPC   GL159874   7.165  16.040   8.723  0.0057  0.0303  0.0152
34491POPC   GL259875   7.037  16.031   8.504 -0.1655  0.0876  0.1413
34491POPC   C1A59876   7.413  16.305   8.502 -0.0282 -0.2159 -0.0157
34491POPC   D2A59877   7.483  16.721   8.335  0.1822  0.1164 -0.2451
34491POPC   C3A59878   7.640  16.910   7.966  0.0721 -0.1344 -0.0899
34491POPC   C4A59879   7.809  17.308   7.747  0.3957  0.0092  0.1713
34491POPC   C1B59880   7.093  16.270   8.069  0.2720  0.0678 -0.0068
34491POPC   C2B59881   7.278  16.596   7.788  0.0319 -0.2567 -0.2383
34491POPC   C3B59882   7.441  16.970   7.548 -0.1046  0.1624  0.2441
34491POPC   C4B59883   7.361  17.309   7.228  0.0766  0.2813  0.2310
34492POPC   NC359884  11.874  17.300   9.438  0.2323 -0.2406 -0.0608
34492POPC   PO459885  11.942  17.012   9.166  0.2254  0.1630 -0.1970
34492POPC   GL159886  11.774  17.227   8.942  0.1146  0.1759 -0.0741
34492POPC   GL259887  11.490  17.139   9.004  0.0265 -0.1813 -0.1943
34492POPC   C1A59888  11.604  17.204   8.522 -0.0959  0.1532  0.0621
34492POPC   D2A59889  11.584  17.403   8.106 -0.1069  0.0437  0.0370
34492POPC   C3A59890  11.117  17.411   8.003 -0.1128 -0.1101 -0.0721
34492POPC   C4A59891  10.721  17.357   7.750 -0.2583 -0.2789  0.1006
34492POPC   C1B59892  11.407  17.558   8.965 -0.0988 -0.2797  0.1519
34492POPC   C2B59893  11.505  17.954   8.824 -0.0799 -0.1569  0.0803
34492POPC   C3B59894  11.386  18.418   8.724  0.0533  0.2631 -0.2571
34492POPC   C4B59895  11.175  18.765   8.578  0.1534  0.0686  0.1806
34493POPC   NC359896   4.218  30.717   8.399 -0.3172  0.0116  0.1915
34493POPC   PO459897   3.912  30.886   8.182 -0.1624 -0.2217 -0.3753
34493POPC   GL159898   4.116  30.836   7.872  0.2249  0.0674 -0.3317
34493POPC   GL259899   4.086  30.542   7.795  0.0363 -0.0501  0.0692
34493POPC   C1A59900   4.204  31.190   7.600 -0.1582  0.0037  0.2169
34493POPC   D2A59901   4.261  31.647   7.467 -0.2799 -0.1990 -0.0161
34493POPC   C3A59902   4.220  31.593   6.994  0.1105  0.1675  0.1072
34493POPC   C4A59903   3.994  31.701   6.625  0.2856  0.0824 -0.1979
34493POPC   C1B59904   4.189  30.712   7.415  0.0720  0.1852 -0.1065
34493POPC   C2B59905   4.089  31.050   7.090  0.3647  0.2445  0.0538
34493POPC   C3B59906   3.859  31.144   6.713  0.1156  0.1916  0.0939
34493POPC   C4B59907   3.587  30.817   6.470 -0.0250  0.0223 -0.1208
34494POPC   NC359908   5.155  23.583  12.463  0.0632  0.1603  0.1329
34494POPC   PO459909   4.963  23.834  12.706 -0.1679  0.0430  0.1026
34494POPC   GL159910   5.198  23.528  12.892 -0.3870 -0.2692 -0.1960
34494POPC   GL259911   5.183  23.319  13.082 -0.2321  0.3158  0.1752
34494POPC   C1A59912   5.672  23.575  12.814  0.0752  0.3546 -0.2287
34494POPC   D2A59913   6.067  23.446  12.560 -0.0348 -0.2045  0.2005
34494POPC   C3A59914   6.527  23.638  12.621 -0.1263  0.2004 -0.1587
34494POPC   C4A59915   6.962  23.602  12.481  0.1827  0.0056 -0.0176
34494POPC   C1B59916   5.654  23.192  13.196 -0.1831 -0.2743 -0.1317
34494POPC   C2B59917   6.067  23.057  13.388  0.0289 -0.1246  0.0260
34494POPC   C3B59918   6.552  23.020  13.367  0.0554 -0.2433 -0.0402
34494POPC   C4B59919   6.880  23.292  13.470  0.0560 -0.0911  0.1848
34495POPC   NC359920   8.389  26.605  13.037 -0.1598  0.1617 -0.1546
34495POPC   PO459921   8.076  26.751  12.812 -0.0843 -0.4841  0.0623
34495POPC   GL159922   8.031  26.348  12.850 -0.2374 -0.0299  0.2997
34495POPC   GL259923   8.219  26.205  12.757 -0.1236 -0.2281  0.0782
34495POPC   C1A59924   7.798  25.977  12.607 -0.0223  0.0736  0.0471
34495POPC   D2A59925   7.695  25.542  12.458  0.0134 -0.0492 -0.0031
34495POPC   C3A59926   8.077  25.282  12.488 -0.0039 -0.0242 -0.0534
34495POPC   C4A59927   8.342  24.899  12.395  0.0762 -0.1353 -0.0018
34495POPC   C1B59928   8.319  25.740  12.688  0.1754 -0.1117  0.2350
34495POPC   C2B59929   8.549  25.442  12.402  0.1058  0.0615 -0.3536
34495POPC   C3B59930   8.786  25.099  12.264 -0.2522 -0.0348 -0.1194
34495POPC   C4B59931   8.918  24.772  12.546 -0.0646  0.2330  0.1701
34496POPC   NC359932   9.941  31.846   9.165  0.1154 -0.2780 -0.0790
34496POPC   PO459933  10.104  31.513   8.984 -0.1239 -0.1040 -0.4143
34496POPC   GL159934   9.898  31.778   8.683 -0.0925 -0.0773 -0.0815
34496POPC   GL259935   9.941  31.652   8.472 -0.1434 -0.1914 -0.1576
34496POPC   C1A59936   9.579  31.904   8.299  0.2320  0.0432  0.3222
34496POPC   D2A59937   9.633  32.141   7.932  0.1783  0.2030 -0.0349
34496POPC   C3A59938   9.905  32.020   7.588 -0.2055  0.1334  0.0508
34496POPC   C4A59939  10.330  31.947   7.417  0.4469 -0.4623 -0.2027
34496POPC   C1B59940   9.945  31.512   8.058  0.0928  0.0100  0.0477
34496POPC   C2B59941   9.810  31.160   7.796 -0.1172 -0.1149  0.0207
34496POPC   C3B59942   9.548  30.966   7.423 -0.4177 -0.3593  0.0938
34496POPC   C4B59943   9.701  30.625   7.198  0.1005  0.0824 -0.0467
34497POPC   NC359944   7.184  32.041  15.486 -0.1058 -0.1157 -0.1178
34497POPC   PO459945   6.824  31.995  15.647 -0.1657  0.0820  0.0094
34497POPC   GL159946   6.870  32.104  15.991  0.2543  0.1140 -0.0196
34497POPC   GL259947   7.025  32.369  15.914 -0.1219 -0.2186  0.0998
34497POPC   C1A59948   6.728  32.037  16.436  0.2771 -0.1158 -0.4503
34497POPC   D2A59949   6.769  32.021  16.909 -0.0842 -0.0041  0.1075
34497POPC   C3A59950   6.939  32.156  17.350  0.0050  0.0824 -0.0973
34497POPC   C4A59951   7.009  32.056  17.861 -0.1920  0.1594 -0.2019
34497POPC   C1B59952   7.282  32.187  16.274 -0.1159  0.1596 -0.0736
34497POPC   C2B59953   7.621  32.218  16.585  0.1735 -0.1069 -0.0672
34497POPC   C3B59954   7.804  32.367  16.980 -0.0189  0.0375 -0.1970
34497POPC   C4B59955   7.961  32.328  17.448 -0.1186  0.3875 -0.0550
34498POPC   NC359956  10.202  30.186   9.625 -0.0517  0.0945 -0.2227
34498POPC   PO459957  10.026  30.230   9.253  0.1060 -0.2272  0.0853
34498POPC   GL159958   9.976  30.005   8.878  0.2956 -0.1189  0.0007
34498POPC   GL259959   9.761  30.243   8.802  0.1770 -0.1829 -0.2779
34498POPC   C1A59960  10.318  30.135   8.554 -0.2493  0.0848 -0.2347
34498POPC   D2A59961  10.479  30.364   8.217 -0.3930  0.0240  0.1081
34498POPC   C3A59962  10.130  30.557   8.004 -0.1225 -0.2714  0.2669
34498POPC   C4A59963  10.024  30.741   7.566  0.2613  0.1208 -0.1049
34498POPC   C1B59964   9.857  30.260   8.368  0.2193  0.0625 -0.3089
34498POPC   C2B59965   9.855  30.103   7.935 -0.0343 -0.1475 -0.0822
34498POPC   C3B59966   9.752  30.267   7.518 -0.1481  0.1742  0.1184
34498POPC   C4B59967   9.564  30.075   7.122  0.1394 -0.2103  0.2056
34499POPC   NC359968   5.654  17.851   9.988  0.0613  0.2359  0.0581
34499POPC   PO459969   5.927  18.109  10.019  0.2827 -0.1293 -0.2924
34499POPC   GL159970   6.105  18.252   9.688 -0.2094  0.1651  0.1659
34499POPC   GL259971   6.271  18.009   9.555  0.0115  0.1856  0.3138
34499POPC   C1A59972   6.249  18.486   9.316 -0.2206 -0.3097 -0.1185
34499POPC   D2A59973   6.188  18.776   8.939  0.1511  0.0166 -0.2986
34499POPC   C3A59974   6.518  18.792   8.665 -0.0024 -0.0189  0.3703
34499POPC   C4A59975   6.966  18.819   8.619 -0.0588  0.1024 -0.1427
34499POPC   C1B59976   6.016  18.028   9.189  0.1375 -0.0681 -0.1113
34499POPC   C2B59977   5.926  18.381   8.915 -0.1514 -0.0568  0.1272
34499POPC   C3B59978   5.893  18.630   8.538  0.0225  0.1524 -0.0060
34499POPC   C4B59979   5.661  18.750   8.157  0.0800 -0.0205  0.0764
34500POPC   NC359980   2.615  28.138   8.103  0.2649  0.1254 -0.1105
34500POPC   PO459981   2.561  28.505   7.991  0.0748 -0.0241 -0.0898
34500POPC   GL159982   2.769  28.780   7.746  0.0524 -0.2910 -0.1417
34500POPC   GL259983   2.871  28.953   7.942  0.1462 -0.1916 -0.3678
34500POPC   C1A59984   2.818  28.706   7.325 -0.2811 -0.1343 -0.3594
34500POPC   D2A59985   2.837  28.877   6.896 -0.1056 -0.1676  0.1778
34500POPC   C3A59986   2.467  28.852   6.575 -0.1177  0.4316  0.2090
34500POPC   C4A59987   2.140  28.661   6.285  0.0422 -0.2217  0.3173
34500POPC   C1B59988   3.208  28.784   7.676 -0.1045 -0.0849  0.1866
34500POPC   C2B59989   3.366  28.823   7.214 -0.3007 -0.0555  0.0616
34500POPC   C3B59990   3.336  28.878   6.695  0.2769  0.1061 -0.0507
34500POPC   C4B59991   3.186  28.984   6.213 -0.1181 -0.0215  0.1798
34501POPC   NC359992  32.790  19.416   9.010 -0.0357 -0.1135 -0.0138
34501POPC   PO459993  32.999  19.648   9.224  0.0491  0.1015  0.2380
34501POPC   GL159994  33.136  19.785   8.886  0.0455 -0.1381  0.1510
34501POPC   GL259995  33.136  19.580   8.654  0.0961 -0.0121 -0.0992
34501POPC   C1A59996  32.965  20.026   8.533  0.1977  0.0976  0.1913
34501POPC   D2A59997  32.741  20.102   8.134 -0.0012 -0.0840 -0.1071
34501POPC   C3A59998  32.532  19.886   7.812 -0.0746 -0.1102  0.2938
34501POPC   C4A59999  32.157  19.831   7.605 -0.1968 -0.0181  0.0194
34501POPC   C1B60000  33.102  19.628   8.172 -0.2478 -0.2936  0.0540
34501POPC   C2B60001  33.026  19.700   7.755  0.0868  0.3469 -0.0110
34501POPC   C3B60002  33.157  19.831   7.327  0.1911 -0.1176 -0.0765
34501POPC   C4B60003  33.000  20.122   7.005  0.2044 -0.1183 -0.0899
34502POPC   NC360004   9.447  17.360  12.155 -0.3784 -0.0168  0.0385
34502POPC   PO460005   9.668  17.670  12.250  0.1772  0.0631 -0.3247
34502POPC   GL160006   9.819  18.041  12.120  0.1166 -0.1191  0.2929
34502POPC   GL260007   9.982  18.104  12.367  0.1243 -0.0107 -0.1800
34502POPC   C1A60008   9.887  18.491  12.141 -0.0992 -0.0294  0.1485
34502POPC   D2A60009   9.840  18.944  12.146 -0.2267  0.1214 -0.0971
34502POPC   C3A60010  10.057  19.099  12.530 -0.3020 -0.2273  0.1791
34502POPC   C4A60011  10.507  19.260  12.634 -0.1195 -0.1073  0.0015
34502POPC   C1B60012   9.891  18.445  12.643  0.1619 -0.0230 -0.1695
34502POPC   C2B60013   9.755  18.850  12.867 -0.3067 -0.0687 -0.1287
34502POPC   C3B60014   9.754  19.314  12.899 -0.0684  0.1113 -0.3671
34502POPC   C4B60015  10.027  19.592  12.675 -0.1703  0.3800 -0.3440
34503POPC   NC360016   2.304   1.306   8.519 -0.3853  0.2430  0.1369
34503POPC   PO460017   2.179   0.960   8.579 -0.1376 -0.0839  0.0136
34503POPC   GL160018   2.116   0.843   8.136  0.3439 -0.2427  0.0442
34503POPC   GL260019   2.369   0.933   8.115  0.0124  0.1088  0.2059
34503POPC   C1A60020   1.990   0.980   7.765 -0.0820 -0.1610  0.3396
34503POPC   D2A60021   2.142   1.203   7.351  0.1813 -0.0174  0.2055
34503POPC   C3A60022   2.449   1.354   7.084 -0.2888 -0.2696  0.1695
34503POPC   C4A60023   2.781   1.549   6.843 -0.1224  0.1256  0.0355
34503POPC   C1B60024   2.541   1.026   7.649 -0.0084  0.3426 -0.1503
34503POPC   C2B60025   2.776   0.949   7.219  0.1177  0.0059  0.1177
34503POPC   C3B60026   3.019   0.998   6.846  0.0261 -0.3192 -0.2121
34503POPC   C4B60027   3.355   1.230   6.647  0.1981 -0.1010  0.4241
34504POPC   NC360028   3.716  18.415   9.304  0.2654 -0.1069 -0.1584
34504POPC   PO460029   3.336  18.478   9.402 -0.0742  0.2995 -0.2299
34504POPC   GL160030   3.340  18.559   8.956 -0.1215  0.0977  0.2760
34504POPC   GL260031   3.520  18.784   8.970 -0.4407  0.2674  0.3081
34504POPC   C1A60032   3.447  18.333   8.574  0.1721  0.1854 -0.0534
34504POPC   D2A60033   3.869  18.113   8.414  0.1931 -0.3563 -0.1612
34504POPC   C3A60034   3.706  18.072   8.013 -0.1701  0.0722 -0.1154
34504POPC   C4A60035   3.994  18.146   7.615 -0.0559  0.0310  0.3219
34504POPC   C1B60036   3.480  18.845   8.551 -0.0478  0.1012  0.0032
34504POPC   C2B60037   3.650  18.571   8.152 -0.0883  0.1901 -0.1112
34504POPC   C3B60038   3.888  18.654   7.745 -0.1607  0.0649  0.1850
34504POPC   C4B60039   4.114  19.010   7.600  0.2068 -0.0628 -0.4939
34505POPC   NC360040   3.908  21.335  10.232 -0.1506  0.2342  0.1135
34505POPC   PO460041   3.821  21.689  10.203  0.0434 -0.1396 -0.0722
34505POPC   GL160042   4.125  21.756   9.990 -0.0381 -0.1126  0.0498
34505POPC   GL260043   4.317  21.697  10.172  0.1961 -0.1724  0.2795
34505POPC   C1A60044   4.425  21.729   9.697  0.0216 -0.2008 -0.1528
34505POPC   D2A60045   4.434  21.879   9.265 -0.1495 -0.3069  0.0577
34505POPC   C3A60046   4.295  21.572   8.888 -0.1731  0.0323 -0.2504
34505POPC   C4A60047   4.627  21.323   8.694 -0.0775 -0.3099  0.2099
34505POPC   C1B60048   4.793  21.651  10.093  0.3594  0.1318 -0.0389
34505POPC   C2B60049   5.092  21.600   9.801  0.1086  0.0814 -0.2622
34505POPC   C3B60050   5.500  21.627   9.572  0.0694  0.0691 -0.2053
34505POPC   C4B60051   5.800  21.430   9.290  0.0307 -0.1610 -0.0013
34506POPC   NC360052  15.690  30.109   8.242  0.0079 -0.2185  0.3331
34506POPC   PO460053  15.346  29.969   8.336 -0.0731  0.0578 -0.0277
34506POPC   GL160054  15.172  29.780   8.143  0.3536  0.2374 -0.1285
34506POPC   GL260055  14.976  29.990   8.004 -0.1076 -0.0652 -0.0219
34506POPC   C1A60056  15.137  29.601   7.731 -0.4159  0.1352  0.2020
34506POPC   D2A60057  15.089  29.276   7.375 -0.0233  0.1721 -0.2294
34506POPC   C3A60058  14.699  29.156   7.145  0.0997  0.1144  0.1313
34506POPC   C4A60059  14.479  29.408   6.828 -0.0597  0.3160 -0.1078
34506POPC   C1B60060  14.876  30.089   7.578  0.1528 -0.0491  0.0793
34506POPC   C2B60061  14.900  30.021   7.130  0.1624 -0.2541 -0.1526
34506POPC   C3B60062  14.748  29.988   6.703  0.2054 -0.1988  0.2138
34506POPC   C4B60063  14.930  29.842   6.271 -0.2040  0.0549 -0.1141
34507POPC   NC360064   5.551  21.039  13.559  0.0470 -0.0679  0.3672
34507POPC   PO460065   5.334  21.346  13.706  0.0078  0.0089 -0.1638
34507POPC   GL160066   5.786  21.316  13.759  0.1899 -0.2885 -0.0345
34507POPC   GL260067   5.753  21.465  14.059 -0.3222  0.1902 -0.1726
34507POPC   C1A60068   6.247  21.325  13.841  0.2167 -0.1729 -0.0390
34507POPC   D2A60069   6.577  21.572  13.887 -0.1424 -0.0422  0.2000
34507POPC   C3A60070   7.018  21.521  13.794 -0.2139 -0.1640  0.0172
34507POPC   C4A60071   7.493  21.560  13.739  0.2432  0.1134  0.1656
34507POPC   C1B60072   6.107  21.625  14.318 -0.0048 -0.1796  0.0224
34507POPC   C2B60073   6.278  21.509  14.763  0.0393  0.0397 -0.1166
34507POPC   C3B60074   6.533  21.608  15.224  0.2217  0.4163 -0.0058
34507POPC   C4B60075   6.986  21.731  15.310 -0.1179  0.2833 -0.0842
34508POPC   NC360076   3.308  19.026   9.466 -0.0896 -0.1895 -0.1628
34508POPC   PO460077   3.620  19.156   9.271  0.0268 -0.0748  0.0907
34508POPC   GL160078   3.784  19.518   9.118  0.0504  0.0919 -0.0290
34508POPC   GL260079   4.046  19.415   9.034 -0.0946  0.0757  0.0633
34508POPC   C1A60080   3.852  19.682   8.697  0.0572  0.2489 -0.0978
34508POPC   D2A60081   4.151  19.535   8.364 -0.2233 -0.2126 -0.1959
34508POPC   C3A60082   3.986  19.877   8.118  0.2264 -0.1113 -0.4629
34508POPC   C4A60083   4.057  20.229   7.836 -0.3753 -0.1859 -0.1347
34508POPC   C1B60084   3.865  19.142   8.665  0.1630 -0.0430 -0.3348
34508POPC   C2B60085   4.032  18.955   8.290 -0.1169 -0.0700  0.0081
34508POPC   C3B60086   4.386  18.882   7.971 -0.1383  0.2837  0.0976
34508POPC   C4B60087   4.795  18.807   7.745 -0.1673 -0.2194  0.0710
34509POPC   NC360088   2.648  26.627   8.594 -0.0466  0.0184 -0.1104
34509POPC   PO460089   2.981  26.695   8.743 -0.0689 -0.1381 -0.1011
34509POPC   GL160090   3.097  26.548   8.322 -0.2747 -0.1440 -0.4569
34509POPC   GL260091   3.217  26.688   8.160 -0.0124 -0.1118  0.0648
34509POPC   C1A60092   3.233  26.129   8.113 -0.2664  0.1835  0.1804
34509POPC   D2A60093   3.406  25.788   7.776  0.3303  0.1205 -0.0074
34509POPC   C3A60094   3.582  25.915   7.353 -0.1227 -0.0246  0.2359
34509POPC   C4A60095   3.905  25.849   7.001  0.0707 -0.0294 -0.1671
34509POPC   C1B60096   3.421  26.496   7.809  0.3241  0.1632  0.0181
34509POPC   C2B60097   3.483  26.435   7.402 -0.0474 -0.0970  0.1848
34509POPC   C3B60098   3.321  26.508   6.939  0.1862 -0.1025 -0.1368
34509POPC   C4B60099   2.967  26.430   6.718 -0.1803 -0.1185 -0.0321
34510POPC   NC360100   2.650  22.454  10.161 -0.1872 -0.3604  0.0084
34510POPC   PO460101   2.833  22.420   9.814 -0.1376 -0.1125 -0.0663
34510POPC   GL160102   2.968  22.394   9.451  0.3820 -0.2478  0.0908
34510POPC   GL260103   3.050  22.111   9.393 -0.0261  0.2274  0.1995
34510POPC   C1A60104   2.950  22.482   9.027 -0.0324  0.1419  0.0982
34510POPC   D2A60105   3.006  22.391   8.588 -0.0443 -0.4715  0.2734
34510POPC   C3A60106   2.904  22.664   8.219  0.3411 -0.3072  0.0247
34510POPC   C4A60107   3.085  22.915   7.884  0.0188 -0.0949  0.1447
34510POPC   C1B60108   3.026  21.963   8.944 -0.3312  0.0241  0.3896
34510POPC   C2B60109   3.268  21.906   8.558 -0.0285 -0.3779 -0.0452
34510POPC   C3B60110   3.438  22.107   8.149 -0.1032 -0.0569  0.1500
34510POPC   C4B60111   3.687  21.857   7.795  0.0378 -0.1502  0.0087
34511POPC   NC360112  14.277  16.382   9.247  0.2401  0.2283  0.1663
34511POPC   PO460113  14.257  16.618   8.928 -0.0955 -0.1612 -0.1899
34511POPC   GL160114  14.045  16.764   8.612 -0.1951 -0.0667 -0.1525
34511POPC   GL260115  13.802  16.534   8.609 -0.0804 -0.0996  0.1372
34511POPC   C1A60116  14.185  16.970   8.199  0.0625  0.2471 -0.0705
34511POPC   D2A60117  14.141  17.220   7.787  0.3260  0.0283 -0.0253
34511POPC   C3A60118  14.059  17.111   7.303 -0.1921 -0.0262 -0.0664
34511POPC   C4A60119  13.779  16.990   6.989  0.0927  0.0931  0.3061
34511POPC   C1B60120  13.655  16.717   8.235  0.1068 -0.2524  0.1677
34511POPC   C2B60121  13.617  16.941   7.826 -0.2059  0.0366  0.1172
34511POPC   C3B60122  13.596  17.396   7.684  0.0177 -0.0533  0.1479
34511POPC   C4B60123  13.649  17.718   7.384 -0.0730 -0.2191  0.1824
34512POPC   NC360124   7.816  29.970   8.643 -0.2681  0.0875  0.0419
34512POPC   PO460125   8.163  29.851   8.766 -0.2222  0.0449 -0.0053
34512POPC   GL160126   8.436  29.618   8.606  0.3495 -0.2701 -0.1309
34512POPC   GL260127   8.615  29.496   8.489 -0.0885  0.1264  0.2584
34512POPC   C1A60128   8.277  29.134   8.632  0.0581  0.0855 -0.3057
34512POPC   D2A60129   8.253  28.641   8.623 -0.3815  0.1894 -0.3986
34512POPC   C3A60130   8.388  28.337   8.260  0.0547  0.0022  0.4137
34512POPC   C4A60131   8.603  28.069   7.948  0.0367  0.1461 -0.1490
34512POPC   C1B60132   8.826  29.335   8.120 -0.0986  0.2062  0.0999
34512POPC   C2B60133   8.865  29.031   7.810 -0.0848  0.2060 -0.0262
34512POPC   C3B60134   8.630  29.202   7.450  0.0732  0.1157 -0.0200
34512POPC   C4B60135   8.461  29.000   7.038  0.0135 -0.0419 -0.1417
34513POPC   NC360136   5.254  24.875  13.152  0.0742 -0.0082  0.0348
34513POPC   PO460137   5.511  25.013  13.421  0.3341 -0.4768 -0.1133
34513POPC   GL160138   5.801  24.855  13.515 -0.2407  0.4262 -0.4802
34513POPC   GL260139   5.729  24.650  13.675  0.0528  0.1131  0.1791
34513POPC   C1A60140   6.097  24.589  13.322 -0.2168 -0.3870  0.1356
34513POPC   D2A60141   6.490  24.289  13.235  0.0297 -0.0001  0.2242
34513POPC   C3A60142   6.977  24.106  13.160 -0.2882 -0.1960  0.0034
34513POPC   C4A60143   7.216  23.808  13.424 -0.0858 -0.1054  0.1016
34513POPC   C1B60144   5.727  24.244  13.895  0.1493 -0.0688 -0.0575
34513POPC   C2B60145   5.968  23.826  13.894 -0.0853 -0.1149  0.2150
34513POPC   C3B60146   6.223  23.506  14.149 -0.0514  0.1262 -0.2021
34513POPC   C4B60147   6.587  23.574  14.396 -0.0114  0.1587  0.0601
34514POPC   NC360148   2.682  31.084   8.125 -0.0523 -0.1348 -0.0041
34514POPC   PO460149   2.385  31.298   7.963 -0.2242 -0.1554 -0.1820
34514POPC   GL160150   2.464  31.502   7.638  0.1744  0.1754 -0.4354
34514POPC   GL260151   2.368  31.396   7.405  0.0080  0.2915 -0.0303
34514POPC   C1A60152   2.301  31.901   7.443  0.2531  0.1387 -0.0455
34514POPC   D2A60153   2.230  32.134   7.054  0.1564 -0.0333 -0.2609
34514POPC   C3A60154   2.466  32.048   6.678 -0.1357  0.2396 -0.0935
34514POPC   C4A60155   2.760  32.075   6.315 -0.0214 -0.0106  0.0339
34514POPC   C1B60156   2.530  31.675   7.072  0.0818  0.0216  0.0594
34514POPC   C2B60157   2.543  31.558   6.615 -0.0317 -0.2908  0.1708
34514POPC   C3B60158   2.573  31.281   6.201  0.1164  0.1480 -0.2195
34514POPC   C4B60159   2.140  31.104   5.959 -0.2285  0.1120  0.1094
34515POPC   NC360160   4.138  29.826   8.544 -0.1817  0.1235 -0.0111
34515POPC   PO460161   4.168  30.164   8.340 -0.2180  0.2496  0.2379
34515POPC   GL160162   4.214  29.912   8.067  0.0040  0.0670  0.4368
34515POPC   GL260163   4.137  30.004   7.808  0.0046  0.1708 -0.1994
34515POPC   C1A60164   4.661  29.991   7.863 -0.0023 -0.0275 -0.2439
34515POPC   D2A60165   5.082  30.099   7.910 -0.2030 -0.0696  0.0373
34515POPC   C3A60166   5.256  30.158   7.425  0.3813  0.1961 -0.4802
34515POPC   C4A60167   5.231  30.023   6.961 -0.0091  0.2082 -0.0799
34515POPC   C1B60168   3.958  30.078   7.435 -0.1362 -0.0469 -0.0730
34515POPC   C2B60169   3.815  30.133   6.989 -0.1237  0.1860 -0.0839
34515POPC   C3B60170   3.937  30.285   6.546  0.0292  0.1253 -0.0278
34515POPC   C4B60171   3.900  30.266   6.108  0.1173  0.2536 -0.2929
34516POPC   NC360172  15.471  18.803   8.782 -0.2544  0.2264  0.2562
34516POPC   PO460173  15.813  18.995   8.827 -0.0707 -0.1313 -0.2829
34516POPC   GL160174  15.581  19.254   8.714 -0.1555 -0.0572 -0.2455
34516POPC   GL260175  15.418  19.188   8.469  0.0769  0.3585 -0.1731
34516POPC   C1A60176  15.532  19.732   8.611 -0.0294  0.0666  0.0397
34516POPC   D2A60177  15.449  19.961   8.242 -0.1071  0.4869 -0.1114
34516POPC   C3A60178  15.383  19.777   7.813 -0.0812  0.0884 -0.1173
34516POPC   C4A60179  15.488  19.889   7.360 -0.1725  0.3095  0.1282
34516POPC   C1B60180  15.238  19.419   8.087  0.0098  0.0437  0.1210
34516POPC   C2B60181  14.846  19.409   7.806  0.1762  0.0476 -0.0807
34516POPC   C3B60182  14.528  19.241   7.515 -0.1658 -0.0312  0.4152
34516POPC   C4B60183  14.209  19.386   7.280  0.1815  0.1707 -0.0744
34517POPC   NC360184   8.466  17.727  12.404 -0.3758  0.2636  0.3922
34517POPC   PO460185   8.798  17.678  12.643 -0.1406 -0.2539  0.1021
34517POPC   GL160186   8.600  18.106  12.619  0.0691  0.2826 -0.1456
34517POPC   GL260187   8.816  18.192  12.395  0.2522  0.3491  0.0074
34517POPC   C1A60188   8.514  18.595  12.726  0.0126  0.0465 -0.1990
34517POPC   D2A60189   8.579  19.013  12.583 -0.0341 -0.2123 -0.2542
34517POPC   C3A60190   8.662  19.171  12.161  0.0337 -0.1386  0.3596
34517POPC   C4A60191   8.548  19.010  11.724 -0.2026 -0.0393  0.1390
34517POPC   C1B60192   9.270  18.294  12.537 -0.1468  0.1452  0.0760
34517POPC   C2B60193   9.516  18.681  12.454  0.0137 -0.1533 -0.1090
34517POPC   C3B60194   9.524  19.124  12.507 -0.1204 -0.0483  0.2723
34517POPC   C4B60195   9.491  19.613  12.584 -0.2160 -0.0978  0.0955
34518POPC   NC360196   8.000  32.751  10.230  0.1739 -0.0697 -0.0660
34518POPC   PO460197   8.000  33.004   9.953  0.2223 -0.2008  0.0297
34518POPC   GL160198   8.001  33.297   9.603 -0.4662  0.1031 -0.1999
34518POPC   GL260199   7.756  33.272   9.473 -0.1883  0.2077  0.0326
34518POPC   C1A60200   8.124  33.359   9.150 -0.0328 -0.1133 -0.1115
34518POPC   D2A60201   8.262  33.639   8.843  0.2158 -0.1883 -0.0008
34518POPC   C3A60202   8.480  33.479   8.438 -0.0630 -0.1077 -0.1512
34518POPC   C4A60203   8.702  33.552   8.096  0.0376  0.0589  0.0690
34518POPC   C1B60204   7.739  33.676   9.083 -0.1255  0.1763  0.0665
34518POPC   C2B60205   7.729  33.837   8.655  0.1259 -0.4245 -0.1498
34518POPC   C3B60206   7.760  34.201   8.373 -0.1364  0.2251  0.1452
34518POPC   C4B60207   7.791  34.061   7.926 -0.3374 -0.3175 -0.2071
34519POPC   NC360208   1.211  17.319   8.271 -0.0954  0.1692 -0.3406
34519POPC   PO460209   1.318  16.953   8.371  0.0545 -0.0853 -0.1875
34519POPC   GL160210   1.617  17.083   8.129 -0.2420 -0.1901  0.0829
34519POPC   GL260211   1.500  16.912   7.908 -0.0961  0.0614  0.3430
34519POPC   C1A60212   2.054  17.075   8.061 -0.0940  0.0136 -0.1583
34519POPC   D2A60213   2.183  16.878   7.704 -0.1030  0.2848  0.1118
34519POPC   C3A60214   2.208  16.943   7.277 -0.2140 -0.2475  0.0093
34519POPC   C4A60215   2.536  16.962   6.871 -0.0636  0.0132 -0.1575
34519POPC   C1B60216   1.755  17.245   7.678 -0.2850 -0.0256 -0.1818
34519POPC   C2B60217   1.963  17.393   7.313  0.1656  0.0849  0.0870
34519POPC   C3B60218   1.742  17.532   6.854  0.0331  0.0136 -0.2686
34519POPC   C4B60219   1.593  17.871   6.573 -0.1923 -0.0879  0.0486
34520POPC   NC360220  15.272  21.393  14.341  0.0715  0.0394  0.1555
34520POPC   PO460221  15.358  21.705  14.564  0.1686  0.0331 -0.2270
34520POPC   GL160222  15.147  21.442  14.785  0.0314 -0.4201  0.3824
34520POPC   GL260223  15.252  21.450  15.026  0.1727  0.1060 -0.2363
34520POPC   C1A60224  14.693  21.466  14.955  0.0021  0.2142 -0.0258
34520POPC   D2A60225  14.251  21.476  15.094 -0.1648  0.2569  0.1064
34520POPC   C3A60226  13.874  21.287  14.940  0.1211 -0.2811  0.0028
34520POPC   C4A60227  13.388  21.323  14.898  0.2157 -0.2507 -0.0181
34520POPC   C1B60228  14.981  21.639  15.355 -0.0261  0.1242  0.1372
34520POPC   C2B60229  14.634  21.933  15.414 -0.1076 -0.0272 -0.1573
34520POPC   C3B60230  14.434  22.101  15.809  0.1736 -0.2009 -0.0366
34520POPC   C4B60231  14.074  22.331  15.966 -0.0193  0.0128  0.0406
34521POPC   NC360232  11.525  30.125  16.080 -0.0491  0.4141 -0.1713
34521POPC   PO460233  11.732  30.481  16.058 -0.0323  0.0440 -0.1771
34521POPC   GL160234  11.650  30.625  16.506 -0.2149 -0.3156 -0.1604
34521POPC   GL260235  11.498  30.351  16.544 -0.2138 -0.5677  0.3874
34521POPC   C1A60236  11.602  30.955  16.786 -0.0579 -0.0590 -0.1262
34521POPC   D2A60237  11.788  31.151  17.164  0.0256  0.0781 -0.0085
34521POPC   C3A60238  11.682  31.181  17.644  0.0082  0.0719 -0.0771
34521POPC   C4A60239  11.351  30.939  17.931 -0.0932  0.1695 -0.4466
34521POPC   C1B60240  11.323  30.512  16.942 -0.1061 -0.2379 -0.1733
34521POPC   C2B60241  11.424  30.731  17.349  0.0100 -0.2954 -0.1767
34521POPC   C3B60242  11.748  30.695  17.746  0.1462 -0.0275  0.1752
34521POPC   C4B60243  12.149  30.629  18.018  0.0737  0.0366 -0.1375
34522POPC   NC360244  14.236  20.516  13.558 -0.1073 -0.4383  0.0220
34522POPC   PO460245  14.655  20.590  13.595  0.0288 -0.2874  0.0031
34522POPC   GL160246  14.487  20.734  13.959  0.1315 -0.0170 -0.1070
34522POPC   GL260247  14.694  20.947  13.981 -0.2942 -0.0697 -0.2448
34522POPC   C1A60248  14.122  20.636  14.204  0.0515 -0.1287 -0.1976
34522POPC   D2A60249  13.599  20.680  14.227 -0.2486  0.1140  0.0981
34522POPC   C3A60250  13.101  20.684  14.100 -0.1282  0.0221  0.2434
34522POPC   C4A60251  12.662  20.803  13.960  0.3008  0.2616 -0.0534
34522POPC   C1B60252  14.360  21.085  14.246 -0.1310  0.2252  0.3644
34522POPC   C2B60253  13.947  21.085  14.515 -0.1732  0.2182 -0.0713
34522POPC   C3B60254  13.659  20.857  14.810  0.0909 -0.3578 -0.2264
34522POPC   C4B60255  13.355  20.733  15.154  0.1050 -0.0373 -0.2052
34523POPC   NC360256   4.852  19.181  14.059 -0.2393  0.1873 -0.3250
34523POPC   PO460257   5.160  18.979  14.185 -0.3472  0.1050 -0.2417
34523POPC   GL160258   5.043  19.046  14.527 -0.0086 -0.3181 -0.2036
34523POPC   GL260259   4.801  19.169  14.636  0.1547 -0.0340  0.0381
34523POPC   C1A60260   5.343  19.169  14.842 -0.0403  0.3612 -0.1997
34523POPC   D2A60261   5.512  19.441  15.182 -0.3037 -0.1835  0.0886
34523POPC   C3A60262   5.847  19.294  15.445 -0.1097  0.0144  0.0201
34523POPC   C4A60263   6.060  19.371  15.847 -0.0543 -0.0225 -0.0995
34523POPC   C1B60264   4.909  19.164  15.099  0.3025  0.0043  0.1890
34523POPC   C2B60265   4.871  19.002  15.523  0.3249  0.1207 -0.2170
34523POPC   C3B60266   4.882  18.750  15.875 -0.4159  0.0269 -0.0133
34523POPC   C4B60267   4.645  18.496  16.171  0.1722  0.0046  0.1197
34524POPC   NC360268   8.151  32.839   9.379 -0.1152  0.2438 -0.0091
34524POPC   PO460269   8.037  32.443   9.395  0.0395  0.0681 -0.1763
34524POPC   GL160270   8.129  32.486   9.029  0.0575 -0.0603 -0.0429
34524POPC   GL260271   7.863  32.629   8.895  0.1334 -0.3116  0.0047
34524POPC   C1A60272   8.136  32.201   8.670 -0.0201  0.0040  0.3232
34524POPC   D2A60273   8.296  31.989   8.286 -0.1421  0.1639 -0.2431
34524POPC   C3A60274   8.633  32.077   7.980 -0.3320  0.1697 -0.0950
34524POPC   C4A60275   8.817  32.079   7.550  0.1407 -0.2888 -0.0284
34524POPC   C1B60276   8.129  32.883   8.646  0.0605 -0.0794  0.0318
34524POPC   C2B60277   8.198  33.013   8.198  0.1638  0.1458  0.1057
34524POPC   C3B60278   8.241  32.806   7.770  0.0465 -0.2137  0.1962
34524POPC   C4B60279   8.056  32.835   7.414  0.0413  0.0020 -0.0675
34525POPC   NC360280  14.619  24.855   9.877 -0.2135  0.0844 -0.1949
34525POPC   PO460281  14.861  24.685   9.606 -0.0386 -0.0112 -0.0320
34525POPC   GL160282  14.479  24.652   9.430  0.0714  0.0194  0.3022
34525POPC   GL260283  14.388  24.901   9.364  0.0895  0.0386 -0.0989
34525POPC   C1A60284  14.139  24.465   9.172 -0.0119 -0.1695 -0.2530
34525POPC   D2A60285  13.965  24.506   8.759 -0.1238 -0.0386  0.0647
34525POPC   C3A60286  13.725  24.790   8.438  0.3180  0.1453 -0.0362
34525POPC   C4A60287  13.613  24.876   8.015 -0.3668 -0.1213 -0.1171
34525POPC   C1B60288  14.426  24.855   8.939 -0.2368 -0.1426  0.1029
34525POPC   C2B60289  14.454  24.769   8.449 -0.2236  0.1628 -0.0364
34525POPC   C3B60290  14.151  24.880   8.102  0.0916 -0.1449 -0.1070
34525POPC   C4B60291  14.156  25.074   7.716  0.0576 -0.0295 -0.3553
34526POPC   NC360292   9.286  17.095  10.287  0.1678  0.1498  0.1125
34526POPC   PO460293   9.323  17.505  10.245 -0.0629  0.1140 -0.3269
34526POPC   GL160294   9.373  17.635   9.849 -0.0392 -0.1137 -0.2263
34526POPC   GL260295   9.335  17.927   9.923  0.0888 -0.2206  0.5418
34526POPC   C1A60296   9.197  17.785   9.444  0.0239 -0.0330 -0.0625
34526POPC   D2A60297   9.083  18.159   9.256 -0.1335  0.0274 -0.0299
34526POPC   C3A60298   9.013  18.464   8.952 -0.0008  0.0525  0.1537
34526POPC   C4A60299   8.722  18.821   9.079 -0.0310 -0.0892 -0.1093
34526POPC   C1B60300   9.165  18.322   9.955  0.4503 -0.2472 -0.1667
34526POPC   C2B60301   9.182  18.583   9.544  0.0213 -0.1160 -0.0616
34526POPC   C3B60302   9.215  18.923   9.174 -0.1157  0.0852 -0.0798
34526POPC   C4B60303   9.059  19.015   8.726 -0.2202  0.1134  0.1959
34527POPC   NC360304  13.624  18.516  14.595 -0.1226  0.1064  0.0318
34527POPC   PO460305  13.680  18.208  14.796 -0.2495  0.1312 -0.0658
34527POPC   GL160306  13.329  18.423  14.880 -0.4168 -0.1551 -0.2448
34527POPC   GL260307  13.431  18.568  15.152 -0.0325  0.0837  0.2352
34527POPC   C1A60308  12.945  18.624  15.027 -0.3003  0.0156  0.0046
34527POPC   D2A60309  12.674  18.999  15.086  0.4160  0.0502 -0.1663
34527POPC   C3A60310  12.311  19.111  15.307 -0.0179  0.0998  0.0605
34527POPC   C4A60311  11.834  19.272  15.274  0.0288 -0.5453 -0.1902
34527POPC   C1B60312  13.348  18.847  15.548 -0.2921  0.0993  0.3400
34527POPC   C2B60313  13.139  19.018  15.917  0.3615  0.0752  0.1921
34527POPC   C3B60314  12.965  18.745  16.298  0.0977 -0.4248  0.1928
34527POPC   C4B60315  12.581  18.651  16.570  0.0281 -0.0849 -0.0033
34528POPC   NC360316   7.218  31.172   9.093  0.0499  0.1754  0.1612
34528POPC   PO460317   7.621  31.180   9.115  0.3164  0.1853  0.0384
34528POPC   GL160318   7.623  31.489   8.792  0.1360 -0.3721  0.0544
34528POPC   GL260319   7.811  31.359   8.601  0.0205 -0.1044  0.1897
34528POPC   C1A60320   7.804  31.855   8.590 -0.0582 -0.0327 -0.2176
34528POPC   D2A60321   7.752  31.935   8.136  0.1576 -0.1854  0.1000
34528POPC   C3A60322   7.511  31.777   7.753 -0.2611  0.2198 -0.0441
34528POPC   C4A60323   7.617  31.456   7.466  0.1307 -0.1860  0.1076
34528POPC   C1B60324   8.029  31.553   8.223  0.0926  0.0689 -0.1185
34528POPC   C2B60325   8.020  31.723   7.791 -0.1806  0.0904  0.2309
34528POPC   C3B60326   7.898  31.861   7.377  0.2347  0.1470  0.1983
34528POPC   C4B60327   7.732  31.820   6.955  0.1742  0.0254 -0.3666
34529POPC   NC360328   0.028  32.434   7.887  0.2260 -0.3845 -0.1025
34529POPC   PO460329  -0.017  32.166   7.558 -0.1345 -0.0995  0.0458
34529POPC   GL160330   0.076  32.213   7.253  0.0226  0.0327  0.3310
34529POPC   GL260331  -0.098  31.978   7.079 -0.1238  0.1804 -0.3104
34529POPC   C1A60332  -0.029  32.474   6.871 -0.1169  0.0589 -0.1050
34529POPC   D2A60333   0.204  32.569   6.529 -0.0647  0.1417  0.0312
34529POPC   C3A60334   0.129  32.779   6.156 -0.1139 -0.1772  0.1884
34529POPC   C4A60335   0.153  32.950   5.693  0.0431  0.0518  0.1048
34529POPC   C1B60336   0.021  31.971   6.594 -0.1133 -0.2155 -0.0167
34529POPC   C2B60337   0.109  32.227   6.200 -0.0306  0.0919 -0.0695
34529POPC   C3B60338  -0.092  32.392   5.791 -0.3451 -0.0254 -0.0365
34529POPC   C4B60339  -0.073  32.590   5.372 -0.2684 -0.1383  0.0451
34530POPC   NC360340   3.897  25.113  10.148  0.3174  0.1477 -0.1562
34530POPC   PO460341   3.912  25.448   9.995  0.0215  0.1072 -0.2315
34530POPC   GL160342   4.055  25.217   9.640 -0.2405  0.0004 -0.0522
34530POPC   GL260343   3.813  25.086   9.442  0.1478  0.3494  0.0159
34530POPC   C1A60344   4.314  25.259   9.271 -0.0370 -0.0916 -0.2138
34530POPC   D2A60345   4.523  25.176   8.834 -0.1447 -0.0728  0.2859
34530POPC   C3A60346   4.620  25.166   8.366 -0.2389 -0.0741  0.0030
34530POPC   C4A60347   4.793  24.905   8.062  0.0254 -0.0873 -0.1140
34530POPC   C1B60348   3.856  24.872   9.025  0.0677 -0.1489 -0.0500
34530POPC   C2B60349   4.155  24.912   8.629  0.2107 -0.2465  0.0973
34530POPC   C3B60350   4.272  24.897   8.148 -0.0520  0.0496 -0.2024
34530POPC   C4B60351   4.307  24.777   7.706 -0.2465 -0.0118  0.3431
34531POPC   NC360352  16.165  19.286   8.684 -0.1009 -0.3742  0.0875
34531POPC   PO460353  16.329  19.038   8.403  0.0464  0.0013  0.0216
34531POPC   GL160354  16.105  19.173   8.110 -0.0376  0.2152 -0.0994
34531POPC   GL260355  15.866  19.128   8.278 -0.2308  0.3442  0.0044
34531POPC   C1A60356  15.853  19.193   7.710 -0.0737 -0.1916 -0.0139
34531POPC   D2A60357  15.626  18.985   7.353  0.1961 -0.0464  0.3553
34531POPC   C3A60358  15.383  18.667   7.099  0.1438 -0.2425 -0.0510
34531POPC   C4A60359  14.985  18.517   6.960 -0.4180  0.1160 -0.0394
34531POPC   C1B60360  15.727  19.512   8.101 -0.2172 -0.0941  0.1048
34531POPC   C2B60361  15.844  19.976   7.949 -0.2040 -0.1466 -0.1422
34531POPC   C3B60362  15.855  20.177   7.536  0.1734  0.0470 -0.1236
34531POPC   C4B60363  16.037  20.382   7.169  0.1516  0.0763  0.0323
34532POPC   NC360364   7.247  27.786  10.107 -0.0691 -0.3440 -0.0610
34532POPC   PO460365   7.004  27.716   9.802 -0.1433  0.2265  0.1914
34532POPC   GL160366   7.254  27.459   9.659 -0.1898 -0.1530  0.1558
34532POPC   GL260367   7.250  27.501   9.340 -0.1336 -0.1484  0.0159
34532POPC   C1A60368   7.330  26.971   9.587  0.0030  0.0389 -0.0174
34532POPC   D2A60369   7.090  26.554   9.714  0.0264  0.1681  0.2584
34532POPC   C3A60370   7.227  26.150   9.396 -0.3727  0.1037  0.0263
34532POPC   C4A60371   7.620  25.990   9.182 -0.1497  0.0453 -0.1538
34532POPC   C1B60372   7.553  27.506   8.955  0.0937  0.1458  0.2235
34532POPC   C2B60373   7.605  27.212   8.579  0.1994 -0.1752 -0.0772
34532POPC   C3B60374   7.604  26.926   8.181 -0.2895 -0.2413 -0.2975
34532POPC   C4B60375   7.519  26.829   7.709 -0.0014 -0.2015 -0.1229
34533POPC   NC360376  10.283  31.682  15.774 -0.2397  0.1016  0.0869
34533POPC   PO460377   9.942  31.609  15.931  0.0350  0.2719  0.0218
34533POPC   GL160378   9.962  31.814  16.148 -0.1154 -0.0992  0.0339
34533POPC   GL260379   9.727  32.012  16.133 -0.2587  0.2843 -0.2166
34533POPC   C1A60380  10.061  32.104  16.524 -0.2374  0.0512  0.2430
34533POPC   D2A60381  10.124  32.057  16.955  0.1634  0.1148  0.1266
34533POPC   C3A60382   9.847  32.094  17.298  0.0192 -0.1396  0.2932
34533POPC   C4A60383   9.562  32.126  17.751 -0.0696  0.2455  0.0140
34533POPC   C1B60384   9.583  31.983  16.520 -0.2709  0.1358 -0.5682
34533POPC   C2B60385   9.517  32.091  16.966 -0.2787  0.1046 -0.0771
34533POPC   C3B60386   9.458  32.440  17.247 -0.0191 -0.3105 -0.2840
34533POPC   C4B60387   9.277  32.826  17.269 -0.3834 -0.2341  0.1109
34534POPC   NC360388   0.668  30.347   8.321  0.2871 -0.0648 -0.0037
34534POPC   PO460389   0.931  30.466   8.037 -0.0085  0.0494 -0.2931
34534POPC   GL160390   0.819  30.533   7.706 -0.1137  0.0278 -0.3357
34534POPC   GL260391   0.715  30.796   7.666 -0.4377 -0.1095 -0.2730
34534POPC   C1A60392   0.954  30.594   7.284 -0.0535  0.0161  0.0685
34534POPC   D2A60393   0.924  30.592   6.814 -0.2712 -0.1101  0.1611
34534POPC   C3A60394   1.223  30.874   6.616 -0.1800 -0.1400  0.0532
34534POPC   C4A60395   1.660  30.988   6.487  0.4820 -0.1789  0.1579
34534POPC   C1B60396   0.599  31.130   7.403  0.1104  0.0553  0.2481
34534POPC   C2B60397   0.514  31.220   6.999  0.0813 -0.0517  0.1027
34534POPC   C3B60398   0.664  31.273   6.555  0.0521 -0.2201  0.3060
34534POPC   C4B60399   0.660  31.435   6.095 -0.0063  0.2266  0.1076
34535POPC   NC360400   1.932  26.146   8.986  0.0877 -0.0785  0.0301
34535POPC   PO460401   1.892  25.755   8.920  0.0120 -0.3991 -0.0954
34535POPC   GL160402   2.079  25.622   8.580  0.0659  0.0816 -0.0597
34535POPC   GL260403   2.038  25.435   8.312 -0.0012  0.0693 -0.1365
34535POPC   C1A60404   1.889  25.867   8.165 -0.1900  0.0070  0.0240
34535POPC   D2A60405   1.654  26.056   7.823  0.4157 -0.2129 -0.2478
34535POPC   C3A60406   1.432  25.903   7.477 -0.0639  0.0557  0.1912
34535POPC   C4A60407   1.156  25.542   7.394 -0.1679 -0.0346 -0.0197
34535POPC   C1B60408   1.996  25.297   7.837  0.1078  0.0415  0.0957
34535POPC   C2B60409   1.997  25.030   7.409 -0.0304 -0.2120  0.0714
34535POPC   C3B60410   1.782  24.755   7.066 -0.1634 -0.0115 -0.1069
34535POPC   C4B60411   1.632  24.343   6.869 -0.0222  0.0141 -0.1692
34536POPC   NC360412   4.576  30.039   8.715  0.3231 -0.0738 -0.2570
34536POPC   PO460413   4.604  30.422   8.623 -0.0417 -0.1923  0.2538
34536POPC   GL160414   4.711  30.309   8.261  0.0530 -0.0252 -0.0036
34536POPC   GL260415   4.500  30.397   8.059 -0.1445  0.1755 -0.3571
34536POPC   C1A60416   4.945  30.532   7.970 -0.1421 -0.1410 -0.0266
34536POPC   D2A60417   4.952  30.560   7.484 -0.0556 -0.0839 -0.2560
34536POPC   C3A60418   5.095  30.537   7.058  0.2726  0.3039  0.0647
34536POPC   C4A60419   5.278  30.526   6.670  0.0044  0.4142  0.0940
34536POPC   C1B60420   4.517  30.347   7.519 -0.1455  0.2398 -0.2240
34536POPC   C2B60421   4.765  30.213   7.147  0.1105 -0.3248  0.0645
34536POPC   C3B60422   4.801  30.259   6.714  0.4503  0.1582  0.2053
34536POPC   C4B60423   4.880  30.191   6.308 -0.1461  0.0873 -0.0395
34537POPC   NC360424  14.054  29.197   8.684 -0.2470  0.1323 -0.2718
34537POPC   PO460425  14.385  29.143   8.915 -0.0201 -0.1760 -0.0339
34537POPC   GL160426  14.535  28.968   8.516  0.4278  0.1920 -0.2307
34537POPC   GL260427  14.574  28.703   8.476  0.2276 -0.0671 -0.0708
34537POPC   C1A60428  14.357  28.978   8.095 -0.0942 -0.1197 -0.2408
34537POPC   D2A60429  14.431  29.098   7.686  0.2012  0.2895  0.0515
34537POPC   C3A60430  14.354  28.812   7.295 -0.0889 -0.1262  0.0676
34537POPC   C4A60431  14.517  28.743   6.843  0.2706 -0.3226  0.0133
34537POPC   C1B60432  14.298  28.417   8.178 -0.0306 -0.2965 -0.0586
34537POPC   C2B60433  14.409  28.078   7.882  0.0767  0.2015 -0.0971
34537POPC   C3B60434  14.437  27.719   7.541 -0.3615 -0.2329 -0.1173
34537POPC   C4B60435  14.640  27.434   7.208  0.1850  0.0087  0.1106
34538POPC   NC360436   1.755  29.584   7.725  0.1952  0.3164 -0.1039
34538POPC   PO460437   1.780  29.992   7.753 -0.0100 -0.1679 -0.1104
34538POPC   GL160438   1.857  30.000   7.345  0.2169 -0.3434 -0.3736
34538POPC   GL260439   1.572  29.991   7.294  0.2986 -0.0455  0.0130
34538POPC   C1A60440   2.069  29.634   7.166 -0.2389  0.1180  0.1133
34538POPC   D2A60441   1.846  29.570   6.753 -0.1528  0.1479  0.1972
34538POPC   C3A60442   1.743  29.575   6.297  0.1248  0.1022  0.0631
34538POPC   C4A60443   1.703  29.588   5.828 -0.3751 -0.1721 -0.0494
34538POPC   C1B60444   1.238  30.218   7.042 -0.2697  0.1005  0.0902
34538POPC   C2B60445   1.040  30.124   6.635  0.1522  0.0001 -0.3106
34538POPC   C3B60446   1.061  29.847   6.305 -0.0485 -0.1681 -0.2862
34538POPC   C4B60447   1.266  29.471   6.089 -0.2823 -0.1598 -0.1863
34539POPC   NC360448   5.785  18.354  10.483 -0.0154  0.1162  0.1464
34539POPC   PO460449   5.495  18.320  10.163  0.0673  0.0051 -0.0647
34539POPC   GL160450   5.412  18.613   9.886 -0.2622 -0.0736 -0.0190
34539POPC   GL260451   5.694  18.539   9.780 -0.1589 -0.0033  0.0548
34539POPC   C1A60452   5.600  19.015   9.702 -0.0067 -0.0974  0.1249
34539POPC   D2A60453   5.535  19.370   9.352 -0.1511 -0.2494 -0.1115
34539POPC   C3A60454   5.845  19.768   9.419  0.1109 -0.1561 -0.1010
34539POPC   C4A60455   5.914  20.176   9.708  0.1883  0.2317  0.2161
34539POPC   C1B60456   6.116  18.785   9.710 -0.1540  0.0344  0.0278
34539POPC   C2B60457   6.182  19.123   9.389 -0.1853 -0.0986 -0.0659
34539POPC   C3B60458   6.105  19.503   9.068 -0.1425 -0.0268  0.3053
34539POPC   C4B60459   6.108  19.682   8.629  0.0359  0.0177  0.0560
34540POPC   NC360460   6.590  25.888  12.947  0.0722  0.2279  0.0665
34540POPC   PO460461   6.500  26.171  12.694  0.2934 -0.0220  0.0857
34540POPC   GL160462   6.786  25.933  12.389  0.1484 -0.1722 -0.0164
34540POPC   GL260463   6.746  25.809  12.065  0.0871 -0.1707 -0.1268
34540POPC   C1A60464   7.201  25.662  12.345  0.2324 -0.3050  0.0298
34540POPC   D2A60465   7.327  25.231  12.387  0.3496 -0.0315 -0.0566
34540POPC   C3A60466   7.641  25.080  12.114 -0.1330  0.0857 -0.1852
34540POPC   C4A60467   7.650  24.638  11.849  0.4732 -0.1006  0.1180
34540POPC   C1B60468   6.931  25.438  11.941  0.1091 -0.1704  0.0484
34540POPC   C2B60469   7.184  25.035  11.945  0.0809  0.0868 -0.3949
34540POPC   C3B60470   7.101  24.584  11.912  0.1185  0.0157 -0.1280
34540POPC   C4B60471   6.919  24.178  11.887  0.1400  0.1600 -0.0643
34541POPC   NC360472   1.223  26.400   9.100  0.2295 -0.2842 -0.1119
34541POPC   PO460473   1.501  26.410   8.810 -0.0470 -0.1916 -0.1103
34541POPC   GL160474   1.624  26.254   8.505  0.0115 -0.0046 -0.0552
34541POPC   GL260475   1.564  25.923   8.552 -0.1671 -0.2955 -0.3840
34541POPC   C1A60476   1.705  26.466   8.120 -0.1755 -0.1906 -0.2838
34541POPC   D2A60477   1.764  26.539   7.651  0.0539 -0.0940  0.1450
34541POPC   C3A60478   1.964  26.197   7.371 -0.2371  0.0906  0.1739
34541POPC   C4A60479   2.099  25.765   7.535  0.5562 -0.2823 -0.0888
34541POPC   C1B60480   1.287  26.131   8.218 -0.0587  0.0409  0.0332
34541POPC   C2B60481   1.093  25.997   7.883 -0.2111 -0.4055  0.3580
34541POPC   C3B60482   0.760  25.964   7.514  0.3986 -0.2601 -0.0063
34541POPC   C4B60483   0.630  26.264   7.166 -0.1781 -0.0240  0.2243
34542POPC   NC360484   4.195  22.709   9.825  0.1300 -0.0308 -0.1324
34542POPC   PO460485   4.009  23.056   9.858 -0.1265  0.1363  0.0875
34542POPC   GL160486   3.922  23.043   9.465  0.0091  0.0852 -0.3713
34542POPC   GL260487   4.156  22.961   9.335 -0.0182 -0.2355  0.1459
34542POPC   C1A60488   3.959  23.386   9.119 -0.2161  0.3454 -0.0109
34542POPC   D2A60489   4.119  23.463   8.709 -0.1668  0.2955 -0.1808
34542POPC   C3A60490   4.274  23.843   8.543 -0.2052 -0.0253 -0.2989
34542POPC   C4A60491   4.346  23.875   8.039 -0.2215 -0.1985 -0.5190
34542POPC   C1B60492   4.329  23.096   8.898  0.1342  0.0242 -0.2852
34542POPC   C2B60493   4.690  23.247   8.633  0.2463  0.0908 -0.1120
34542POPC   C3B60494   5.153  23.328   8.633 -0.0556  0.0148 -0.5092
34542POPC   C4B60495   5.473  23.388   8.332 -0.2474 -0.0348  0.4019
34543POPC   NC360496  12.752  18.854  10.515  0.3358 -0.3694  0.2593
34543POPC   PO460497  13.059  18.635  10.400  0.1143 -0.3079 -0.3257
34543POPC   GL160498  12.961  18.775  10.071 -0.1033 -0.1426  0.1590
34543POPC   GL260499  12.714  18.654  10.047 -0.0858  0.0075  0.0144
34543POPC   C1A60500  13.018  18.925   9.653  0.2714 -0.0960 -0.0634
34543POPC   D2A60501  13.439  18.945   9.453 -0.0389  0.0818 -0.1386
34543POPC   C3A60502  13.417  18.969   8.996  0.1234  0.0038  0.1221
34543POPC   C4A60503  13.079  18.906   8.689 -0.2230 -0.2269  0.2398
34543POPC   C1B60504  12.584  18.641   9.647 -0.1891 -0.2291  0.0745
34543POPC   C2B60505  12.213  18.578   9.409  0.0997  0.0956  0.5093
34543POPC   C3B60506  12.022  18.905   9.090 -0.2065  0.1891  0.0077
34543POPC   C4B60507  11.660  18.910   8.869  0.0974 -0.0090 -0.1081
34544POPC   NC360508  13.787  26.109   9.972  0.1351 -0.2449  0.1408
34544POPC   PO460509  13.881  26.495  10.055 -0.3588 -0.0262  0.1244
34544POPC   GL160510  13.447  26.363  10.110  0.1520 -0.0331  0.2436
34544POPC   GL260511  13.366  26.369   9.830  0.1692  0.0726 -0.3536
34544POPC   C1A60512  13.202  25.927  10.071  0.2435 -0.1967 -0.0225
34544POPC   D2A60513  13.081  25.577  10.341  0.2680 -0.2112 -0.0900
34544POPC   C3A60514  12.685  25.415  10.104  0.1776 -0.1447  0.0497
34544POPC   C4A60515  12.406  25.163   9.802 -0.0967  0.1361  0.3666
34544POPC   C1B60516  13.071  26.075   9.608 -0.0539  0.2434  0.0468
34544POPC   C2B60517  12.668  26.038   9.386 -0.2426  0.1214 -0.1405
34544POPC   C3B60518  12.411  26.193   9.065  0.1733 -0.3076 -0.0136
34544POPC   C4B60519  11.947  26.222   9.145 -0.0839  0.2063  0.3857
34545POPC   NC360520   0.995  19.190   9.071 -0.1259 -0.1296 -0.3198
34545POPC   PO460521   0.909  18.966   8.837  0.0706  0.2769  0.1411
34545POPC   GL160522   1.154  19.065   8.485 -0.2805 -0.2524  0.2428
34545POPC   GL260523   1.134  18.814   8.260 -0.1512 -0.0286  0.2525
34545POPC   C1A60524   1.086  19.432   8.155  0.2025 -0.0185 -0.0984
34545POPC   D2A60525   1.181  19.523   7.723  0.1064  0.0201  0.2830
34545POPC   C3A60526   1.301  19.784   7.404 -0.0259  0.2618 -0.0753
34545POPC   C4A60527   1.485  19.966   6.996  0.0827 -0.1376 -0.0775
34545POPC   C1B60528   1.066  18.951   7.826 -0.4749  0.3416 -0.2599
34545POPC   C2B60529   0.870  19.174   7.471 -0.0071 -0.0022  0.0067
34545POPC   C3B60530   0.738  19.122   7.057 -0.0662  0.0834  0.1897
34545POPC   C4B60531   0.544  19.163   6.611 -0.0452  0.1607  0.2443
34546POPC   NC360532  12.522   0.787   9.779 -0.0955 -0.0501 -0.0707
34546POPC   PO460533  12.137   0.782   9.756  0.1788  0.0838 -0.0925
34546POPC   GL160534  12.318   0.859   9.363 -0.1477 -0.1736  0.0787
34546POPC   GL260535  12.126   1.148   9.317 -0.0570 -0.0915  0.0130
34546POPC   C1A60536  12.285   0.920   8.889 -0.0557 -0.2381  0.0771
34546POPC   D2A60537  12.206   1.143   8.486  0.1744  0.2419 -0.1707
34546POPC   C3A60538  12.325   1.356   8.143  0.0473 -0.0771  0.1929
34546POPC   C4A60539  12.058   1.477   7.724 -0.3415 -0.0719 -0.5511
34546POPC   C1B60540  11.821   1.359   9.045 -0.2111 -0.0315 -0.1486
34546POPC   C2B60541  11.500   1.468   8.683  0.0736  0.0914 -0.1999
34546POPC   C3B60542  11.365   1.658   8.322  0.0442 -0.1553  0.0985
34546POPC   C4B60543  11.417   1.610   7.875  0.6323 -0.0466  0.0844
34547POPC   NC360544   4.892  22.746  14.239  0.2670 -0.0793 -0.3406
34547POPC   PO460545   5.034  22.497  13.951 -0.2903  0.1845 -0.1665
34547POPC   GL160546   5.426  22.673  14.081 -0.1635 -0.1142  0.1520
34547POPC   GL260547   5.388  22.934  14.109 -0.1196 -0.3837 -0.0483
34547POPC   C1A60548   5.858  22.679  14.298  0.1259 -0.1076  0.0306
34547POPC   D2A60549   5.881  22.677  14.731 -0.1176  0.0464  0.2620
34547POPC   C3A60550   6.256  22.848  14.934 -0.2539  0.0909 -0.0559
34547POPC   C4A60551   6.296  22.919  15.421  0.0526 -0.1774 -0.3242
34547POPC   C1B60552   5.726  23.176  14.287  0.1441  0.0028 -0.1807
34547POPC   C2B60553   6.112  23.099  14.433 -0.2916 -0.0441  0.2601
34547POPC   C3B60554   6.568  23.133  14.550  0.0050 -0.0549 -0.3094
34547POPC   C4B60555   7.023  23.235  14.731  0.2088  0.1716 -0.0696
34548POPC   NC360556  14.406  19.821  14.109  0.0559 -0.2819 -0.0422
34548POPC   PO460557  14.709  19.701  14.311  0.0773  0.0500  0.3877
34548POPC   GL160558  14.607  19.877  14.662  0.0537 -0.4208  0.1622
34548POPC   GL260559  14.673  19.810  14.907 -0.0309  0.0675 -0.0562
34548POPC   C1A60560  14.157  20.006  14.774  0.0259 -0.1021 -0.1693
34548POPC   D2A60561  13.789  19.973  14.974  0.0675  0.1109  0.0370
34548POPC   C3A60562  13.660  20.094  15.422  0.0783  0.0032 -0.0320
34548POPC   C4A60563  13.739  20.191  15.879 -0.0983  0.0813  0.1870
34548POPC   C1B60564  14.321  19.661  15.075 -0.0270 -0.0301 -0.0658
34548POPC   C2B60565  13.933  19.601  15.371 -0.0517  0.1788 -0.2367
34548POPC   C3B60566  13.685  19.668  15.768  0.1660 -0.2142 -0.1683
34548POPC   C4B60567  13.348  19.931  15.910 -0.1856 -0.2612  0.0279
34549POPC   NC360568   6.592  27.146  15.873  0.2556  0.1433  0.3001
34549POPC   PO460569   6.559  26.778  16.044 -0.1736  0.2885 -0.3162
34549POPC   GL160570   6.770  26.540  16.317  0.0770 -0.0586  0.1901
34549POPC   GL260571   6.583  26.320  16.353  0.1074 -0.1365 -0.0085
34549POPC   C1A60572   7.002  26.302  16.667  0.0413 -0.1028 -0.2307
34549POPC   D2A60573   7.283  25.957  16.721 -0.1109 -0.1659 -0.3919
34549POPC   C3A60574   7.279  25.756  17.112 -0.2596  0.5073 -0.0770
34549POPC   C4A60575   7.318  25.401  17.459  0.1591  0.1029 -0.2951
34549POPC   C1B60576   6.341  26.069  16.651 -0.0925 -0.0387  0.0231
34549POPC   C2B60577   6.347  25.785  17.078 -0.3726 -0.2875 -0.0148
34549POPC   C3B60578   6.430  25.456  17.394  0.2096  0.1462 -0.0510
34549POPC   C4B60579   6.802  25.371  17.703  0.2063  0.2198 -0.0675
34550POPC   NC360580  14.731  27.993   9.686 -0.1394 -0.2179 -0.1130
34550POPC   PO460581  14.998  27.933   9.388 -0.0637 -0.1017 -0.2135
34550POPC   GL160582  14.933  27.846   8.931 -0.1174 -0.2151  0.2618
34550POPC   GL260583  15.073  27.515   8.973 -0.1776 -0.4649  0.1399
34550POPC   C1A60584  14.596  27.625   8.749 -0.1911 -0.0070  0.0259
34550POPC   D2A60585  14.169  27.548   8.994 -0.0470 -0.1871 -0.0416
34550POPC   C3A60586  13.852  27.639   8.681 -0.1920 -0.0957 -0.0077
34550POPC   C4A60587  13.535  27.445   8.385 -0.2422  0.1218 -0.1000
34550POPC   C1B60588  15.035  27.618   8.542  0.2011 -0.1157 -0.3203
34550POPC   C2B60589  15.277  27.602   8.155  0.0787 -0.0369 -0.3236
34550POPC   C3B60590  15.224  27.462   7.714  0.0705 -0.2216  0.1106
34550POPC   C4B60591  15.090  27.317   7.364  0.0357  0.1762 -0.3140
34551POPC   NC360592  10.501  31.695   9.197  0.2073 -0.0155 -0.0830
34551POPC   PO460593  10.349  32.023   9.332 -0.2470  0.0284 -0.1657
34551POPC   GL160594  10.292  32.416   9.221 -0.1922 -0.1844  0.4288
34551POPC   GL260595  10.459  32.607   9.252 -0.2411  0.3699  0.0555
34551POPC   C1A60596  10.249  32.467   8.753 -0.1084 -0.1480  0.2979
34551POPC   D2A60597  10.567  32.254   8.491  0.0422  0.2649 -0.1704
34551POPC   C3A60598  10.686  32.439   8.049 -0.2688  0.3078 -0.2521
34551POPC   C4A60599  10.670  32.742   7.685 -0.1776 -0.0434 -0.2915
34551POPC   C1B60600  10.334  32.914   8.897  0.0061  0.0857 -0.2851
34551POPC   C2B60601  10.589  33.285   8.677 -0.1141 -0.1057 -0.0533
34551POPC   C3B60602  10.488  33.636   8.337 -0.2344  0.1495  0.1285
34551POPC   C4B60603  10.212  33.872   8.042  0.0739  0.1334 -0.0907
34552POPC   NC360604   8.282  30.925   8.751  0.3061 -0.0644  0.1557
34552POPC   PO460605   8.570  30.915   8.969 -0.5775 -0.1722 -0.4466
34552POPC   GL160606   8.702  30.732   8.589  0.1614  0.3266  0.2640
34552POPC   GL260607   8.981  30.679   8.445  0.0421  0.1802 -0.2019
34552POPC   C1A60608   8.562  30.635   8.132  0.2607  0.0480 -0.2424
34552POPC   D2A60609   8.487  30.268   7.779 -0.0849  0.2582 -0.1932
34552POPC   C3A60610   8.340  30.447   7.399  0.1334  0.1438  0.0802
34552POPC   C4A60611   7.895  30.378   7.215  0.0723  0.1391  0.0524
34552POPC   C1B60612   8.977  30.610   7.979  0.1128 -0.1350  0.1182
34552POPC   C2B60613   8.838  30.728   7.510  0.1205  0.1747  0.0022
34552POPC   C3B60614   8.748  30.630   7.024 -0.0156 -0.0943 -0.1918
34552POPC   C4B60615   8.353  30.498   6.927  0.0728  0.1401 -0.2069
34553POPC   NC360616  15.388  20.202   9.548 -0.1332  0.2121 -0.0872
34553POPC   PO460617  15.195  19.901   9.445 -0.3872  0.1124  0.1751
34553POPC   GL160618  15.076  19.885   9.031  0.1119 -0.1135 -0.0126
34553POPC   GL260619  14.858  20.169   9.044 -0.3372  0.1343 -0.0426
34553POPC   C1A60620  15.280  20.134   8.733 -0.1251  0.1846 -0.0766
34553POPC   D2A60621  15.128  20.320   8.333  0.1770  0.0639  0.0735
34553POPC   C3A60622  15.327  20.278   7.895 -0.1090  0.2169 -0.1431
34553POPC   C4A60623  15.127  20.303   7.423 -0.0073 -0.2708  0.0179
34553POPC   C1B60624  14.774  20.049   8.641  0.0329  0.0064 -0.0935
34553POPC   C2B60625  14.551  19.791   8.338 -0.1298  0.0511 -0.1507
34553POPC   C3B60626  14.264  19.921   8.024  0.2941 -0.0678  0.0636
34553POPC   C4B60627  13.858  20.055   7.832  0.0300 -0.1992 -0.0650
34554POPC   NC360628  14.336  24.180  10.534  0.1166  0.0934 -0.0221
34554POPC   PO460629  14.381  24.506  10.330 -0.1394 -0.1904  0.0179
34554POPC   GL160630  14.112  24.507  10.035 -0.1359 -0.2580  0.0260
34554POPC   GL260631  13.818  24.518  10.176  0.1035  0.1525 -0.2355
34554POPC   C1A60632  13.978  24.571   9.608 -0.0104 -0.1209 -0.0444
34554POPC   D2A60633  13.568  24.514   9.311 -0.4952  0.0121 -0.1967
34554POPC   C3A60634  13.511  24.457   8.830 -0.1158 -0.5943 -0.0432
34554POPC   C4A60635  13.222  24.558   8.453 -0.1534 -0.0558 -0.1148
34554POPC   C1B60636  13.537  24.319   9.799 -0.1682 -0.0507 -0.0892
34554POPC   C2B60637  13.312  24.137   9.438 -0.1812  0.0320 -0.0657
34554POPC   C3B60638  13.038  24.243   9.019  0.0159 -0.0641 -0.3202
34554POPC   C4B60639  12.903  24.210   8.570 -0.1470 -0.4208  0.2329
34555POPC   NC360640  11.272  31.625   8.725 -0.0760 -0.1363  0.1420
34555POPC   PO460641  11.661  31.606   8.691  0.0494 -0.1342  0.0374
34555POPC   GL160642  11.732  31.555   8.261 -0.2226 -0.3951  0.2028
34555POPC   GL260643  11.462  31.794   8.202  0.2060 -0.0671 -0.0986
34555POPC   C1A60644  11.950  31.793   7.892 -0.0469  0.0406  0.0423
34555POPC   D2A60645  12.124  31.772   7.454  0.1230 -0.2018 -0.2265
34555POPC   C3A60646  12.487  31.542   7.300  0.1921  0.0486  0.2538
34555POPC   C4A60647  12.513  31.202   7.036 -0.2022 -0.0444 -0.2864
34555POPC   C1B60648  11.250  31.878   7.814  0.0444 -0.1315 -0.0311
34555POPC   C2B60649  11.299  32.034   7.418  0.0988 -0.2838 -0.1525
34555POPC   C3B60650  11.430  32.076   6.983  0.0315  0.1345  0.0355
34555POPC   C4B60651  11.571  32.316   6.660  0.1201  0.0452 -0.0747
34556POPC   NC360652   3.043  17.573   9.197 -0.3326 -0.2514 -0.0216
34556POPC   PO460653   3.426  17.682   9.162  0.1391  0.2250  0.2613
34556POPC   GL160654   3.234  17.744   8.816  0.3256  0.1939 -0.1311
34556POPC   GL260655   3.132  17.474   8.708  0.2684 -0.0682  0.2317
34556POPC   C1A60656   3.319  17.830   8.377 -0.1299 -0.2120  0.0887
34556POPC   D2A60657   3.133  18.008   8.001  0.0002  0.0814  0.0116
34556POPC   C3A60658   3.260  18.009   7.567 -0.2486 -0.1237  0.3924
34556POPC   C4A60659   3.182  17.905   7.118 -0.0742 -0.3437  0.0398
34556POPC   C1B60660   2.805  17.252   8.536  0.0849  0.2066  0.1336
34556POPC   C2B60661   2.556  17.269   8.070  0.0313 -0.1732 -0.4730
34556POPC   C3B60662   2.402  17.332   7.620 -0.1437  0.1515  0.0216
34556POPC   C4B60663   2.469  17.394   7.153 -0.2438  0.0652  0.2662
34557POPC   NC360664   8.160  17.729  10.523  0.0391 -0.1900  0.0403
34557POPC   PO460665   7.788  17.632  10.582 -0.2281 -0.0955 -0.1908
34557POPC   GL160666   7.762  17.726  10.217  0.1865  0.1346 -0.0977
34557POPC   GL260667   7.932  17.537   9.984  0.2500 -0.1061 -0.4433
34557POPC   C1A60668   7.643  18.031   9.903 -0.0488 -0.3150  0.0473
34557POPC   D2A60669   7.808  18.340   9.535 -0.2515 -0.2077  0.4840
34557POPC   C3A60670   8.072  18.723   9.549  0.1009  0.0243 -0.1642
34557POPC   C4A60671   8.189  19.067   9.281  0.0206  0.0125  0.1080
34557POPC   C1B60672   7.873  17.698   9.579 -0.0753  0.3745  0.1637
34557POPC   C2B60673   8.065  17.940   9.221 -0.2391 -0.2954  0.1364
34557POPC   C3B60674   7.893  18.331   8.972 -0.0276  0.2952 -0.3218
34557POPC   C4B60675   7.970  18.596   8.576 -0.1648  0.3072 -0.0797
34558POPC   NC360676   1.854  20.741   9.554  0.4654 -0.0606 -0.2029
34558POPC   PO460677   1.813  20.848   9.155  0.1766 -0.1512  0.2346
34558POPC   GL160678   1.862  21.010   8.755  0.0417 -0.3031  0.0590
34558POPC   GL260679   1.656  21.210   8.843  0.1850 -0.1930  0.2099
34558POPC   C1A60680   2.019  21.290   8.358  0.0720  0.0374 -0.0712
34558POPC   D2A60681   2.280  21.310   7.963  0.2944 -0.2313  0.0811
34558POPC   C3A60682   2.556  21.112   7.622  0.0355 -0.2890  0.0740
34558POPC   C4A60683   2.847  20.696   7.609 -0.2738 -0.1379  0.1382
34558POPC   C1B60684   1.458  21.315   8.456  0.0285  0.0227  0.0024
34558POPC   C2B60685   1.411  21.274   7.966  0.0483  0.2092 -0.1997
34558POPC   C3B60686   1.378  21.457   7.551 -0.1305 -0.0823 -0.2030
34558POPC   C4B60687   1.238  21.721   7.200  0.2803  0.1005  0.0453
34559POPC   NC360688  11.423  17.793   9.802  0.2463  0.0312 -0.0365
34559POPC   PO460689  11.802  17.744   9.652 -0.0961 -0.1088  0.2512
34559POPC   GL160690  11.694  17.852   9.237 -0.0823  0.4060 -0.0207
34559POPC   GL260691  11.403  17.898   9.324 -0.1634 -0.0261  0.2758
34559POPC   C1A60692  11.814  18.262   9.082  0.1581  0.2905 -0.2290
34559POPC   D2A60693  11.906  18.488   8.696 -0.0698  0.3504  0.0073
34559POPC   C3A60694  12.141  18.820   8.473  0.2736  0.0826 -0.1050
34559POPC   C4A60695  12.003  19.169   8.172  0.2048  0.0623  0.5121
34559POPC   C1B60696  11.317  18.361   9.212 -0.1653  0.3151  0.2449
34559POPC   C2B60697  11.196  18.773   9.074 -0.0916  0.2130 -0.3174
34559POPC   C3B60698  11.088  19.171   8.974 -0.2388 -0.2441 -0.0732
34559POPC   C4B60699  10.949  19.607   8.976 -0.2304  0.0906 -0.1265
34560POPC   NC360700   4.810  22.660  13.382  0.1477 -0.2317 -0.2864
34560POPC   PO460701   4.844  22.975  13.170 -0.0413 -0.1046 -0.1123
34560POPC   GL160702   5.251  22.891  13.332  0.0162  0.2728  0.1043
34560POPC   GL260703   5.313  22.897  13.607  0.0662  0.1847 -0.3630
34560POPC   C1A60704   5.711  22.698  13.266 -0.1882 -0.0136  0.0157
34560POPC   D2A60705   6.169  22.570  13.273  0.1517  0.0879 -0.0467
34560POPC   C3A60706   6.495  22.722  13.018  0.1731  0.1395 -0.0015
34560POPC   C4A60707   6.932  22.856  12.991  0.1232 -0.1173 -0.3208
34560POPC   C1B60708   5.729  22.779  13.785  0.0327  0.1524 -0.0514
34560POPC   C2B60709   6.043  22.476  13.896  0.0246  0.2512  0.2168
34560POPC   C3B60710   6.464  22.328  14.077  0.1249 -0.0070  0.0982
34560POPC   C4B60711   6.882  22.147  13.865  0.0911  0.1643 -0.0526
34561POPC   NC360712   3.787  32.597   8.697 -0.5504 -0.1439  0.0402
34561POPC   PO460713   3.544  32.515   8.421  0.0758  0.4773 -0.0907
34561POPC   GL160714   3.383  32.363   8.079 -0.0742 -0.0982 -0.0718
34561POPC   GL260715   3.634  32.479   7.933  0.1691  0.3636 -0.1043
34561POPC   C1A60716   3.246  32.397   7.668  0.1136  0.0279  0.0173
34561POPC   D2A60717   3.121  32.449   7.222  0.1665  0.1110  0.2545
34561POPC   C3A60718   3.280  32.660   6.837  0.0971 -0.0727 -0.4414
34561POPC   C4A60719   3.294  33.076   6.701  0.0538  0.1918  0.0129
34561POPC   C1B60720   3.784  32.409   7.490 -0.1145  0.0743  0.3745
34561POPC   C2B60721   3.713  32.514   7.040  0.1876 -0.3677 -0.2822
34561POPC   C3B60722   3.704  32.758   6.640  0.2183  0.2037  0.0151
34561POPC   C4B60723   3.979  32.813   6.310 -0.0753 -0.0450 -0.1854
34562POPC   NC360724   9.439  17.844  10.606 -0.1760 -0.0260 -0.1193
34562POPC   PO460725   9.798  17.878  10.748  0.1022  0.1987  0.0856
34562POPC   GL160726   9.667  18.220  10.504  0.2182 -0.0390  0.0452
34562POPC   GL260727   9.727  18.093  10.247  0.1095  0.2208 -0.1216
34562POPC   C1A60728   9.551  18.552  10.217 -0.2621 -0.0734  0.0809
34562POPC   D2A60729   9.570  18.731   9.790 -0.0119 -0.2309  0.1374
34562POPC   C3A60730   9.257  19.093   9.654  0.0340  0.1821 -0.0798
34562POPC   C4A60731   8.877  19.164   9.441 -0.0094 -0.1963 -0.1365
34562POPC   C1B60732   9.795  18.185   9.803 -0.3808 -0.0057 -0.0786
34562POPC   C2B60733   9.587  18.268   9.431 -0.1691 -0.0081 -0.0397
34562POPC   C3B60734   9.531  18.338   8.945  0.1466 -0.0329  0.1033
34562POPC   C4B60735   9.431  18.720   8.699 -0.0026 -0.1001  0.0236
34563POPC   NC360736  15.601  19.448  15.066 -0.2084  0.2026  0.1310
34563POPC   PO460737  15.300  19.230  15.063  0.0653  0.1408 -0.2492
34563POPC   GL160738  14.977  19.492  15.226 -0.1791  0.0957  0.1084
34563POPC   GL260739  14.749  19.355  15.209  0.0035 -0.0704  0.4154
34563POPC   C1A60740  14.981  19.544  15.702 -0.4094 -0.2860  0.1192
34563POPC   D2A60741  14.664  19.492  16.075  0.0466 -0.3008 -0.0126
34563POPC   C3A60742  14.396  19.490  16.424 -0.0789 -0.1495 -0.0281
34563POPC   C4A60743  14.028  19.698  16.729  0.0183 -0.0301  0.0355
34563POPC   C1B60744  14.481  19.564  15.527 -0.1619 -0.2622  0.1463
34563POPC   C2B60745  14.153  19.469  15.809 -0.4795  0.1087 -0.1652
34563POPC   C3B60746  13.974  19.640  16.203  0.1319  0.0123 -0.0235
34563POPC   C4B60747  13.591  19.869  16.370  0.1227 -0.1406 -0.0455
34564POPC   NC360748   6.592  26.490  13.083 -0.2488 -0.1936  0.1548
34564POPC   PO460749   6.939  26.356  12.924 -0.0200  0.0871 -0.0937
34564POPC   GL160750   7.010  25.931  12.776 -0.1798 -0.0074  0.0252
34564POPC   GL260751   7.330  26.055  12.709  0.2377 -0.1216 -0.0266
34564POPC   C1A60752   6.784  25.537  12.611 -0.0611 -0.0359  0.2025
34564POPC   D2A60753   6.864  25.064  12.500  0.1141 -0.0479 -0.1289
34564POPC   C3A60754   7.163  24.757  12.395 -0.1306 -0.0159  0.0539
34564POPC   C4A60755   7.465  24.416  12.294  0.2994 -0.0044 -0.0230
34564POPC   C1B60756   7.542  25.719  12.892  0.0628  0.1563  0.2874
34564POPC   C2B60757   7.550  25.401  13.244 -0.0840 -0.1150  0.2508
34564POPC   C3B60758   7.603  25.044  13.458 -0.0195 -0.0528  0.1351
34564POPC   C4B60759   7.828  24.845  13.819  0.0031  0.1539 -0.1192
34565POPC   NC360760   1.222  20.989  15.768 -0.0850  0.0992  0.2487
34565POPC   PO460761   0.949  20.739  15.855 -0.1881  0.1297  0.0380
34565POPC   GL160762   0.880  20.545  16.282  0.0838 -0.2928  0.0701
34565POPC   GL260763   1.029  20.357  16.220 -0.2590  0.0210 -0.2216
34565POPC   C1A60764   0.805  20.440  16.666 -0.3692 -0.0325  0.1030
34565POPC   D2A60765   0.705  20.307  17.138 -0.0753  0.0797  0.1682
34565POPC   C3A60766   0.318  20.105  17.385 -0.2206  0.0927  0.1515
34565POPC   C4A60767   0.010  20.192  17.743  0.0186 -0.1028  0.0452
34565POPC   C1B60768   1.400  20.423  16.554  0.1719 -0.2934 -0.0282
34565POPC   C2B60769   1.638  20.462  17.020 -0.0156 -0.2074  0.0496
34565POPC   C3B60770   1.788  20.466  17.460 -0.1597  0.1138  0.2356
34565POPC   C4B60771   1.946  20.207  17.808 -0.1669 -0.2390  0.2897
34566POPC   NC360772  15.499  20.732  14.664  0.0060  0.0898 -0.1397
34566POPC   PO460773  15.284  21.043  14.688 -0.2331 -0.1285  0.0786
34566POPC   GL160774  15.233  20.989  15.095  0.0824  0.0947  0.1314
34566POPC   GL260775  15.214  20.700  15.100  0.3210 -0.0938  0.3285
34566POPC   C1A60776  15.194  21.161  15.535 -0.2524  0.1007  0.1010
34566POPC   D2A60777  14.978  21.427  15.862 -0.0084  0.2675 -0.0468
34566POPC   C3A60778  14.697  21.145  16.007  0.2463  0.1331  0.1540
34566POPC   C4A60779  14.668  20.714  16.215 -0.0648 -0.2694 -0.0517
34566POPC   C1B60780  14.799  20.853  15.189 -0.0070  0.2152 -0.0817
34566POPC   C2B60781  14.632  21.213  15.414 -0.0403  0.0659  0.1642
34566POPC   C3B60782  14.411  21.539  15.659 -0.2602 -0.0804  0.0199
34566POPC   C4B60783  14.090  21.775  15.826  0.1164  0.1115  0.0387
34567POPC   NC360784   9.110  26.944  12.961 -0.1715 -0.0121  0.4479
34567POPC   PO460785   8.768  26.915  12.993  0.1848  0.0345 -0.0235
34567POPC   GL160786   8.887  26.608  12.693 -0.0158 -0.2311 -0.2966
34567POPC   GL260787   8.674  26.347  12.665 -0.0306 -0.1876  0.1514
34567POPC   C1A60788   9.208  26.265  12.622  0.3497 -0.0787 -0.3640
34567POPC   D2A60789   9.356  25.869  12.490  0.2395  0.1189  0.3769
34567POPC   C3A60790   9.663  25.518  12.456  0.2823  0.1159  0.0812
34567POPC   C4A60791   9.805  25.180  12.222 -0.3321  0.0319  0.0171
34567POPC   C1B60792   8.728  25.927  12.435  0.4422 -0.0307  0.0088
34567POPC   C2B60793   8.999  25.638  12.221  0.1047 -0.0059  0.0807
34567POPC   C3B60794   9.227  25.308  12.024  0.3564 -0.1343 -0.1512
34567POPC   C4B60795   9.382  25.060  11.729 -0.0420  0.1120  0.1118
34568POPC   NC360796   5.696  17.891  15.089 -0.1497  0.0278  0.2466
34568POPC   PO460797   6.036  17.801  14.968  0.0397 -0.2330  0.0465
34568POPC   GL160798   6.243  18.033  15.241 -0.2072  0.2397 -0.0705
34568POPC   GL260799   6.575  17.978  15.190  0.1459  0.1727  0.1655
34568POPC   C1A60800   6.390  18.128  15.670 -0.3625 -0.3076 -0.0394
34568POPC   D2A60801   6.490  18.482  15.919 -0.0082  0.2428  0.0773
34568POPC   C3A60802   6.437  18.980  15.949  0.2444  0.0900  0.0333
34568POPC   C4A60803   6.582  19.426  15.910  0.0410 -0.4151  0.0758
34568POPC   C1B60804   6.785  18.306  15.453  0.0290 -0.1612  0.1391
34568POPC   C2B60805   6.973  18.224  15.892 -0.1489  0.2217  0.1233
34568POPC   C3B60806   7.272  18.292  16.248 -0.0849 -0.0785 -0.0405
34568POPC   C4B60807   7.536  17.951  16.195  0.0724  0.2449 -0.0599
34569POPC   NC360808  14.942  25.713   8.914 -0.2362  0.2709 -0.4669
34569POPC   PO460809  14.843  25.521   9.273 -0.0197 -0.2079  0.0783
34569POPC   GL160810  14.699  25.210   9.138  0.4800 -0.3940 -0.3462
34569POPC   GL260811  14.953  25.022   9.057  0.1273  0.3301 -0.0019
34569POPC   C1A60812  14.362  25.349   8.893 -0.2287  0.0817  0.3030
34569POPC   D2A60813  14.084  25.639   8.673 -0.3033 -0.3416  0.1105
34569POPC   C3A60814  13.683  25.526   8.531 -0.2241  0.0534 -0.5764
34569POPC   C4A60815  13.387  25.214   8.417  0.0576  0.1307  0.0990
34569POPC   C1B60816  14.749  25.132   8.669  0.0411 -0.0479  0.0555
34569POPC   C2B60817  14.888  24.946   8.266 -0.0837 -0.0049  0.2671
34569POPC   C3B60818  14.661  24.874   7.910 -0.2447 -0.2083 -0.0703
34569POPC   C4B60819  14.413  24.591   7.604 -0.0635 -0.1031 -0.2232
34570POPC   NC360820  15.088  25.189   9.676 -0.1179 -0.0683 -0.1995
34570POPC   PO460821  14.687  25.201   9.602  0.0706  0.1947 -0.1436
34570POPC   GL160822  14.399  25.481   9.532 -0.1904 -0.0692 -0.2076
34570POPC   GL260823  14.201  25.559   9.276  0.0350  0.0893 -0.0124
34570POPC   C1A60824  14.070  25.858   9.633  0.0423  0.1353 -0.1609
34570POPC   D2A60825  13.950  26.286   9.522  0.1524  0.0034 -0.1969
34570POPC   C3A60826  13.539  26.363   9.329  0.2142  0.0808  0.1808
34570POPC   C4A60827  13.193  26.292   9.071 -0.1509  0.2358 -0.3911
34570POPC   C1B60828  13.847  25.412   9.049  0.1558  0.0023  0.0447
34570POPC   C2B60829  13.440  25.244   8.924  0.1718  0.0401 -0.1348
34570POPC   C3B60830  13.176  24.890   8.838  0.2290  0.0606 -0.1348
34570POPC   C4B60831  12.800  24.682   8.786 -0.0830  0.1659  0.0638
34571POPC   NC360832   1.846  19.503  15.656  0.1296  0.6198  0.1176
34571POPC   PO460833   1.480  19.523  15.717 -0.1254  0.0994  0.0628
34571POPC   GL160834   1.499  19.550  16.098  0.0941 -0.0106 -0.0732
34571POPC   GL260835   1.804  19.573  16.178 -0.0292  0.2666  0.0655
34571POPC   C1A60836   1.153  19.639  16.420  0.0800  0.1738 -0.0911
34571POPC   D2A60837   0.785  19.850  16.532 -0.0679 -0.0854  0.0177
34571POPC   C3A60838   0.436  19.539  16.643  0.0710 -0.2047  0.0062
34571POPC   C4A60839   0.096  19.401  16.933  0.0853 -0.0282  0.2950
34571POPC   C1B60840   1.860  19.629  16.609 -0.3003 -0.0184 -0.0740
34571POPC   C2B60841   1.823  19.852  17.049  0.0034  0.1674 -0.0032
34571POPC   C3B60842   1.648  19.961  17.469 -0.0922  0.3957 -0.1393
34571POPC   C4B60843   1.372  20.157  17.764  0.0875 -0.0722 -0.0960
34572POPC   NC360844  16.449  28.826   8.286  0.2383  0.0268 -0.0044
34572POPC   PO460845  16.756  28.608   8.431  0.0132 -0.4330  0.0438
34572POPC   GL160846  16.474  28.439   8.157 -0.1502  0.1596 -0.2731
34572POPC   GL260847  16.354  28.250   8.304  0.0522 -0.0840 -0.2031
34572POPC   C1A60848  16.018  28.526   8.032  0.2874  0.1570  0.0181
34572POPC   D2A60849  15.860  28.693   7.596 -0.2561  0.0949  0.2995
34572POPC   C3A60850  15.618  28.371   7.287 -0.3750  0.1764 -0.2704
34572POPC   C4A60851  15.220  28.137   7.183  0.1425 -0.1415 -0.1380
34572POPC   C1B60852  16.073  28.017   7.997  0.0738  0.0503 -0.0636
34572POPC   C2B60853  15.925  27.997   7.508 -0.1471 -0.1252 -0.1374
34572POPC   C3B60854  16.055  27.722   7.164  0.1309 -0.0468 -0.0902
34572POPC   C4B60855  16.093  27.307   6.946  0.0740 -0.1531  0.0526
34573POPC   NC360856   9.583  28.936  10.243  0.1844  0.3016 -0.2243
34573POPC   PO460857   9.440  28.915   9.892  0.0479 -0.0004  0.0281
34573POPC   GL160858   9.310  28.649   9.627  0.0426  0.1594 -0.0817
34573POPC   GL260859   9.402  28.368   9.679  0.0353  0.0658 -0.0191
34573POPC   C1A60860   9.312  28.421   9.217  0.2845  0.1253  0.1716
34573POPC   D2A60861   9.121  28.229   8.839 -0.2630  0.0544 -0.0141
34573POPC   C3A60862   9.029  28.019   8.394  0.0473  0.3465 -0.2934
34573POPC   C4A60863   9.108  27.983   7.923 -0.2865  0.2112 -0.0974
34573POPC   C1B60864   9.142  28.002   9.671 -0.0865  0.2787  0.1530
34573POPC   C2B60865   8.898  27.736   9.408 -0.0053  0.0089 -0.2341
34573POPC   C3B60866   9.029  27.434   9.142 -0.1270 -0.0073 -0.0503
34573POPC   C4B60867   9.372  27.236   8.841  0.0646 -0.1072  0.3705
34574POPC   NC360868   5.249  22.625  12.180 -0.1791 -0.0468  0.3661
34574POPC   PO460869   5.286  22.446  12.570 -0.0410 -0.1379 -0.0304
34574POPC   GL160870   5.596  22.584  12.506  0.1544  0.0223 -0.1101
34574POPC   GL260871   5.774  22.426  12.684  0.1391  0.0327 -0.1115
34574POPC   C1A60872   6.003  22.490  12.263 -0.0308  0.1224 -0.2018
34574POPC   D2A60873   6.414  22.401  12.189 -0.0019  0.2372 -0.3558
34574POPC   C3A60874   6.847  22.150  12.169 -0.0476 -0.2739  0.1615
34574POPC   C4A60875   7.326  21.950  12.059  0.0998  0.2762 -0.0915
34574POPC   C1B60876   6.264  22.390  12.727 -0.2357  0.1550 -0.2038
34574POPC   C2B60877   6.722  22.223  12.628  0.3403  0.0685 -0.0282
34574POPC   C3B60878   7.128  21.966  12.667  0.0267 -0.0725 -0.1896
34574POPC   C4B60879   7.460  22.014  13.021 -0.1619  0.0621 -0.0731
34575POPC   NC360880   4.245  21.478  11.410 -0.0135  0.0055 -0.2058
34575POPC   PO460881   4.217  21.354  11.049  0.0964  0.1056  0.2210
34575POPC   GL160882   4.453  21.431  10.816  0.2111 -0.2673 -0.0440
34575POPC   GL260883   4.755  21.505  10.757  0.4519  0.0636 -0.0276
34575POPC   C1A60884   4.563  21.234  10.395  0.1400 -0.0976  0.0853
34575POPC   D2A60885   4.944  21.061  10.198 -0.0630  0.0027 -0.0764
34575POPC   C3A60886   5.403  21.255  10.124 -0.1060 -0.1240  0.0162
34575POPC   C4A60887   5.841  21.383   9.972 -0.0361 -0.1758 -0.2741
34575POPC   C1B60888   5.085  21.636  10.465  0.2968  0.0027  0.0637
34575POPC   C2B60889   5.554  21.737  10.373 -0.2761  0.0884  0.0923
34575POPC   C3B60890   5.901  21.847  10.099  0.3913  0.3883  0.0783
34575POPC   C4B60891   5.980  21.959   9.647  0.0578 -0.1315  0.1682
34576POPC   NC360892  10.079  17.622  12.628  0.2442  0.5774 -0.1131
34576POPC   PO460893  10.366  17.335  12.580  0.2735 -0.0924 -0.1383
34576POPC   GL160894  10.647  17.665  12.554  0.3347  0.2553 -0.0375
34576POPC   GL260895  10.503  17.826  12.339  0.0358  0.1964 -0.1579
34576POPC   C1A60896  10.623  18.040  12.793 -0.1737 -0.1438  0.0553
34576POPC   D2A60897  10.633  18.466  12.922 -0.0410  0.0727  0.0758
34576POPC   C3A60898  10.308  18.777  12.844 -0.1419  0.0662  0.3176
34576POPC   C4A60899  10.216  19.200  13.019 -0.0123 -0.1413 -0.0996
34576POPC   C1B60900  10.537  18.304  12.396 -0.1581 -0.1120 -0.1228
34576POPC   C2B60901  10.642  18.736  12.437 -0.1323 -0.1040  0.3059
34576POPC   C3B60902  10.768  18.918  12.827 -0.1555 -0.3046 -0.0659
34576POPC   C4B60903  10.800  19.316  13.075 -0.2893 -0.1134  0.1610
34577POPC   NC360904  15.585  17.695   8.705  0.1115  0.0115  0.0194
34577POPC   PO460905  15.225  17.640   8.890  0.2423  0.1291 -0.1626
34577POPC   GL160906  15.067  17.804   8.591 -0.2569  0.2167 -0.0397
34577POPC   GL260907  15.209  17.855   8.386  0.0525 -0.0615 -0.1532
34577POPC   C1A60908  14.635  17.857   8.556 -0.3888  0.1016  0.1323
34577POPC   D2A60909  14.426  18.057   8.220 -0.0231 -0.0786 -0.2209
34577POPC   C3A60910  14.474  18.206   7.785  0.2224  0.0394  0.2597
34577POPC   C4A60911  14.481  18.594   7.497 -0.4051 -0.1331  0.2445
34577POPC   C1B60912  15.024  18.173   8.196  0.2686 -0.0922 -0.0641
34577POPC   C2B60913  15.068  18.423   7.849  0.0929  0.1084  0.2189
34577POPC   C3B60914  14.873  18.238   7.418  0.2047  0.0593 -0.1993
34577POPC   C4B60915  14.623  18.221   7.051 -0.4056  0.2482 -0.1513
34578POPC   NC360916  11.581  18.575  11.739 -0.0042 -0.0960 -0.0291
34578POPC   PO460917  11.266  18.332  11.678 -0.0773  0.0634  0.1003
34578POPC   GL160918  11.006  18.608  11.477 -0.0728  0.1757  0.0833
34578POPC   GL260919  10.930  18.735  11.740 -0.1017 -0.0624  0.3005
34578POPC   C1A60920  11.051  19.048  11.277  0.0976  0.2558 -0.2653
34578POPC   D2A60921  10.898  19.368  11.060  0.0461  0.1448 -0.2343
34578POPC   C3A60922  11.077  19.572  10.684  0.0943 -0.1591 -0.0329
34578POPC   C4A60923  11.070  19.881  10.314  0.1562  0.3174 -0.7057
34578POPC   C1B60924  10.684  19.178  11.707  0.1284  0.1533  0.0176
34578POPC   C2B60925  10.613  19.656  11.623  0.0741  0.0054 -0.0530
34578POPC   C3B60926  10.678  20.085  11.440  0.0414 -0.0621  0.2739
34578POPC   C4B60927  10.693  20.533  11.325  0.2314 -0.2414 -0.0893
34579POPC   NC360928  12.398  26.861  11.167  0.0300  0.4146 -0.2209
34579POPC   PO460929  12.203  27.203  11.320  0.1600 -0.3714  0.0037
34579POPC   GL160930  11.947  26.870  11.283  0.2372  0.0560  0.0848
34579POPC   GL260931  11.871  26.586  11.441  0.0507 -0.0519 -0.2948
34579POPC   C1A60932  11.865  26.571  10.942 -0.2912  0.3690 -0.1035
34579POPC   D2A60933  12.112  26.361  10.631 -0.2279 -0.0755 -0.3250
34579POPC   C3A60934  12.344  26.026  10.697 -0.1020 -0.1890 -0.0461
34579POPC   C4A60935  12.422  25.621  10.446  0.2589  0.1925  0.0600
34579POPC   C1B60936  11.541  26.343  11.338 -0.0102  0.1383  0.0208
34579POPC   C2B60937  11.100  26.258  11.116 -0.0093  0.0568  0.0068
34579POPC   C3B60938  10.750  26.069  10.828 -0.0630  0.1750  0.0195
34579POPC   C4B60939  10.558  25.784  10.554 -0.1566  0.0883 -0.0013
34580POPC   NC360940   4.603  21.045  10.964 -0.0824  0.0594  0.0815
34580POPC   PO460941   4.677  21.364  11.243 -0.1753  0.2445 -0.0560
34580POPC   GL160942   4.972  21.309  11.109  0.4327  0.1965 -0.0714
34580POPC   GL260943   5.114  21.144  10.867 -0.2944  0.0711 -0.1887
34580POPC   C1A60944   5.284  21.629  10.921 -0.1826 -0.1084 -0.3109
34580POPC   D2A60945   5.774  21.622  10.991  0.0601  0.0010 -0.0873
34580POPC   C3A60946   6.010  21.842  10.637  0.0921 -0.0732 -0.3961
34580POPC   C4A60947   6.315  22.063  10.374  0.2125 -0.0192  0.0214
34580POPC   C1B60948   5.528  21.222  10.699 -0.0442  0.0993  0.2130
34580POPC   C2B60949   5.869  21.411  10.524 -0.0910 -0.0457 -0.0181
34580POPC   C3B60950   6.271  21.551  10.293  0.0265 -0.2661 -0.3853
34580POPC   C4B60951   6.622  21.765  10.143  0.0381 -0.2386 -0.1627
34581POPC   NC360952  10.433  16.828  14.424  0.2870 -0.0439  0.0276
34581POPC   PO460953  10.557  16.711  14.807  0.0639  0.1263  0.3078
34581POPC   GL160954  10.736  17.095  14.949  0.2268  0.0399 -0.1549
34581POPC   GL260955  10.709  17.052  15.266  0.0760 -0.0068 -0.0127
34581POPC   C1A60956  11.025  17.409  15.231  0.0467  0.3592  0.2432
34581POPC   D2A60957  11.199  17.644  15.595  0.2633 -0.2953  0.0292
34581POPC   C3A60958  10.884  17.926  15.749  0.0676  0.0140 -0.0464
34581POPC   C4A60959  10.538  18.198  15.879 -0.2016 -0.2528  0.0352
34581POPC   C1B60960  10.583  17.360  15.630 -0.1286 -0.1913  0.1526
34581POPC   C2B60961  10.312  17.675  15.862  0.1237 -0.0049  0.1774
34581POPC   C3B60962  10.057  18.011  15.990 -0.1458 -0.0594 -0.0407
34581POPC   C4B60963   9.888  18.393  15.848 -0.4303  0.1520  0.3659
34582POPC   NC360964  11.965  32.063   8.612 -0.1467  0.0048 -0.0450
34582POPC   PO460965  12.101  32.365   8.893  0.0267 -0.3701 -0.1860
34582POPC   GL160966  12.161  32.662   8.609  0.3220  0.2089 -0.1838
34582POPC   GL260967  12.417  32.753   8.689 -0.0824 -0.0419 -0.0293
34582POPC   C1A60968  11.949  32.650   8.205  0.3738  0.3300 -0.1059
34582POPC   D2A60969  11.621  32.703   7.883 -0.0918 -0.2777 -0.0134
34582POPC   C3A60970  11.833  32.960   7.571 -0.1570 -0.1945  0.2214
34582POPC   C4A60971  12.089  32.768   7.168 -0.0697  0.0359 -0.0601
34582POPC   C1B60972  12.330  33.064   8.329  0.0208 -0.2314  0.1720
34582POPC   C2B60973  12.330  33.361   7.936 -0.0428  0.0837 -0.1232
34582POPC   C3B60974  12.097  33.602   7.586 -0.3467 -0.1042  0.2763
34582POPC   C4B60975  12.082  33.929   7.257 -0.4829  0.1728  0.0869
34583POPC   NC360976   5.263  22.339  11.341 -0.1241 -0.0113  0.3909
34583POPC   PO460977   5.282  22.356  11.699  0.2001 -0.1589 -0.0242
34583POPC   GL160978   5.614  22.471  11.737 -0.0387 -0.0452 -0.2900
34583POPC   GL260979   5.648  22.751  11.878 -0.1862  0.1464  0.2369
34583POPC   C1A60980   5.962  22.421  11.477 -0.2220  0.1231  0.0710
34583POPC   D2A60981   6.342  22.560  11.293  0.3042  0.1983 -0.0361
34583POPC   C3A60982   6.384  23.034  11.428  0.2638 -0.3397  0.3349
34583POPC   C4A60983   6.557  23.343  11.109  0.0809  0.2080  0.1033
34583POPC   C1B60984   6.131  22.754  11.886  0.3478  0.1622  0.0986
34583POPC   C2B60985   6.634  22.891  11.875  0.1008  0.1170  0.1402
34583POPC   C3B60986   6.955  22.671  12.127 -0.0440 -0.1205  0.0850
34583POPC   C4B60987   7.301  22.388  12.288  0.2089  0.0938 -0.2812
34584POPC   NC360988   1.635  31.158   7.893 -0.3371  0.1626 -0.0599
34584POPC   PO460989   1.973  31.161   7.634  0.1576 -0.0135 -0.0505
34584POPC   GL160990   1.962  30.950   7.351 -0.3837 -0.0222 -0.0231
34584POPC   GL260991   2.232  30.838   7.298 -0.0275  0.1020 -0.0889
34584POPC   C1A60992   1.915  30.914   6.915  0.0481  0.0447  0.0840
34584POPC   D2A60993   2.057  30.668   6.537 -0.2496  0.2134 -0.1333
34584POPC   C3A60994   2.462  30.372   6.529  0.0748 -0.0155 -0.0685
34584POPC   C4A60995   2.762  30.038   6.343  0.0902  0.0381  0.1430
34584POPC   C1B60996   2.334  31.202   6.963 -0.1937  0.2033  0.0508
34584POPC   C2B60997   2.115  31.215   6.535 -0.1887  0.0109 -0.1565
34584POPC   C3B60998   1.813  31.406   6.248  0.1416 -0.0148  0.0081
34584POPC   C4B60999   1.589  31.170   5.877 -0.1570  0.2118 -0.2735
34585POPC   NC361000   2.851  19.999   9.828  0.1268  0.1270 -0.2466
34585POPC   PO461001   2.963  19.817   9.474 -0.2282 -0.2510 -0.1195
34585POPC   GL161002   3.150  20.108   9.158 -0.0453 -0.1338 -0.2405
34585POPC   GL261003   3.502  20.133   9.202  0.1924  0.0500  0.0848
34585POPC   C1A61004   3.350  20.231   8.744 -0.1143  0.2015  0.1667
34585POPC   D2A61005   3.670  20.279   8.419  0.1944 -0.0507 -0.0137
34585POPC   C3A61006   3.541  20.200   7.976  0.0779 -0.0947  0.1442
34585POPC   C4A61007   3.397  20.447   7.568  0.1679  0.1985  0.1495
34585POPC   C1B61008   3.610  20.600   9.086 -0.1185  0.1089  0.0681
34585POPC   C2B61009   3.730  21.012   8.879 -0.0193  0.1846 -0.3312
34585POPC   C3B61010   4.002  21.219   8.592 -0.4110 -0.1876  0.3288
34585POPC   C4B61011   4.321  21.281   8.216  0.3256  0.1604 -0.1031
34586POPC   NC361012  15.060  20.045  14.536 -0.0008 -0.0198 -0.1027
34586POPC   PO461013  15.428  20.237  14.671  0.0740  0.5052 -0.1131
34586POPC   GL161014  15.552  20.011  15.004  0.0573 -0.1214 -0.0881
34586POPC   GL261015  15.641  20.148  15.166 -0.1339 -0.4024 -0.0129
34586POPC   C1A61016  15.322  19.804  15.399 -0.1293 -0.3752  0.0324
34586POPC   D2A61017  15.222  20.059  15.801  0.0485  0.2113 -0.0713
34586POPC   C3A61018  14.797  19.914  15.944 -0.2468 -0.2916  0.1183
34586POPC   C4A61019  14.586  20.098  16.310  0.0298  0.1003  0.1297
34586POPC   C1B61020  15.665  20.304  15.606  0.0758  0.1269  0.1959
34586POPC   C2B61021  15.603  20.532  16.056 -0.1956 -0.1078  0.1622
34586POPC   C3B61022  15.602  20.794  16.401 -0.0147 -0.2309  0.0825
34586POPC   C4B61023  15.360  20.977  16.801 -0.0597  0.0838 -0.0923
34587POPC   NC361024   8.702  31.397   9.153  0.0984 -0.0635 -0.0115
34587POPC   PO461025   9.034  31.196   9.041  0.0981 -0.1750 -0.1097
34587POPC   GL161026   9.036  31.271   8.624 -0.1974  0.2628  0.1353
34587POPC   GL261027   8.757  31.332   8.657  0.1089  0.0571  0.4375
34587POPC   C1A61028   9.200  31.684   8.564 -0.1304  0.0957  0.0088
34587POPC   D2A61029   9.314  32.056   8.827  0.2306 -0.2799  0.0411
34587POPC   C3A61030   9.436  32.435   8.539  0.2589  0.3018 -0.1716
34587POPC   C4A61031   9.393  32.628   8.098 -0.1198  0.0948  0.0291
34587POPC   C1B61032   8.562  31.156   8.267 -0.2054  0.2951 -0.1204
34587POPC   C2B61033   8.659  31.117   7.834 -0.2068 -0.1422  0.1379
34587POPC   C3B61034   8.585  31.181   7.383  0.0039  0.1081  0.1965
34587POPC   C4B61035   8.551  31.452   7.021  0.0900  0.2305  0.1860
34588POPC   NC361036   9.133  30.073  16.290  0.2147 -0.0090  0.1239
34588POPC   PO461037   8.800  29.929  16.403  0.1279  0.3317 -0.1665
34588POPC   GL161038   8.920  30.244  16.664  0.2259 -0.3332  0.1259
34588POPC   GL261039   9.057  30.325  16.894 -0.0163 -0.1109  0.2014
34588POPC   C1A61040   8.592  30.359  17.005 -0.0063 -0.0260 -0.0386
34588POPC   D2A61041   8.577  30.346  17.448 -0.2548 -0.0482 -0.1334
34588POPC   C3A61042   8.894  30.313  17.765  0.0214 -0.2313  0.3455
34588POPC   C4A61043   9.036  30.139  18.169  0.0111 -0.1473  0.2983
34588POPC   C1B61044   9.001  30.571  17.225  0.0412 -0.1622  0.3517
34588POPC   C2B61045   8.820  30.767  17.559  0.1692  0.0644  0.0844
34588POPC   C3B61046   8.570  30.776  17.973  0.2345 -0.3894  0.1275
34588POPC   C4B61047   8.133  30.777  17.871  0.1512  0.0243  0.3525
34589POPC   NC361048  13.544  25.550  10.568 -0.0629 -0.0867 -0.0844
34589POPC   PO461049  13.731  25.256  10.781  0.0326  0.1331 -0.0244
34589POPC   GL161050  13.367  25.154  10.930 -0.0096  0.2774 -0.0168
34589POPC   GL261051  13.265  25.423  10.949 -0.1954  0.2083 -0.1590
34589POPC   C1A61052  13.130  24.840  11.162 -0.0010 -0.1557  0.0401
34589POPC   D2A61053  12.764  24.635  11.397 -0.0660 -0.1164 -0.0305
34589POPC   C3A61054  12.369  24.732  11.473 -0.1289 -0.1240  0.2091
34589POPC   C4A61055  11.917  24.607  11.325  0.2270 -0.1289 -0.0256
34589POPC   C1B61056  12.958  25.195  10.679 -0.0108 -0.0621 -0.0824
34589POPC   C2B61057  12.758  24.842  10.448 -0.0296  0.2705  0.1566
34589POPC   C3B61058  12.582  24.716  10.032  0.0553 -0.0413 -0.2451
34589POPC   C4B61059  12.518  24.473   9.676 -0.0119 -0.2310 -0.0590
34590POPC   NC361060  10.474  30.201   9.051  0.0325 -0.2517  0.3452
34590POPC   PO461061  10.818  30.352   9.099  0.0686 -0.0719  0.0016
34590POPC   GL161062  11.026  30.336   8.701  0.1902  0.2035  0.0480
34590POPC   GL261063  10.857  30.466   8.558  0.3284  0.1813 -0.0869
34590POPC   C1A61064  10.991  30.152   8.228 -0.0753  0.1316  0.0031
34590POPC   D2A61065  10.667  30.063   7.892 -0.0542  0.2846 -0.1232
34590POPC   C3A61066  10.672  29.689   7.574 -0.2548 -0.1256 -0.0558
34590POPC   C4A61067  11.003  29.761   7.223 -0.0688  0.0098 -0.0051
34590POPC   C1B61068  11.102  30.605   8.168  0.1029  0.2698  0.0372
34590POPC   C2B61069  11.102  30.750   7.724 -0.1622  0.0134  0.0219
34590POPC   C3B61070  11.167  30.820   7.289 -0.2363 -0.0579 -0.0770
34590POPC   C4B61071  11.027  30.799   6.834 -0.2253  0.4371 -0.1650
34591POPC   NC361072   3.743  20.032   9.888 -0.2926  0.2208 -0.0050
34591POPC   PO461073   3.821  19.678   9.997 -0.0795 -0.0274 -0.0784
34591POPC   GL161074   4.077  19.880   9.628 -0.4835  0.2111 -0.3321
34591POPC   GL261075   3.898  19.906   9.452 -0.0353 -0.0757 -0.1489
34591POPC   C1A61076   4.345  19.749   9.270  0.0560  0.0364  0.1443
34591POPC   D2A61077   4.398  19.680   8.859 -0.0882  0.1191 -0.0895
34591POPC   C3A61078   4.728  19.810   8.502  0.0224  0.1401 -0.0727
34591POPC   C4A61079   4.773  19.801   8.048 -0.0465 -0.0710 -0.0491
34591POPC   C1B61080   4.020  20.066   8.996  0.1431  0.1390 -0.1184
34591POPC   C2B61081   4.149  20.024   8.578 -0.1304 -0.1188  0.0998
34591POPC   C3B61082   4.385  20.144   8.186 -0.0212 -0.0789  0.0301
34591POPC   C4B61083   4.366  20.567   8.037 -0.3626  0.1427 -0.2914
34592POPC   NC361084   4.093  31.327   8.041  0.4196 -0.0897 -0.2760
34592POPC   PO461085   4.292  31.236   8.363  0.0958  0.1289 -0.1040
34592POPC   GL161086   4.515  30.981   8.172  0.2133  0.2169 -0.1000
34592POPC   GL261087   4.722  30.827   8.295 -0.0189  0.1975 -0.0430
34592POPC   C1A61088   4.569  30.807   7.767 -0.0684 -0.2776  0.0420
34592POPC   D2A61089   4.669  30.950   7.326 -0.2193 -0.1321 -0.2215
34592POPC   C3A61090   4.559  30.667   6.987 -0.3093 -0.3304 -0.1298
34592POPC   C4A61091   4.310  30.337   6.897 -0.1345 -0.0146 -0.1085
34592POPC   C1B61092   4.856  31.182   7.993 -0.1614  0.3165 -0.1283
34592POPC   C2B61093   4.765  31.345   7.586  0.0318 -0.0076 -0.1477
34592POPC   C3B61094   4.660  31.461   7.150  0.0691 -0.3294 -0.0022
34592POPC   C4B61095   4.519  31.188   6.819  0.0921  0.3873 -0.2988
34593POPC   NC361096  14.628  18.828   9.435 -0.2104 -0.3270  0.1859
34593POPC   PO461097  14.582  18.458   9.603  0.0084 -0.1721  0.2497
34593POPC   GL161098  14.472  18.505   9.141 -0.1347 -0.3006  0.0744
34593POPC   GL261099  14.752  18.495   8.980  0.1275  0.1784 -0.1113
34593POPC   C1A61100  14.386  18.799   8.749 -0.1960  0.1407  0.1451
34593POPC   D2A61101  14.264  18.916   8.309  0.0485 -0.0814  0.3588
34593POPC   C3A61102  13.912  19.126   8.176 -0.0425 -0.2173  0.0191
34593POPC   C4A61103  13.752  19.419   7.894 -0.0168 -0.2739  0.1718
34593POPC   C1B61104  14.729  18.416   8.523 -0.3590 -0.3391 -0.3566
34593POPC   C2B61105  14.689  18.597   8.104 -0.1031  0.1138 -0.0964
34593POPC   C3B61106  14.505  18.902   7.874  0.1039 -0.0624 -0.0398
34593POPC   C4B61107  14.107  19.047   7.666 -0.2001  0.0126  0.0252
34594POPC   NC361108   6.896  16.725   9.494  0.0394  0.0399 -0.4615
34594POPC   PO461109   6.553  16.893   9.478  0.0392  0.1920  0.0480
34594POPC   GL161110   6.536  17.275   9.314 -0.2563  0.0209 -0.1462
34594POPC   GL261111   6.501  17.231   9.025 -0.1662 -0.1229  0.1305
34594POPC   C1A61112   6.406  17.698   9.185  0.1490 -0.1247  0.2856
34594POPC   D2A61113   6.693  17.965   9.291 -0.2240 -0.3143 -0.3100
34594POPC   C3A61114   7.105  17.945   9.198  0.1735 -0.4419 -0.0833
34594POPC   C4A61115   7.569  17.952   9.269 -0.1073  0.1238  0.0777
34594POPC   C1B61116   6.468  17.475   8.627 -0.3089 -0.0699  0.2253
34594POPC   C2B61117   6.466  17.832   8.361 -0.1214 -0.1040 -0.3124
34594POPC   C3B61118   6.286  17.925   7.976  0.0597  0.0771  0.2093
34594POPC   C4B61119   5.855  17.864   7.779 -0.0184  0.0471  0.0223
34595POPC   NC361120   1.021  27.999   8.101  0.0993  0.0449  0.1382
34595POPC   PO461121   1.308  27.873   8.329  0.1287 -0.0864 -0.0301
34595POPC   GL161122   1.584  27.960   8.002  0.1517 -0.0908 -0.0186
34595POPC   GL261123   1.503  28.077   7.798  0.2986  0.0742 -0.0434
34595POPC   C1A61124   1.799  27.722   7.617  0.3807  0.0172 -0.0515
34595POPC   D2A61125   1.736  27.763   7.171 -0.3865  0.0729 -0.0125
34595POPC   C3A61126   2.075  27.820   6.772 -0.2359  0.0260 -0.3060
34595POPC   C4A61127   2.037  27.527   6.407  0.1998 -0.2102  0.1906
34595POPC   C1B61128   1.593  28.201   7.367 -0.2778  0.3179 -0.1717
34595POPC   C2B61129   1.597  28.160   6.942 -0.0357 -0.0456  0.0826
34595POPC   C3B61130   1.555  27.999   6.510 -0.2168  0.2088  0.2105
34595POPC   C4B61131   1.478  27.909   6.051  0.0807  0.1726 -0.0893
34596POPC   NC361132   5.516  21.769  12.078  0.2724 -0.2402  0.0994
34596POPC   PO461133   5.544  21.510  12.326 -0.0468  0.1227 -0.0260
34596POPC   GL161134   5.919  21.510  12.181 -0.1101 -0.3288 -0.0541
34596POPC   GL261135   6.053  21.462  11.900  0.1738 -0.1076 -0.0329
34596POPC   C1A61136   6.314  21.502  12.468 -0.0115  0.0932 -0.1177
34596POPC   D2A61137   6.357  21.888  12.639  0.0569 -0.2017 -0.1653
34596POPC   C3A61138   6.714  21.743  12.939  0.4380  0.2322 -0.1479
34596POPC   C4A61139   6.756  21.431  13.243  0.0076 -0.1183 -0.0026
34596POPC   C1B61140   6.515  21.628  11.714  0.2616  0.3601 -0.1097
34596POPC   C2B61141   6.938  21.766  11.747 -0.2176 -0.1231  0.2118
34596POPC   C3B61142   7.078  21.989  11.443  0.0409  0.0336 -0.1080
34596POPC   C4B61143   6.750  22.186  11.289 -0.1352 -0.1892 -0.3027
34597POPC   NC361144  14.931  20.492  14.016 -0.2146  0.1330  0.1331
34597POPC   PO461145  14.727  20.208  14.142  0.1374  0.0524 -0.0584
34597POPC   GL161146  14.552  20.341  14.485 -0.2424 -0.1132  0.1722
34597POPC   GL261147  14.569  20.714  14.456 -0.0870 -0.0160 -0.0129
34597POPC   C1A61148  14.669  20.458  14.944 -0.2620  0.0118  0.0070
34597POPC   D2A61149  14.372  20.557  15.296  0.1304  0.1900  0.1696
34597POPC   C3A61150  14.166  20.134  15.507  0.0250 -0.0818 -0.0831
34597POPC   C4A61151  14.248  19.941  15.917 -0.4994 -0.0760  0.0653
34597POPC   C1B61152  14.160  20.600  14.761 -0.3317 -0.1320  0.1734
34597POPC   C2B61153  13.891  20.520  15.166 -0.2180  0.1884  0.1637
34597POPC   C3B61154  13.864  20.546  15.605 -0.1373 -0.3495  0.2757
34597POPC   C4B61155  13.806  20.719  16.011  0.3612  0.0476 -0.2151
34598POPC   NC361156   8.027  18.405  11.417  0.1977  0.0168  0.0084
34598POPC   PO461157   8.336  18.160  11.323  0.2115 -0.2688  0.0180
34598POPC   GL161158   8.595  18.441  11.472  0.1939 -0.0619 -0.0776
34598POPC   GL261159   8.851  18.302  11.449  0.1604 -0.0428 -0.0064
34598POPC   C1A61160   8.756  18.852  11.267  0.1216  0.0029  0.0328
34598POPC   D2A61161   8.729  19.290  11.163 -0.3003  0.0781  0.0672
34598POPC   C3A61162   8.544  19.658  11.023  0.1742 -0.0450  0.2375
34598POPC   C4A61163   8.578  20.054  10.837  0.1636 -0.1525 -0.2055
34598POPC   C1B61164   8.952  18.694  11.689  0.0215 -0.1729 -0.1223
34598POPC   C2B61165   9.027  19.136  11.605  0.0269 -0.3007 -0.1923
34598POPC   C3B61166   8.857  19.522  11.807  0.2478  0.3857 -0.1361
34598POPC   C4B61167   8.802  19.961  11.852  0.0640 -0.2130  0.0085
34599POPC   NC361168   1.343  25.181   9.229 -0.5099  0.0916  0.0835
34599POPC   PO461169   1.118  25.440   8.998  0.0864 -0.0951 -0.1674
34599POPC   GL161170   1.184  25.313   8.624 -0.0634 -0.2220  0.1329
34599POPC   GL261171   0.952  25.148   8.541  0.2297 -0.1986  0.4805
34599POPC   C1A61172   0.966  25.588   8.261  0.1869  0.3115 -0.1120
34599POPC   D2A61173   0.870  25.552   7.803  0.1451  0.0860 -0.0107
34599POPC   C3A61174   0.607  25.472   7.443 -0.2175  0.0978  0.1118
34599POPC   C4A61175   0.695  25.552   6.978 -0.1133  0.1075 -0.0380
34599POPC   C1B61176   0.821  24.747   8.351  0.0475  0.3382 -0.2682
34599POPC   C2B61177   0.633  24.359   8.241  0.2713  0.1852 -0.1264
34599POPC   C3B61178   0.488  24.324   7.830 -0.3734 -0.2823  0.0326
34599POPC   C4B61179   0.594  24.023   7.496  0.1539  0.1712 -0.4778
34600POPC   NC361180   0.078  17.519   8.856 -0.0717  0.2287  0.0233
34600POPC   PO461181  -0.078  17.500   8.494  0.2977 -0.0485 -0.2002
34600POPC   GL161182  -0.190  17.526   8.093  0.1560 -0.0207 -0.0312
34600POPC   GL261183  -0.126  17.478   7.796 -0.0074 -0.1058 -0.1679
34600POPC   C1A61184  -0.315  17.916   7.908  0.1234  0.0111  0.3331
34600POPC   D2A61185  -0.663  18.011   7.565  0.2393  0.0632  0.1251
34600POPC   C3A61186  -0.587  18.270   7.167 -0.1853 -0.1866 -0.3380
34600POPC   C4A61187  -0.453  18.524   6.786 -0.3462  0.4501 -0.1165
34600POPC   C1B61188  -0.138  17.638   7.432  0.1566  0.0950 -0.0059
34600POPC   C2B61189  -0.336  17.846   7.102  0.2864 -0.0045  0.0074
34600POPC   C3B61190  -0.300  18.045   6.672 -0.0442  0.1281  0.1608
34600POPC   C4B61191  -0.595  18.099   6.324 -0.2530  0.0806  0.1575
34601POPC   NC361192   1.763  17.695   8.659 -0.0793 -0.0020 -0.1444
34601POPC   PO461193   1.656  17.451   8.373 -0.1725  0.0659  0.1076
34601POPC   GL161194   1.665  17.869   8.133 -0.1425  0.0904  0.0229
34601POPC   GL261195   1.469  17.660   7.967  0.2434  0.0620  0.3371
34601POPC   C1A61196   1.612  18.235   7.820 -0.1287  0.1336 -0.0773
34601POPC   D2A61197   1.598  18.543   7.449  0.0491 -0.1225  0.0357
34601POPC   C3A61198   1.466  18.307   7.062 -0.2158  0.0054 -0.2804
34601POPC   C4A61199   1.516  18.360   6.586  0.2756 -0.2180  0.1489
34601POPC   C1B61200   1.607  17.762   7.597  0.4430  0.1370 -0.0842
34601POPC   C2B61201   1.794  17.942   7.182 -0.1018  0.1728  0.3671
34601POPC   C3B61202   1.907  18.170   6.823 -0.3180 -0.1104  0.1845
34601POPC   C4B61203   2.250  18.407   6.697  0.5513 -0.1628 -0.0053
34602POPC   NC361204   6.967  31.858   9.194  0.4134 -0.0603 -0.0057
34602POPC   PO461205   7.369  31.768   9.139  0.0880 -0.0371 -0.2138
34602POPC   GL161206   7.373  31.995   8.800 -0.0976  0.1881 -0.0729
34602POPC   GL261207   7.300  31.790   8.576 -0.0387 -0.0806  0.0007
34602POPC   C1A61208   7.597  32.344   8.598  0.0696 -0.3223 -0.3202
34602POPC   D2A61209   7.869  32.627   8.323  0.0519  0.0132 -0.0123
34602POPC   C3A61210   8.119  32.354   7.998 -0.0646  0.0863  0.0662
34602POPC   C4A61211   8.234  32.141   7.658 -0.3770 -0.0052  0.1606
34602POPC   C1B61212   7.185  31.811   8.130  0.0650  0.4508 -0.0799
34602POPC   C2B61213   6.924  31.986   7.755 -0.0881 -0.1255 -0.0778
34602POPC   C3B61214   6.835  32.166   7.304 -0.2050 -0.0932  0.1957
34602POPC   C4B61215   6.490  32.325   7.054  0.1113  0.0337  0.0352
34603POPC   NC361216   5.746  31.631   8.577 -0.2228 -0.1149 -0.3891
34603POPC   PO461217   5.437  31.407   8.601 -0.0468  0.3132 -0.0412
34603POPC   GL161218   5.515  31.313   8.172  0.2799 -0.0998 -0.0763
34603POPC   GL261219   5.646  31.618   8.081 -0.1907  0.0283 -0.0546
34603POPC   C1A61220   5.780  31.279   7.802  0.0375  0.1358  0.2096
34603POPC   D2A61221   5.633  31.209   7.398 -0.0452  0.1513 -0.3049
34603POPC   C3A61222   5.639  31.500   7.064  0.2216 -0.0453  0.0345
34603POPC   C4A61223   5.445  31.726   6.697 -0.0403  0.4214  0.1498
34603POPC   C1B61224   5.738  31.699   7.615  0.2882 -0.1376  0.0405
34603POPC   C2B61225   6.031  31.454   7.399  0.0022 -0.2445 -0.2499
34603POPC   C3B61226   6.354  31.284   7.219  0.1126 -0.0148 -0.3004
34603POPC   C4B61227   6.718  31.310   7.031 -0.2251 -0.0048  0.1690
34604POPC   NC361228  10.094  16.990   9.417 -0.2228  0.1827  0.2633
34604POPC   PO461229  10.279  16.970   9.768  0.2523  0.2695 -0.1950
34604POPC   GL161230  10.471  17.264   9.541  0.4860 -0.1658 -0.2071
34604POPC   GL261231  10.735  17.171   9.396  0.0844 -0.1924 -0.1867
34604POPC   C1A61232  10.449  17.448   9.107  0.0420  0.0674  0.3076
34604POPC   D2A61233  10.563  17.863   9.098  0.1603  0.1496  0.2459
34604POPC   C3A61234  10.389  18.102   8.766  0.1033 -0.2342  0.2817
34604POPC   C4A61235  10.183  18.108   8.330 -0.0844 -0.2958 -0.0896
34604POPC   C1B61236  10.944  17.519   9.192  0.0475  0.2907 -0.1706
34604POPC   C2B61237  11.009  17.840   8.902 -0.1950 -0.3486 -0.1130
34604POPC   C3B61238  10.836  18.156   8.657 -0.1132 -0.0311 -0.0175
34604POPC   C4B61239  10.668  18.376   8.335 -0.0767  0.0179  0.0155
34605POPC   NC361240  14.931  17.379   8.499 -0.0962 -0.1927  0.0467
34605POPC   PO461241  15.325  17.383   8.395  0.1838 -0.1677 -0.1298
34605POPC   GL161242  15.127  17.376   8.007 -0.2595 -0.5475 -0.0154
34605POPC   GL261243  14.842  17.471   8.036 -0.2065 -0.2012 -0.3211
34605POPC   C1A61244  15.214  17.358   7.576  0.2327  0.1397 -0.1179
34605POPC   D2A61245  15.145  17.332   7.144  0.0182 -0.2477  0.0034
34605POPC   C3A61246  14.913  17.532   6.773 -0.0316  0.2917 -0.1673
34605POPC   C4A61247  14.577  17.413   6.502 -0.0492  0.0274  0.1500
34605POPC   C1B61248  14.676  17.314   7.652 -0.1951 -0.1149 -0.1008
34605POPC   C2B61249  14.586  17.337   7.175  0.0873 -0.2882 -0.0324
34605POPC   C3B61250  14.288  17.206   6.878  0.0237  0.2658  0.0862
34605POPC   C4B61251  14.037  17.146   6.548 -0.2017  0.1421  0.6015
34606POPC   NC361252  11.830  17.722  13.848 -0.0934  0.0804  0.0119
34606POPC   PO461253  11.674  17.381  13.803  0.2441  0.1238  0.1969
34606POPC   GL161254  11.354  17.564  14.083 -0.1016  0.3101 -0.1682
34606POPC   GL261255  11.099  17.604  14.274  0.0541  0.0754 -0.0284
34606POPC   C1A61256  11.473  17.891  14.383  0.0992 -0.1269  0.3244
34606POPC   D2A61257  11.307  18.222  14.645  0.0942 -0.2182 -0.0585
34606POPC   C3A61258  11.532  18.271  15.006  0.2604  0.0945 -0.0464
34606POPC   C4A61259  11.635  18.332  15.480  0.1293  0.2275 -0.2457
34606POPC   C1B61260  10.986  18.033  14.251  0.1795 -0.2159 -0.0585
34606POPC   C2B61261  10.847  18.497  14.330 -0.3162  0.2226  0.0228
34606POPC   C3B61262  10.701  18.874  14.302  0.0194  0.1721 -0.1752
34606POPC   C4B61263  10.477  19.278  14.320 -0.0187 -0.0539  0.1885
34607POPC   NC361264   1.627  14.866   8.526 -0.0116  0.0936 -0.0524
34607POPC   PO461265   1.741  15.250   8.566  0.1208 -0.3242 -0.3311
34607POPC   GL161266   1.769  15.634   8.203  0.0048  0.1899 -0.2173
34607POPC   GL261267   1.781  15.857   8.382 -0.0411  0.0291 -0.2153
34607POPC   C1A61268   1.581  15.592   7.786  0.1293 -0.2223 -0.0121
34607POPC   D2A61269   1.625  15.577   7.309 -0.1666  0.2088  0.0718
34607POPC   C3A61270   1.704  15.176   7.095 -0.0716 -0.0938 -0.1025
34607POPC   C4A61271   1.903  14.761   7.149  0.2328 -0.1677 -0.0430
34607POPC   C1B61272   1.711  16.042   8.007  0.0735 -0.0244 -0.1184
34607POPC   C2B61273   1.612  16.126   7.575  0.0069  0.1605  0.1081
34607POPC   C3B61274   1.649  16.067   7.146  0.0222 -0.0953 -0.0691
34607POPC   C4B61275   1.439  16.129   6.701 -0.1782  0.1056  0.1194
34608POPC   NC361276   8.014  31.625   9.012 -0.3929 -0.0871 -0.3275
34608POPC   PO461277   8.250  31.419   8.791 -0.2020 -0.0825 -0.2218
34608POPC   GL161278   8.443  31.626   8.517 -0.1135 -0.0221 -0.1486
34608POPC   GL261279   8.747  31.782   8.420  0.2215  0.0542  0.0341
34608POPC   C1A61280   8.449  31.615   8.013  0.1048  0.0822 -0.2533
34608POPC   D2A61281   8.439  31.704   7.583  0.0170 -0.0701  0.1313
34608POPC   C3A61282   8.515  32.014   7.217  0.1438  0.0196 -0.3647
34608POPC   C4A61283   8.866  32.192   6.983 -0.4476  0.0632 -0.1177
34608POPC   C1B61284   8.909  31.484   8.165  0.1990 -0.1142  0.1172
34608POPC   C2B61285   8.881  31.539   7.628 -0.0934  0.4211  0.2195
34608POPC   C3B61286   9.047  31.721   7.200  0.0484 -0.3346 -0.1524
34608POPC   C4B61287   9.338  31.925   6.933  0.1074  0.1424  0.0192
34609POPC   NC361288  16.953  18.445   8.119 -0.0520  0.0797 -0.2833
34609POPC   PO461289  17.184  18.653   8.344 -0.1399  0.0406 -0.0183
34609POPC   GL161290  17.569  18.640   8.140  0.3735 -0.1616 -0.0521
34609POPC   GL261291  17.431  18.517   7.899 -0.2316 -0.0705 -0.0572
34609POPC   C1A61292  17.897  18.864   7.858  0.0992 -0.1173 -0.0263
34609POPC   D2A61293  17.975  19.144   7.469 -0.0198  0.0815 -0.2999
34609POPC   C3A61294  18.166  19.199   7.033 -0.0767  0.1270 -0.2826
34609POPC   C4A61295  18.459  18.970   6.727 -0.3301 -0.1166  0.0652
34609POPC   C1B61296  17.451  18.909   7.678 -0.2258 -0.2871  0.1127
34609POPC   C2B61297  17.525  19.215   7.343  0.1637  0.2491  0.1157
34609POPC   C3B61298  17.767  19.445   6.982 -0.0599  0.1055  0.1970
34609POPC   C4B61299  17.748  19.532   6.547  0.0099  0.1934 -0.2165
34610POPC   NC361300   9.489  30.140   9.268 -0.2929 -0.0188 -0.1604
34610POPC   PO461301   9.091  30.145   9.246  0.2093  0.0118  0.4477
34610POPC   GL161302   9.073  29.837   8.930 -0.2900  0.0949 -0.1417
34610POPC   GL261303   8.924  29.628   8.892  0.0405 -0.2004 -0.2627
34610POPC   C1A61304   9.099  29.783   8.433  0.1667 -0.3363 -0.1179
34610POPC   D2A61305   9.026  29.757   7.961 -0.2117 -0.1064  0.1814
34610POPC   C3A61306   8.709  29.702   7.632  0.0342  0.0437 -0.0186
34610POPC   C4A61307   8.583  29.699   7.188 -0.1107  0.0724 -0.0796
34610POPC   C1B61308   9.109  29.321   8.638  0.2415  0.2007  0.1412
34610POPC   C2B61309   9.313  29.035   8.361 -0.1018  0.0912  0.1120
34610POPC   C3B61310   9.565  28.859   7.986  0.2737 -0.2992 -0.1645
34610POPC   C4B61311   9.838  28.790   7.610  0.1566 -0.4436  0.1850
34611POPC   NC361312   1.189  28.660   8.611  0.1089 -0.1117 -0.1284
34611POPC   PO461313   0.998  28.691   8.330  0.0437  0.1860  0.0030
34611POPC   GL161314   0.927  28.488   8.021  0.0271 -0.0107 -0.1853
34611POPC   GL261315   0.732  28.656   7.915  0.2805 -0.0302  0.1747
34611POPC   C1A61316   1.024  28.390   7.544 -0.2182  0.0432 -0.1944
34611POPC   D2A61317   0.794  28.363   7.121  0.1609 -0.0964 -0.0760
34611POPC   C3A61318   0.804  28.495   6.683 -0.2306  0.0975 -0.0805
34611POPC   C4A61319   0.755  28.595   6.226 -0.0655 -0.0134 -0.5933
34611POPC   C1B61320   0.765  28.774   7.485  0.1451 -0.1137  0.4172
34611POPC   C2B61321   0.457  28.732   7.098 -0.4073  0.2787  0.2309
34611POPC   C3B61322   0.223  28.725   6.702  0.0837 -0.1516 -0.2343
34611POPC   C4B61323   0.170  28.499   6.315 -0.5251  0.1869 -0.1328
34612POPC   NC361324  15.519  30.846   8.035 -0.2419  0.1093  0.1657
34612POPC   PO461325  15.399  30.526   8.190  0.2238  0.2374  0.0235
34612POPC   GL161326  15.405  30.444   7.779 -0.0916  0.0053 -0.0528
34612POPC   GL261327  15.331  30.177   7.749 -0.2565  0.1620  0.0194
34612POPC   C1A61328  15.574  30.658   7.413 -0.2341 -0.1655  0.3804
34612POPC   D2A61329  15.913  30.716   7.070 -0.0660  0.0913  0.0377
34612POPC   C3A61330  15.799  30.762   6.571  0.1378  0.1932  0.1970
34612POPC   C4A61331  15.914  31.108   6.356  0.2915  0.0213  0.1206
34612POPC   C1B61332  15.323  29.865   7.355 -0.0766  0.2531  0.1649
34612POPC   C2B61333  15.313  29.876   6.908 -0.1065 -0.0873  0.1397
34612POPC   C3B61334  15.296  30.091   6.528  0.0179 -0.1672 -0.1930
34612POPC   C4B61335  15.109  30.382   6.256  0.3018  0.2207  0.0931
34613POPC   NC361336   9.022  30.744   8.950 -0.1732 -0.2806 -0.1145
34613POPC   PO461337   9.297  30.576   9.182 -0.1818 -0.5772  0.1930
34613POPC   GL161338   9.543  30.795   8.858 -0.0819  0.1938 -0.3420
34613POPC   GL261339   9.361  30.973   8.711 -0.1214  0.0859 -0.0310
34613POPC   C1A61340   9.649  30.748   8.368 -0.1454  0.1005  0.1138
34613POPC   D2A61341   9.638  30.581   8.008 -0.0177  0.0974 -0.0114
34613POPC   C3A61342   9.359  30.611   7.658  0.2808  0.2559 -0.1146
34613POPC   C4A61343   9.224  30.445   7.264  0.0294 -0.3239 -0.1412
34613POPC   C1B61344   9.204  31.071   8.309 -0.0482 -0.1188 -0.0268
34613POPC   C2B61345   9.179  31.064   7.847 -0.3597  0.0663 -0.0188
34613POPC   C3B61346   9.131  31.148   7.362 -0.0115  0.0772 -0.2242
34613POPC   C4B61347   9.159  31.323   6.949 -0.3352 -0.0195 -0.4261
34614POPC   NC361348   5.240  18.951  10.229  0.1190 -0.0901  0.1469
34614POPC   PO461349   5.384  18.734  10.494 -0.1029  0.2650 -0.1187
34614POPC   GL161350   5.738  18.833  10.304  0.3648 -0.4123  0.5027
34614POPC   GL261351   5.997  18.725  10.176  0.2390  0.2451  0.0050
34614POPC   C1A61352   5.703  19.261  10.124 -0.1124 -0.0940  0.3540
34614POPC   D2A61353   5.909  19.397   9.731 -0.0441 -0.1702  0.0576
34614POPC   C3A61354   6.229  19.707   9.793 -0.2278  0.1905  0.0830
34614POPC   C4A61355   6.435  20.142   9.629  0.3288 -0.0417 -0.0434
34614POPC   C1B61356   6.167  19.125  10.068  0.1462  0.1615 -0.2572
34614POPC   C2B61357   6.445  19.491  10.147 -0.1485  0.0350 -0.2846
34614POPC   C3B61358   6.725  19.720   9.885  0.1971 -0.2124  0.0196
34614POPC   C4B61359   6.939  19.837   9.529  0.0921 -0.0189 -0.1253
34615POPC   NC361360   2.901  23.577   9.528 -0.0054 -0.2445 -0.0984
34615POPC   PO461361   2.824  23.207   9.699  0.1872  0.1362 -0.2882
34615POPC   GL161362   2.957  23.050   9.440 -0.0868  0.1078 -0.0067
34615POPC   GL261363   3.219  23.242   9.435  0.1960  0.0898  0.0425
34615POPC   C1A61364   2.959  22.962   8.986  0.1070  0.1143  0.1365
34615POPC   D2A61365   2.658  22.995   8.624  0.2748 -0.0738 -0.1003
34615POPC   C3A61366   2.758  23.142   8.175 -0.1832 -0.1098 -0.0349
34615POPC   C4A61367   2.620  22.953   7.787  0.2787 -0.0746 -0.0266
34615POPC   C1B61368   3.439  23.179   9.079  0.0930 -0.0902  0.2010
34615POPC   C2B61369   3.777  23.019   8.800 -0.2000 -0.3029 -0.0813
34615POPC   C3B61370   4.129  23.029   8.459  0.0831 -0.2395  0.3052
34615POPC   C4B61371   4.386  23.245   8.156 -0.1102 -0.0092 -0.0826
34616POPC   NC361372   2.016  31.607   7.810 -0.0932 -0.2364  0.1822
34616POPC   PO461373   1.838  31.865   8.059 -0.0582 -0.2027 -0.2053
34616POPC   GL161374   1.616  31.998   7.778  0.2076  0.2749  0.0040
34616POPC   GL261375   1.701  32.181   7.681  0.0861  0.0849  0.2992
34616POPC   C1A61376   1.389  31.988   7.367  0.1594  0.1353 -0.2655
34616POPC   D2A61377   1.338  31.764   6.976 -0.1113 -0.2108 -0.0905
34616POPC   C3A61378   1.449  31.954   6.578  0.0104  0.0320  0.2824
34616POPC   C4A61379   1.649  31.952   6.157 -0.1122 -0.1966  0.0153
34616POPC   C1B61380   1.652  32.424   7.262 -0.1332  0.0484 -0.1325
34616POPC   C2B61381   1.650  32.783   6.983 -0.1058  0.0599  0.1729
34616POPC   C3B61382   1.793  32.977   6.589 -0.2612 -0.2394 -0.2916
34616POPC   C4B61383   1.696  33.014   6.142 -0.0562 -0.4467  0.0577
34617POPC   NC361384   0.232  28.450   8.022 -0.1618 -0.0014  0.2313
34617POPC   PO461385   0.090  28.440   8.384  0.0901 -0.1730 -0.0072
34617POPC   GL161386  -0.192  28.470   8.136  0.0536 -0.1043 -0.2945
34617POPC   GL261387  -0.515  28.305   8.147  0.1353 -0.1674  0.0996
34617POPC   C1A61388  -0.183  28.536   7.650 -0.0999  0.0235 -0.0164
34617POPC   D2A61389  -0.182  28.186   7.278 -0.0539 -0.2296  0.3645
34617POPC   C3A61390  -0.061  27.958   6.908  0.1306  0.0129  0.0139
34617POPC   C4A61391   0.050  28.017   6.484  0.0713  0.1102  0.2601
34617POPC   C1B61392  -0.652  28.410   7.778  0.1925  0.0682  0.1639
34617POPC   C2B61393  -0.681  28.303   7.319 -0.2897 -0.2529  0.2055
34617POPC   C3B61394  -0.599  28.037   6.929 -0.1551  0.0684 -0.0420
34617POPC   C4B61395  -0.467  28.017   6.413  0.1725  0.1958 -0.3129
34618POPC   NC361396   4.123  16.371   8.829  0.0062 -0.1735 -0.1441
34618POPC   PO461397   3.739  16.381   8.683  0.2215  0.1424 -0.0124
34618POPC   GL161398   3.676  16.396   8.319  0.0108  0.0928 -0.1020
34618POPC   GL261399   3.834  16.262   8.187  0.0718 -0.1228  0.3242
34618POPC   C1A61400   3.492  16.414   7.912 -0.2439 -0.4372  0.0961
34618POPC   D2A61401   3.594  16.317   7.476 -0.3862  0.1562 -0.1524
34618POPC   C3A61402   3.964  16.543   7.268 -0.1670  0.0427  0.4211
34618POPC   C4A61403   4.338  16.783   7.212 -0.0808  0.2207  0.0940
34618POPC   C1B61404   3.965  16.592   7.881  0.0344  0.0367  0.3424
34618POPC   C2B61405   3.874  16.965   7.570 -0.1107 -0.0397  0.0600
34618POPC   C3B61406   3.794  17.312   7.330  0.0811  0.0905  0.5553
34618POPC   C4B61407   3.863  17.631   6.993 -0.1583  0.1924 -0.1416
34619POPC   NC361408   5.622  20.598  11.759 -0.0096  0.2525 -0.0623
34619POPC   PO461409   5.371  20.873  11.786  0.0124  0.0813 -0.1158
34619POPC   GL161410   5.585  21.003  11.477 -0.4571  0.2447 -0.1905
34619POPC   GL261411   5.827  21.031  11.608 -0.1402 -0.1176 -0.2271
34619POPC   C1A61412   5.854  21.123  11.108 -0.4007  0.0561  0.0406
34619POPC   D2A61413   6.108  20.870  10.808  0.1495  0.1641 -0.0294
34619POPC   C3A61414   6.572  20.825  10.764  0.0581  0.1807 -0.1266
34619POPC   C4A61415   6.844  21.184  10.886  0.1297  0.1867  0.0439
34619POPC   C1B61416   5.858  21.446  11.485 -0.2065 -0.4990  0.1942
34619POPC   C2B61417   6.055  21.818  11.386  0.1527 -0.1730 -0.1663
34619POPC   C3B61418   6.142  22.149  11.048 -0.1976 -0.0284  0.1144
34619POPC   C4B61419   6.416  22.450  10.800  0.1853 -0.0812  0.0386
34620POPC   NC361420  16.416  25.861   8.888 -0.1545 -0.0958 -0.1304
34620POPC   PO461421  16.092  25.591   8.941 -0.0874  0.1287  0.0442
34620POPC   GL161422  15.930  25.601   8.632  0.2640  0.2568  0.0634
34620POPC   GL261423  15.981  25.792   8.420 -0.2565  0.3408  0.0372
34620POPC   C1A61424  15.687  25.315   8.382  0.1689 -0.0966 -0.1409
34620POPC   D2A61425  15.349  25.180   8.068 -0.2000 -0.0198  0.0718
34620POPC   C3A61426  15.277  25.478   7.737 -0.3341 -0.0039 -0.0604
34620POPC   C4A61427  15.381  25.579   7.304  0.1486  0.1439  0.2552
34620POPC   C1B61428  16.074  25.419   8.090  0.0595 -0.1904  0.0066
34620POPC   C2B61429  16.301  25.364   7.698  0.0311 -0.2978 -0.0270
34620POPC   C3B61430  16.278  25.027   7.482 -0.4667  0.3374  0.1520
34620POPC   C4B61431  16.623  24.710   7.308 -0.1304 -0.0943  0.1354
34621POPC   NC361432   7.557  27.400  10.790 -0.0105 -0.1961  0.0084
34621POPC   PO461433   7.569  27.638  10.488  0.1955 -0.0587  0.1376
34621POPC   GL161434   7.795  27.282  10.426 -0.1066 -0.0487 -0.1880
34621POPC   GL261435   7.623  27.033  10.416  0.0010  0.0067 -0.2302
34621POPC   C1A61436   8.098  26.890  10.236 -0.3923  0.2062 -0.1148
34621POPC   D2A61437   8.053  26.554   9.930  0.0571 -0.2114 -0.0465
34621POPC   C3A61438   8.144  26.130   9.779  0.2161  0.1243 -0.1868
34621POPC   C4A61439   8.043  25.826   9.482  0.0049  0.1383 -0.0214
34621POPC   C1B61440   7.648  26.604  10.280 -0.0523 -0.0633  0.1824
34621POPC   C2B61441   7.747  26.170  10.115  0.0486 -0.0219 -0.1115
34621POPC   C3B61442   7.937  25.724   9.971  0.0010  0.0009 -0.0876
34621POPC   C4B61443   8.200  25.389   9.712 -0.0391 -0.2694 -0.1088
34622POPC   NC361444  15.119  23.724  10.615  0.3450 -0.1139  0.0440
34622POPC   PO461445  14.996  24.013  10.337  0.1086  0.2537 -0.0840
34622POPC   GL161446  14.741  23.933  10.059  0.0562 -0.1089 -0.1640
34622POPC   GL261447  14.486  23.971  10.140 -0.1110 -0.3145  0.4442
34622POPC   C1A61448  14.589  23.721   9.674  0.0390  0.1782  0.2167
34622POPC   D2A61449  14.591  23.266   9.486 -0.0828  0.1943 -0.0380
34622POPC   C3A61450  14.213  23.187   9.209 -0.3407  0.1164 -0.3419
34622POPC   C4A61451  13.713  23.079   9.241 -0.0775 -0.1599 -0.0808
34622POPC   C1B61452  14.079  24.071   9.896 -0.1716 -0.1758  0.1301
34622POPC   C2B61453  13.834  24.090   9.500  0.1563 -0.1083 -0.0013
34622POPC   C3B61454  13.766  24.076   9.041  0.0895  0.0272  0.3018
34622POPC   C4B61455  13.490  23.938   8.695  0.0198  0.4386 -0.1000
34623POPC   NC361456  11.665  18.478  12.471  0.2120  0.0368 -0.2682
34623POPC   PO461457  11.852  18.667  12.184 -0.0109  0.0143 -0.2415
34623POPC   GL161458  11.916  19.072  12.245 -0.2193 -0.4609  0.2991
34623POPC   GL261459  11.772  19.163  12.022  0.0358  0.0447 -0.0508
34623POPC   C1A61460  12.088  19.463  12.014  0.0707 -0.4350 -0.1706
34623POPC   D2A61461  12.080  19.962  11.942 -0.1241 -0.0112  0.2811
34623POPC   C3A61462  12.162  20.229  12.306 -0.1674 -0.1285 -0.3076
34623POPC   C4A61463  12.141  20.622  12.439 -0.0447  0.1132 -0.2820
34623POPC   C1B61464  11.434  19.386  12.288  0.2138  0.0156  0.1992
34623POPC   C2B61465  11.297  19.829  12.345 -0.2189 -0.1339 -0.0785
34623POPC   C3B61466  11.178  20.303  12.358 -0.1581  0.1179  0.1493
34623POPC   C4B61467  11.258  20.710  12.543 -0.2191  0.2147  0.0179
34624POPC   NC361468  32.245  20.960   9.548  0.1168 -0.1744 -0.1230
34624POPC   PO461469  32.508  21.081   9.310  0.0689 -0.0631  0.0287
34624POPC   GL161470  32.309  20.988   8.986 -0.0904 -0.1291 -0.3819
34624POPC   GL261471  32.570  20.974   8.829 -0.1027  0.0579 -0.0174
34624POPC   C1A61472  32.189  20.695   8.645  0.1557  0.1372  0.2904
34624POPC   D2A61473  31.896  20.624   8.319  0.1314 -0.0770  0.0338
34624POPC   C3A61474  31.991  20.748   7.903 -0.1741  0.1808 -0.2666
34624POPC   C4A61475  31.829  20.624   7.439 -0.0907  0.0674 -0.0050
34624POPC   C1B61476  32.404  21.021   8.381 -0.1566 -0.1838  0.1231
34624POPC   C2B61477  32.398  21.208   7.946 -0.0558  0.2906 -0.1304
34624POPC   C3B61478  32.189  21.201   7.525 -0.0495  0.0766  0.1772
34624POPC   C4B61479  31.777  21.313   7.342 -0.1570  0.0290 -0.1358
34625POPC   NC361480   5.260  30.190   8.898  0.2655  0.0504  0.0706
34625POPC   PO461481   5.606  30.372   8.704 -0.0473  0.0262 -0.1760
34625POPC   GL161482   5.734  30.368   8.283  0.0603  0.2065 -0.0400
34625POPC   GL261483   5.575  30.102   8.302 -0.2055 -0.1022 -0.3006
34625POPC   C1A61484   6.107  30.475   7.978 -0.2274 -0.0701  0.0496
34625POPC   D2A61485   6.424  30.698   7.797 -0.2129  0.1402  0.0623
34625POPC   C3A61486   6.556  30.563   7.365 -0.0374  0.0458 -0.0783
34625POPC   C4A61487   6.933  30.494   7.171 -0.2503 -0.1701 -0.2331
34625POPC   C1B61488   5.637  30.221   7.844  0.1543  0.0677 -0.1034
34625POPC   C2B61489   5.901  30.242   7.475 -0.0948 -0.1985 -0.0669
34625POPC   C3B61490   6.097  30.473   7.090 -0.0922 -0.1896 -0.0431
34625POPC   C4B61491   6.268  30.596   6.703 -0.0772  0.0100 -0.0890
34626POPC   NC361492  32.278  27.921   8.445 -0.1375 -0.0029  0.2431
34626POPC   PO461493  32.624  28.063   8.538  0.1589  0.2396 -0.1695
34626POPC   GL161494  32.666  27.938   8.179  0.4352 -0.4794 -0.2306
34626POPC   GL261495  32.938  27.953   8.048 -0.0478  0.2254  0.0769
34626POPC   C1A61496  32.491  28.040   7.762  0.0323  0.1184  0.1440
34626POPC   D2A61497  32.175  27.856   7.482 -0.1642  0.2007 -0.0224
34626POPC   C3A61498  31.826  27.939   7.239  0.0926 -0.0786  0.0331
34626POPC   C4A61499  31.487  27.944   6.879  0.0097  0.1598  0.0514
34626POPC   C1B61500  32.971  27.970   7.576 -0.1521 -0.1929  0.0895
34626POPC   C2B61501  33.110  27.723   7.200  0.0722 -0.0002  0.3506
34626POPC   C3B61502  33.174  27.633   6.739  0.2369 -0.3659  0.0684
34626POPC   C4B61503  33.302  27.620   6.297 -0.1892  0.2273 -0.0545
34627POPC   NC361504  16.038  28.196   8.752  0.1691 -0.0909  0.2402
34627POPC   PO461505  15.832  27.870   8.869 -0.1784 -0.2560  0.2576
34627POPC   GL161506  15.611  27.885   8.626 -0.0135 -0.2699 -0.1022
34627POPC   GL261507  15.339  27.965   8.502  0.3073  0.0297  0.3122
34627POPC   C1A61508  15.602  28.232   8.274  0.1691  0.1114 -0.1330
34627POPC   D2A61509  15.668  28.283   7.797  0.2326  0.0135 -0.1537
34627POPC   C3A61510  15.378  27.941   7.637 -0.4115  0.1280 -0.2115
34627POPC   C4A61511  15.466  27.645   7.271  0.1898 -0.1902 -0.2231
34627POPC   C1B61512  15.125  28.087   8.104 -0.2108 -0.1514  0.1393
34627POPC   C2B61513  14.869  27.834   7.794 -0.0069  0.0795  0.0295
34627POPC   C3B61514  14.860  27.819   7.355  0.1935  0.0298 -0.0220
34627POPC   C4B61515  14.922  27.754   6.916  0.0233 -0.0822  0.0666
34628POPC   NC361516  14.713  22.639  11.981  0.0594  0.2006 -0.4872
34628POPC   PO461517  14.893  22.850  11.658 -0.1067  0.0908  0.1387
34628POPC   GL161518  14.490  22.899  11.654  0.0455  0.1337  0.2017
34628POPC   GL261519  14.381  22.682  11.494  0.0289 -0.1635 -0.0236
34628POPC   C1A61520  14.181  22.776  11.973 -0.1426 -0.1380 -0.3884
34628POPC   D2A61521  13.726  22.934  11.946 -0.0389 -0.2510 -0.2478
34628POPC   C3A61522  13.418  22.699  12.215  0.0683  0.2152  0.0019
34628POPC   C4A61523  13.047  22.428  12.150  0.0539 -0.0416  0.3452
34628POPC   C1B61524  13.967  22.841  11.542 -0.1186 -0.0610  0.2320
34628POPC   C2B61525  13.534  22.593  11.616 -0.0835 -0.0322 -0.1123
34628POPC   C3B61526  13.153  22.307  11.663  0.1916 -0.0927 -0.0067
34628POPC   C4B61527  12.676  22.339  11.697 -0.0216  0.2321 -0.1823
34629POPC   NC361528   0.520  22.372   9.057  0.0355  0.0122  0.0706
34629POPC   PO461529   0.457  22.010   9.222  0.0627 -0.3880 -0.1347
34629POPC   GL161530   0.480  21.953   8.847  0.1082 -0.1154 -0.4586
34629POPC   GL261531   0.299  21.910   8.722  0.1367 -0.2979 -0.1089
34629POPC   C1A61532   0.682  22.123   8.478 -0.0241  0.1835  0.1331
34629POPC   D2A61533   0.760  21.971   8.035  0.2825 -0.2229 -0.0643
34629POPC   C3A61534   0.403  22.050   7.804 -0.0353  0.2700 -0.2774
34629POPC   C4A61535   0.193  22.011   7.376  0.1972 -0.2008 -0.0101
34629POPC   C1B61536   0.211  21.997   8.259 -0.1179  0.1455 -0.0272
34629POPC   C2B61537  -0.021  22.213   7.987 -0.0258  0.0435 -0.2158
34629POPC   C3B61538  -0.071  22.355   7.539  0.0560 -0.0034 -0.2014
34629POPC   C4B61539   0.231  22.490   7.226 -0.1406  0.1990  0.0389
34630POPC   NC361540   5.238  19.490  13.927 -0.2261 -0.1576  0.0456
34630POPC   PO461541   5.448  19.205  13.757  0.0543  0.2153 -0.1764
34630POPC   GL161542   5.643  19.261  14.008  0.3719  0.1693 -0.2627
34630POPC   GL261543   5.595  19.263  14.365  0.0958  0.1227  0.0445
34630POPC   C1A61544   5.990  19.521  14.191  0.3742  0.0325 -0.2098
34630POPC   D2A61545   6.437  19.432  14.489  0.2603 -0.0117 -0.0496
34630POPC   C3A61546   6.362  19.063  14.733  0.3362 -0.4384  0.0202
34630POPC   C4A61547   6.454  18.660  14.943  0.1750 -0.0016  0.1043
34630POPC   C1B61548   5.802  19.277  14.760  0.1377  0.0030  0.0719
34630POPC   C2B61549   6.110  19.424  15.038 -0.0905 -0.0991  0.1658
34630POPC   C3B61550   6.520  19.616  14.984 -0.2781 -0.1919 -0.1445
34630POPC   C4B61551   6.754  19.839  14.643  0.0049 -0.1834  0.2500
34631POPC   NC361552   0.260  24.683   9.089  0.1281  0.0921  0.3537
34631POPC   PO461553   0.317  25.011   9.283  0.0032  0.2796  0.2225
34631POPC   GL161554   0.350  25.116   8.904 -0.0677  0.1420  0.0061
34631POPC   GL261555   0.056  25.039   8.822  0.2729  0.1223  0.3355
34631POPC   C1A61556   0.406  25.122   8.491  0.1576 -0.2543 -0.1968
34631POPC   D2A61557   0.659  25.153   8.115  0.0519  0.1440  0.1615
34631POPC   C3A61558   0.814  24.779   7.882 -0.0270  0.0866 -0.2333
34631POPC   C4A61559   0.903  24.513   7.570  0.1569 -0.1651  0.1122
34631POPC   C1B61560  -0.080  24.907   8.431  0.2759  0.3494  0.2712
34631POPC   C2B61561  -0.152  24.868   7.958 -0.0041  0.0317  0.0253
34631POPC   C3B61562  -0.424  24.983   7.625  0.0675 -0.2357 -0.0954
34631POPC   C4B61563  -0.637  24.904   7.252  0.1624  0.0897 -0.0003
34632POPC   NC361564   0.750  31.115   8.080  0.0392  0.0399 -0.1751
34632POPC   PO461565   1.144  31.160   8.192 -0.0018  0.0175  0.1740
34632POPC   GL161566   1.164  31.281   7.838  0.0388  0.3058 -0.0405
34632POPC   GL261567   0.884  31.410   7.672 -0.0404  0.2016 -0.0689
34632POPC   C1A61568   1.494  31.556   7.573 -0.6057 -0.2444 -0.0930
34632POPC   D2A61569   1.840  31.713   7.346  0.2296 -0.2383  0.0265
34632POPC   C3A61570   1.784  32.033   7.013  0.3280  0.0047 -0.0441
34632POPC   C4A61571   1.779  32.380   6.769 -0.1423 -0.0754 -0.2054
34632POPC   C1B61572   0.996  31.421   7.190 -0.0965 -0.0217  0.3720
34632POPC   C2B61573   1.154  31.380   6.718  0.0437  0.1539 -0.0698
34632POPC   C3B61574   1.330  31.397   6.303  0.1449 -0.1241 -0.2278
34632POPC   C4B61575   1.277  31.630   5.904 -0.2220  0.0694  0.0508
34633POPC   NC361576  13.892  24.810  10.609 -0.2495 -0.1182 -0.2857
34633POPC   PO461577  13.996  24.462  10.721 -0.1861 -0.0269 -0.0002
34633POPC   GL161578  13.711  24.264  10.572  0.0683 -0.1427 -0.0951
34633POPC   GL261579  13.791  23.972  10.478  0.0475  0.1878 -0.2090
34633POPC   C1A61580  13.342  24.347  10.333 -0.2499 -0.3740  0.0586
34633POPC   D2A61581  13.005  24.556  10.138 -0.1279  0.1679  0.0445
34633POPC   C3A61582  13.105  24.583   9.701  0.1569 -0.2474 -0.1044
34633POPC   C4A61583  12.845  24.588   9.272 -0.3337  0.0859 -0.2072
34633POPC   C1B61584  13.399  23.700  10.299  0.1426  0.2430  0.3756
34633POPC   C2B61585  12.927  23.635  10.159  0.4242 -0.0618 -0.3210
34633POPC   C3B61586  12.614  23.284  10.231  0.1325 -0.1926 -0.3189
34633POPC   C4B61587  12.417  22.962  10.447  0.1756  0.0105  0.1821
34634POPC   NC361588   3.413  29.466   8.335  0.1284  0.0307  0.2984
34634POPC   PO461589   3.509  29.081   8.298 -0.2149  0.0610  0.2827
34634POPC   GL161590   3.648  28.976   7.896 -0.0049 -0.1198  0.1243
34634POPC   GL261591   3.879  29.105   7.875 -0.0919  0.2412 -0.0450
34634POPC   C1A61592   3.718  28.714   7.536 -0.0434 -0.0546  0.2487
34634POPC   D2A61593   3.803  28.507   7.170  0.2797  0.1130  0.1648
34634POPC   C3A61594   3.812  28.629   6.748  0.1194 -0.0158  0.0672
34634POPC   C4A61595   3.655  28.894   6.316  0.0242  0.2603 -0.1290
34634POPC   C1B61596   4.187  29.072   7.560 -0.2174 -0.2932  0.3332
34634POPC   C2B61597   4.217  28.955   7.118  0.4004 -0.0926  0.0018
34634POPC   C3B61598   4.402  29.198   6.783 -0.0361 -0.0344 -0.0426
34634POPC   C4B61599   4.363  29.401   6.371 -0.3909  0.4283 -0.3312
34635POPC   NC361600  16.918  29.798   7.704  0.3140 -0.0613 -0.1568
34635POPC   PO461601  16.934  29.507   8.047 -0.0393  0.0746  0.1371
34635POPC   GL161602  16.843  29.363   7.692  0.0599 -0.1737  0.0966
34635POPC   GL261603  16.587  29.462   7.641 -0.1174 -0.2009  0.2416
34635POPC   C1A61604  16.807  28.965   7.429 -0.0821 -0.1025  0.1620
34635POPC   D2A61605  16.586  28.578   7.219  0.0239 -0.0152  0.0519
34635POPC   C3A61606  16.401  28.706   6.810  0.1484 -0.2885  0.1577
34635POPC   C4A61607  16.197  28.611   6.422  0.1715 -0.2204  0.1901
34635POPC   C1B61608  16.579  29.331   7.209  0.1809 -0.3104 -0.1403
34635POPC   C2B61609  16.751  29.115   6.858 -0.0898 -0.1519  0.4681
34635POPC   C3B61610  16.732  28.888   6.447  0.3005  0.4107  0.0972
34635POPC   C4B61611  16.606  28.599   6.067  0.0144 -0.0919 -0.0702
34636POPC   NC361612  15.441  22.930   9.857  0.1662  0.1923 -0.0453
34636POPC   PO461613  15.445  22.852   9.483 -0.1631  0.1660 -0.1906
34636POPC   GL161614  15.530  22.712   9.041  0.1255  0.0621  0.1279
34636POPC   GL261615  15.796  22.817   8.950 -0.2057  0.0786 -0.0834
34636POPC   C1A61616  15.442  22.685   8.593  0.1168  0.1468 -0.2206
34636POPC   D2A61617  15.187  22.647   8.235 -0.0062  0.1483 -0.1762
34636POPC   C3A61618  14.855  22.287   8.066  0.0437  0.1109  0.0016
34636POPC   C4A61619  14.737  22.008   7.736  0.0964 -0.1829  0.1403
34636POPC   C1B61620  15.793  22.359   8.792  0.2477 -0.3516  0.5826
34636POPC   C2B61621  15.611  22.168   8.358 -0.1201 -0.0180 -0.0353
34636POPC   C3B61622  15.645  21.990   7.922  0.2620 -0.0365  0.1927
34636POPC   C4B61623  15.617  22.124   7.481 -0.1662  0.3061 -0.0690
34637POPC   NC361624  14.260  19.974  11.377  0.0245  0.6136  0.2400
34637POPC   PO461625  14.079  19.969  11.692 -0.0028 -0.0663  0.1492
34637POPC   GL161626  13.874  20.185  11.427 -0.5065  0.3615 -0.4593
34637POPC   GL261627  13.599  20.130  11.508  0.2837 -0.1675  0.1291
34637POPC   C1A61628  13.653  20.552  11.200 -0.0741  0.1611 -0.1244
34637POPC   D2A61629  13.191  20.702  11.189 -0.0999  0.3411 -0.0183
34637POPC   C3A61630  12.955  20.954  10.892 -0.1077  0.1171 -0.1642
34637POPC   C4A61631  12.693  21.120  10.517 -0.0217 -0.2090  0.2631
34637POPC   C1B61632  13.331  20.415  11.743 -0.2016 -0.1771  0.1124
34637POPC   C2B61633  13.014  20.821  11.759  0.1292 -0.0189 -0.1038
34637POPC   C3B61634  12.904  21.106  11.429  0.0055  0.0561  0.0082
34637POPC   C4B61635  12.578  21.237  11.078  0.1751  0.1506 -0.0400
34638POPC   NC361636  14.419  18.690  15.106 -0.1095 -0.0910  0.1318
34638POPC   PO461637  14.467  18.294  15.066  0.2412  0.1091  0.0421
34638POPC   GL161638  14.203  18.343  15.337 -0.2062  0.4279 -0.3652
34638POPC   GL261639  13.946  18.227  15.217 -0.0279  0.0798  0.2675
34638POPC   C1A61640  14.041  18.210  15.761 -0.1331 -0.0263 -0.2625
34638POPC   D2A61641  14.106  18.009  16.185  0.0274  0.0504 -0.1715
34638POPC   C3A61642  14.025  18.097  16.627  0.1919  0.1341 -0.1438
34638POPC   C4A61643  14.031  18.113  17.087  0.4617 -0.1818  0.0981
34638POPC   C1B61644  13.558  18.276  15.562 -0.4127 -0.0494 -0.3689
34638POPC   C2B61645  13.232  18.466  15.910 -0.0720  0.0421  0.1389
34638POPC   C3B61646  12.802  18.305  16.016  0.1336 -0.6531  0.0062
34638POPC   C4B61647  12.343  18.329  16.157 -0.1916  0.0141 -0.1128
34639POPC   NC361648   4.257  26.321   9.162  0.0768 -0.0950  0.2073
34639POPC   PO461649   4.134  25.983   9.314 -0.1058  0.0807  0.1838
34639POPC   GL161650   4.448  25.708   9.127  0.0257 -0.0266  0.1710
34639POPC   GL261651   4.635  25.965   8.987 -0.0250  0.0407  0.4881
34639POPC   C1A61652   4.766  25.544   9.403 -0.0949  0.3014  0.2692
34639POPC   D2A61653   5.243  25.451   9.344 -0.0834  0.2355  0.0269
34639POPC   C3A61654   5.381  25.107   9.111  0.2637 -0.3096  0.4667
34639POPC   C4A61655   5.491  24.650   9.056 -0.1503 -0.0831 -0.0353
34639POPC   C1B61656   4.895  25.896   8.585  0.4611  0.0085 -0.0435
34639POPC   C2B61657   5.279  25.757   8.353 -0.0505 -0.2915 -0.1645
34639POPC   C3B61658   5.554  25.777   8.001  0.0824 -0.2231  0.2905
34639POPC   C4B61659   5.601  25.853   7.561  0.0074  0.0668 -0.1781
34640POPC   NC361660  16.063  26.909   9.141  0.2586  0.0295  0.0538
34640POPC   PO461661  16.217  26.638   8.870 -0.1910  0.0161 -0.3016
34640POPC   GL161662  15.899  26.486   8.642 -0.2270 -0.0899 -0.0649
34640POPC   GL261663  15.978  26.286   8.436 -0.2490 -0.0274  0.0908
34640POPC   C1A61664  15.474  26.581   8.470  0.2411 -0.3844  0.0570
34640POPC   D2A61665  15.210  26.611   8.124  0.1133 -0.2351 -0.1376
34640POPC   C3A61666  15.262  26.289   7.765  0.1030  0.0739 -0.3032
34640POPC   C4A61667  15.560  26.019   7.580  0.0699  0.1729 -0.0237
34640POPC   C1B61668  15.971  26.226   7.977 -0.0732  0.3448  0.2206
34640POPC   C2B61669  15.990  26.202   7.523 -0.2699 -0.1323  0.2265
34640POPC   C3B61670  15.775  25.969   7.170 -0.0523 -0.1690 -0.2466
34640POPC   C4B61671  15.649  25.863   6.709 -0.0778 -0.0143 -0.1278
34641POPC   NC361672  15.075  26.669   9.783  0.0351  0.0444 -0.1450
34641POPC   PO461673  14.802  26.391   9.673 -0.0582  0.0898 -0.0942
34641POPC   GL161674  14.486  26.247   9.429  0.0797  0.2617 -0.0158
34641POPC   GL261675  14.520  25.913   9.376  0.0311  0.0694  0.1452
34641POPC   C1A61676  14.228  26.473   9.111  0.0557 -0.2032  0.0030
34641POPC   D2A61677  13.813  26.672   9.013  0.0028  0.0613 -0.3047
34641POPC   C3A61678  13.543  26.385   8.762 -0.0234 -0.1929 -0.1226
34641POPC   C4A61679  13.361  26.226   8.346  0.1173  0.0126 -0.2854
34641POPC   C1B61680  14.233  25.973   9.048  0.1350  0.0735  0.2275
34641POPC   C2B61681  13.940  26.113   8.717 -0.0070 -0.1676  0.0290
34641POPC   C3B61682  13.830  25.989   8.294 -0.1483  0.3242  0.0259
34641POPC   C4B61683  13.908  25.973   7.865  0.0614  0.1479  0.1527
34642POPC   NC361684   9.284  17.573  13.066  0.2054  0.2482 -0.1082
34642POPC   PO461685   9.658  17.493  13.061  0.1227  0.0202 -0.4011
34642POPC   GL161686   9.771  17.883  13.043  0.3210 -0.1688 -0.0271
34642POPC   GL261687   9.739  17.936  12.741 -0.0782  0.1887  0.0644
34642POPC   C1A61688   9.555  18.311  13.069 -0.2025 -0.2705  0.1215
34642POPC   D2A61689   9.385  18.704  13.181  0.0683  0.1553 -0.4773
34642POPC   C3A61690   9.446  19.119  13.190 -0.0529  0.0546  0.4740
34642POPC   C4A61691   9.387  19.552  13.136 -0.2129 -0.0571  0.1839
34642POPC   C1B61692  10.155  18.089  12.871 -0.0473 -0.0330 -0.1124
34642POPC   C2B61693  10.141  18.434  13.154 -0.0318  0.0900 -0.0990
34642POPC   C3B61694   9.931  18.825  13.387 -0.2909  0.2520  0.0041
34642POPC   C4B61695   9.858  19.233  13.460 -0.0170  0.0205 -0.0712
34643POPC   NC361696  13.143  32.679   8.953 -0.2890 -0.0010  0.1008
34643POPC   PO461697  13.294  33.028   9.022 -0.2998  0.6049  0.1546
34643POPC   GL161698  13.216  33.010   8.614 -0.1131  0.3571  0.1624
34643POPC   GL261699  13.499  32.925   8.502 -0.0038 -0.1274  0.2884
34643POPC   C1A61700  12.831  33.079   8.369  0.0396 -0.2310 -0.0680
34643POPC   D2A61701  12.694  33.036   7.886 -0.1061 -0.2052 -0.1968
34643POPC   C3A61702  12.683  32.646   7.653  0.1322 -0.2521 -0.0638
34643POPC   C4A61703  12.735  32.711   7.195  0.1503  0.0881  0.1492
34643POPC   C1B61704  13.274  33.112   8.161 -0.1978 -0.3764  0.0704
34643POPC   C2B61705  13.350  33.288   7.698  0.0749  0.0653  0.0634
34643POPC   C3B61706  13.333  33.666   7.426 -0.0989  0.0066 -0.1408
34643POPC   C4B61707  13.306  33.980   7.122 -0.0272 -0.0843  0.1380
34644POPC   NC361708   2.267  24.044   9.524  0.0049 -0.2040  0.0478
34644POPC   PO461709   2.278  24.191   9.144  0.0813  0.0114  0.0227
34644POPC   GL161710   2.321  24.148   8.751  0.2976  0.1863 -0.0065
34644POPC   GL261711   2.541  24.376   8.732  0.1023  0.1857  0.2266
34644POPC   C1A61712   2.127  23.773   8.522  0.3280 -0.1222  0.0861
34644POPC   D2A61713   2.010  23.540   8.113  0.1334  0.0237 -0.0131
34644POPC   C3A61714   2.418  23.437   7.796 -0.1218 -0.1783  0.0834
34644POPC   C4A61715   2.268  23.148   7.480 -0.0263  0.0779 -0.0409
34644POPC   C1B61716   2.442  24.110   8.336 -0.1086  0.0857  0.2635
34644POPC   C2B61717   2.338  23.983   7.927  0.0606  0.2092  0.0651
34644POPC   C3B61718   2.395  23.989   7.519  0.3635  0.0534 -0.0695
34644POPC   C4B61719   2.361  24.146   7.122  0.1660 -0.3133  0.3036
34645POPC   NC361720  12.926  18.209  10.201  0.0721  0.1649  0.1735
34645POPC   PO461721  12.516  18.122  10.349  0.0257 -0.1309  0.0826
34645POPC   GL161722  12.415  18.581  10.424 -0.2598 -0.1493 -0.0927
34645POPC   GL261723  12.244  18.779  10.584 -0.2922 -0.0184  0.2604
34645POPC   C1A61724  12.368  18.997  10.156 -0.2302 -0.0600  0.0359
34645POPC   D2A61725  12.539  19.260   9.751 -0.1208 -0.4010  0.3055
34645POPC   C3A61726  12.255  19.598   9.676 -0.0660  0.1524 -0.0181
34645POPC   C4A61727  11.863  19.731   9.516  0.0720  0.1664  0.1941
34645POPC   C1B61728  11.913  18.816  10.265  0.2089  0.0596  0.1999
34645POPC   C2B61729  11.615  19.074   9.978 -0.0138  0.0342 -0.3463
34645POPC   C3B61730  11.268  19.409  10.181  0.1725 -0.1479  0.2421
34645POPC   C4B61731  11.014  19.635   9.895  0.2586  0.1361 -0.0732
34646POPC   NC361732   1.298  23.958   8.956  0.1050  0.2246  0.2347
34646POPC   PO461733   1.670  23.864   9.054 -0.1865 -0.0357  0.2831
34646POPC   GL161734   1.723  24.034   8.671 -0.2446 -0.1467  0.1623
34646POPC   GL261735   1.657  23.879   8.416  0.0813  0.3701  0.2136
34646POPC   C1A61736   1.986  24.277   8.429  0.0080  0.1777 -0.2922
34646POPC   D2A61737   2.217  24.581   8.252  0.1042  0.1882  0.1334
34646POPC   C3A61738   2.108  24.458   7.777  0.3601  0.0181 -0.2430
34646POPC   C4A61739   2.078  24.451   7.333 -0.2434  0.1674 -0.2083
34646POPC   C1B61740   1.743  24.165   8.040 -0.0511  0.3100 -0.0131
34646POPC   C2B61741   1.836  23.973   7.695 -0.0476  0.1641 -0.1917
34646POPC   C3B61742   1.840  24.008   7.182  0.1376  0.2193 -0.3466
34646POPC   C4B61743   1.956  23.839   6.702 -0.0707  0.0250  0.0658
34647POPC   NC361744  14.651  26.874   9.436 -0.1197  0.0282 -0.2504
34647POPC   PO461745  15.014  27.032   9.405 -0.3655 -0.1989 -0.0105
34647POPC   GL161746  14.829  27.036   9.015  0.0384  0.0940  0.1418
34647POPC   GL261747  15.093  27.061   8.878 -0.2474 -0.2357 -0.2225
34647POPC   C1A61748  14.506  26.752   8.796  0.0200 -0.0133  0.1348
34647POPC   D2A61749  14.240  26.532   8.558  0.1523  0.0994  0.2392
34647POPC   C3A61750  14.291  26.319   8.161 -0.1983 -0.2242  0.2331
34647POPC   C4A61751  14.404  26.103   7.765  0.0706  0.0608 -0.5751
34647POPC   C1B61752  14.774  27.214   8.618  0.0622 -0.2149  0.3037
34647POPC   C2B61753  14.481  27.022   8.316  0.0322  0.0100 -0.1801
34647POPC   C3B61754  14.428  26.897   7.919  0.1887 -0.0065 -0.0494
34647POPC   C4B61755  14.606  26.889   7.473 -0.2230  0.1211 -0.1866
34648POPC   NC361756   7.155  18.334  14.477 -0.1648 -0.0064 -0.2437
34648POPC   PO461757   7.229  18.041  14.216  0.2511  0.0757  0.0072
34648POPC   GL161758   7.643  18.298  14.167 -0.1906  0.1942  0.0241
34648POPC   GL261759   7.714  18.215  14.430  0.2134  0.0328  0.2558
34648POPC   C1A61760   7.718  18.718  14.129 -0.3312  0.3057  0.2120
34648POPC   D2A61761   7.756  18.975  13.759  0.0429  0.4603  0.3419
34648POPC   C3A61762   7.914  19.375  13.823 -0.2545 -0.0633 -0.2603
34648POPC   C4A61763   8.217  19.703  13.820  0.1113  0.1585 -0.0694
34648POPC   C1B61764   7.582  18.538  14.713  0.2088 -0.0475 -0.0541
34648POPC   C2B61765   7.158  18.709  14.780  0.3791 -0.0580  0.0603
34648POPC   C3B61766   6.909  18.859  15.085 -0.2979 -0.1274 -0.0548
34648POPC   C4B61767   6.523  19.112  15.204  0.0625  0.3623 -0.3013
34649POPC   NC361768  14.084  31.791   8.556 -0.0119 -0.3594  0.3895
34649POPC   PO461769  13.873  31.469   8.542  0.0377 -0.1289 -0.1007
34649POPC   GL161770  13.783  31.744   8.222  0.1070  0.1122 -0.1544
34649POPC   GL261771  13.885  31.555   7.964  0.0988 -0.0376  0.0651
34649POPC   C1A61772  13.864  32.079   7.889  0.1048 -0.2047  0.0690
34649POPC   D2A61773  13.811  32.278   7.447 -0.1252 -0.0054  0.3377
34649POPC   C3A61774  13.475  32.230   7.143  0.0908 -0.4701 -0.0552
34649POPC   C4A61775  13.188  31.843   6.981 -0.0632 -0.0616  0.2958
34649POPC   C1B61776  14.056  31.732   7.562 -0.4607  0.1608 -0.3283
34649POPC   C2B61777  14.338  31.825   7.179  0.2708  0.2115 -0.3294
34649POPC   C3B61778  14.355  31.884   6.712  0.1518 -0.1503  0.2014
34649POPC   C4B61779  14.410  32.188   6.406 -0.0742 -0.0061  0.2420
34650POPC   NC361780   2.426   0.486   8.891  0.0999  0.0124 -0.0028
34650POPC   PO461781   2.684   0.273   8.691 -0.0446  0.0255 -0.0594
34650POPC   GL161782   2.698   0.277   8.230  0.1158 -0.3195  0.0793
34650POPC   GL261783   2.934   0.392   8.165 -0.0561  0.2359 -0.2200
34650POPC   C1A61784   2.492   0.505   7.853 -0.1455  0.3575  0.0851
34650POPC   D2A61785   2.383   0.567   7.400  0.0375  0.0209 -0.4167
34650POPC   C3A61786   2.483   0.596   7.002  0.0406 -0.0002 -0.2273
34650POPC   C4A61787   2.663   0.552   6.601  0.2227  0.1620  0.0788
34650POPC   C1B61788   3.361   0.591   7.972 -0.1472 -0.2608  0.5580
34650POPC   C2B61789   3.571   0.493   7.559 -0.2796 -0.3338 -0.0252
34650POPC   C3B61790   3.981   0.616   7.385 -0.0120 -0.1880 -0.2012
34650POPC   C4B61791   4.083   0.756   6.940 -0.1774 -0.2738 -0.0186
34651POPC   NC361792  15.805  20.808   9.865 -0.1109 -0.3629 -0.2097
34651POPC   PO461793  15.740  20.576   9.587  0.0687 -0.3699  0.0102
34651POPC   GL161794  15.651  20.541   9.268 -0.2170 -0.0400 -0.1634
34651POPC   GL261795  15.328  20.479   9.133 -0.2554 -0.0688  0.0292
34651POPC   C1A61796  15.813  20.373   8.838  0.1225 -0.1659 -0.0387
34651POPC   D2A61797  15.832  20.253   8.380  0.0054  0.2676  0.0042
34651POPC   C3A61798  15.744  20.506   7.998  0.0733  0.5023 -0.2712
34651POPC   C4A61799  15.707  20.938   7.975  0.1427 -0.1836 -0.1894
34651POPC   C1B61800  15.056  20.590   8.872  0.0383  0.1009  0.1585
34651POPC   C2B61801  14.632  20.491   8.675 -0.0025 -0.0363  0.3136
34651POPC   C3B61802  14.233  20.231   8.467  0.0179 -0.0142  0.1433
34651POPC   C4B61803  13.844  20.052   8.313  0.0053 -0.0366  0.3508
34652POPC   NC361804   0.484  20.923   8.931  0.3399  0.0306 -0.2474
34652POPC   PO461805   0.865  20.895   8.991 -0.0643 -0.1525 -0.0572
34652POPC   GL161806   1.138  20.947   8.743  0.3981 -0.1598  0.1075
34652POPC   GL261807   1.409  20.817   8.633 -0.5129  0.0221 -0.0221
34652POPC   C1A61808   1.138  20.959   8.256  0.1419  0.1258  0.0142
34652POPC   D2A61809   1.008  20.917   7.783  0.1934  0.0521  0.0509
34652POPC   C3A61810   1.366  20.919   7.496 -0.3464  0.1282 -0.3184
34652POPC   C4A61811   1.529  20.572   7.230  0.0894  0.1714 -0.0560
34652POPC   C1B61812   1.699  20.905   8.302  0.0027 -0.4255 -0.0389
34652POPC   C2B61813   1.827  20.991   7.887  0.2429  0.3024 -0.1781
34652POPC   C3B61814   1.891  20.901   7.412 -0.1274  0.1333  0.0849
34652POPC   C4B61815   2.073  20.622   7.042 -0.1425  0.0395 -0.2910
34653POPC   NC361816  15.468  31.187   8.373 -0.1220 -0.0185  0.1508
34653POPC   PO461817  15.821  31.155   8.208 -0.0618 -0.2334 -0.1675
34653POPC   GL161818  15.916  31.222   7.774  0.2737  0.0732  0.2929
34653POPC   GL261819  15.777  31.061   7.624 -0.1344  0.1929  0.0305
34653POPC   C1A61820  16.125  31.183   7.357 -0.3849  0.2324  0.0180
34653POPC   D2A61821  16.355  30.882   7.028 -0.2040  0.3535  0.0374
34653POPC   C3A61822  16.304  30.987   6.554 -0.1051  0.2700 -0.3200
34653POPC   C4A61823  16.472  31.098   6.224 -0.1192 -0.0464 -0.0109
34653POPC   C1B61824  15.714  31.150   7.165  0.1199 -0.0471  0.1839
34653POPC   C2B61825  15.707  31.328   6.734  0.1193  0.1222  0.1111
34653POPC   C3B61826  15.771  31.653   6.421 -0.3381  0.6297 -0.0685
34653POPC   C4B61827  15.618  32.093   6.390  0.1682  0.0796 -0.1235
34654POPC   NC361828  15.990  16.403  15.909 -0.0969 -0.0376 -0.1002
34654POPC   PO461829  15.765  16.149  15.712  0.0581  0.2230 -0.1634
34654POPC   GL161830  15.512  15.961  16.089 -0.0400 -0.0852  0.1530
34654POPC   GL261831  15.571  16.141  16.306 -0.0325  0.0549  0.2387
34654POPC   C1A61832  15.186  15.963  16.454  0.1810 -0.0986  0.1981
34654POPC   D2A61833  14.848  16.266  16.537  0.0286  0.2178  0.1566
34654POPC   C3A61834  14.913  16.669  16.628 -0.0252  0.2316  0.1467
34654POPC   C4A61835  14.898  17.042  16.887 -0.0093 -0.1577  0.0443
34654POPC   C1B61836  15.939  16.247  16.582 -0.0941  0.0086 -0.0081
34654POPC   C2B61837  16.085  16.194  17.061  0.3180 -0.2618  0.2190
34654POPC   C3B61838  16.423  16.045  17.246 -0.2886  0.0624 -0.2131
34654POPC   C4B61839  16.670  16.032  17.650 -0.0995  0.3529  0.0850
34655POPC   NC361840   7.102  28.971   9.712 -0.0229 -0.1791  0.0618
34655POPC   PO461841   7.007  29.236   9.386  0.1598 -0.1748  0.0211
34655POPC   GL161842   7.030  29.225   8.928 -0.2301 -0.1557 -0.2434
34655POPC   GL261843   7.130  29.459   8.813  0.0603  0.0681 -0.0326
34655POPC   C1A61844   6.959  28.860   8.616  0.1888  0.0904 -0.1310
34655POPC   D2A61845   7.124  28.441   8.353 -0.2571 -0.1911 -0.2089
34655POPC   C3A61846   6.922  28.040   8.528  0.0259 -0.0693 -0.1976
34655POPC   C4A61847   6.579  27.740   8.553  0.1943 -0.0058  0.1834
34655POPC   C1B61848   7.350  29.226   8.561 -0.1633  0.0231 -0.0268
34655POPC   C2B61849   7.391  29.011   8.147 -0.0963  0.4025  0.0607
34655POPC   C3B61850   7.561  28.697   7.884 -0.1843 -0.1490 -0.0423
34655POPC   C4B61851   7.659  28.278   7.716 -0.1231 -0.0757 -0.0567
34656POPC   NC361852   5.053  30.022   8.464 -0.3177  0.0290 -0.1861
34656POPC   PO461853   4.985  29.707   8.686  0.0533  0.0438  0.0880
34656POPC   GL161854   5.039  29.559   8.295  0.2382  0.0960 -0.2016
34656POPC   GL261855   5.310  29.426   8.338  0.1561  0.2160 -0.0210
34656POPC   C1A61856   4.955  29.605   7.852  0.1331  0.2483 -0.0707
34656POPC   D2A61857   4.973  29.759   7.391 -0.0661  0.0435  0.0606
34656POPC   C3A61858   4.974  29.472   7.050 -0.0025  0.1451  0.0340
34656POPC   C4A61859   4.923  29.064   6.836  0.3509  0.0176 -0.0812
34656POPC   C1B61860   5.430  29.738   8.005 -0.0415  0.0238 -0.4534
34656POPC   C2B61861   5.609  29.812   7.565 -0.1600  0.3331 -0.0628
34656POPC   C3B61862   5.457  29.555   7.200 -0.0567 -0.1340  0.0693
34656POPC   C4B61863   5.381  29.577   6.741  0.2622 -0.3288  0.2053
34657POPC   NC361864   7.925  17.712  11.080  0.1844 -0.0132  0.0742
34657POPC   PO461865   7.930  18.076  10.920 -0.3541 -0.0186 -0.1152
34657POPC   GL161866   7.977  18.421  10.920  0.0512  0.0969 -0.1763
34657POPC   GL261867   8.251  18.553  10.949  0.1620 -0.0587 -0.0095
34657POPC   C1A61868   8.020  18.778  10.545 -0.0006 -0.0052 -0.2221
34657POPC   D2A61869   8.059  19.217  10.407 -0.0679  0.2062 -0.0781
34657POPC   C3A61870   8.299  19.383  10.092  0.2682 -0.0742  0.0595
34657POPC   C4A61871   8.414  19.291   9.727 -0.2868 -0.1547  0.1405
34657POPC   C1B61872   8.226  18.909  11.275  0.2679  0.0056  0.5168
34657POPC   C2B61873   8.293  19.387  11.384  0.1581 -0.1995  0.1587
34657POPC   C3B61874   8.170  19.779  11.579 -0.0926 -0.2799  0.1065
34657POPC   C4B61875   8.378  20.187  11.499 -0.1388 -0.2340 -0.0962
34658POPC   NC361876   4.685  21.193  14.191  0.4661  0.0278  0.0458
34658POPC   PO461877   5.030  21.419  14.177  0.4181 -0.0798 -0.1909
34658POPC   GL161878   5.376  21.479  14.283 -0.3432  0.1310  0.0594
34658POPC   GL261879   5.510  21.278  14.486  0.0365  0.1396  0.2777
34658POPC   C1A61880   5.649  21.809  14.398 -0.1610  0.0545  0.1288
34658POPC   D2A61881   5.954  21.913  14.721  0.1271  0.1293  0.1444
34658POPC   C3A61882   5.892  22.241  15.045 -0.3499  0.2567 -0.0724
34658POPC   C4A61883   5.774  22.374  15.472  0.0250 -0.2552 -0.1522
34658POPC   C1B61884   5.853  21.165  14.752 -0.0541 -0.1083  0.1617
34658POPC   C2B61885   6.052  21.220  15.119 -0.1658  0.1641 -0.1888
34658POPC   C3B61886   6.272  21.252  15.536 -0.0565 -0.1706 -0.0483
34658POPC   C4B61887   6.135  21.530  15.862 -0.2562 -0.2603  0.1963
34659POPC   NC361888  10.684  32.228   8.970 -0.3271  0.0173 -0.1059
34659POPC   PO461889  10.974  32.042   8.863 -0.0738 -0.0733  0.0468
34659POPC   GL161890  11.073  32.221   8.693  0.0901 -0.0467  0.0847
34659POPC   GL261891  11.069  32.087   8.398 -0.1100  0.3047  0.0946
34659POPC   C1A61892  11.115  32.607   8.445  0.2172  0.0410 -0.0587
34659POPC   D2A61893  11.076  32.811   8.006  0.1560 -0.0918  0.0566
34659POPC   C3A61894  11.256  33.032   7.678 -0.0647 -0.1155 -0.1345
34659POPC   C4A61895  11.359  33.239   7.257 -0.0947  0.0637 -0.0603
34659POPC   C1B61896  11.221  32.338   7.994 -0.1899 -0.0637  0.0849
34659POPC   C2B61897  11.111  32.535   7.539  0.0917 -0.2149  0.2465
34659POPC   C3B61898  10.990  32.909   7.223  0.1263  0.0880  0.0173
34659POPC   C4B61899  10.864  32.921   6.834  0.1707 -0.2979  0.0577
34660POPC   NC361900   3.437  19.588   9.406  0.0015 -0.2567  0.2566
34660POPC   PO461901   3.266  19.567   9.066  0.1042  0.1237  0.1116
34660POPC   GL161902   3.171  19.833   8.800 -0.1273  0.0356 -0.3373
34660POPC   GL261903   2.977  19.697   8.617 -0.0597 -0.4011  0.5914
34660POPC   C1A61904   3.434  19.820   8.413  0.0395 -0.0479 -0.0655
34660POPC   D2A61905   3.466  19.695   7.939 -0.1530 -0.1130  0.1196
34660POPC   C3A61906   3.222  19.346   7.758  0.0444 -0.1210  0.1468
34660POPC   C4A61907   2.935  19.334   7.392  0.1499 -0.0760  0.0924
34660POPC   C1B61908   3.098  19.560   8.210 -0.1855  0.1436 -0.0607
34660POPC   C2B61909   2.813  19.400   7.978 -0.0795 -0.0864  0.0495
34660POPC   C3B61910   2.384  19.308   7.697 -0.0041  0.2060  0.1407
34660POPC   C4B61911   2.173  19.539   7.329 -0.2726  0.2883  0.1639
34661POPC   NC361912   0.643  18.136   9.244  0.2119  0.1732 -0.0688
34661POPC   PO461913   0.689  18.145   8.841  0.0667  0.1455 -0.1136
34661POPC   GL161914   0.845  18.081   8.451  0.1962  0.0695  0.1835
34661POPC   GL261915   0.557  18.026   8.335 -0.0269 -0.1271  0.0588
34661POPC   C1A61916   0.918  18.283   8.071  0.2146  0.2849 -0.1386
34661POPC   D2A61917   1.211  18.513   7.789  0.0248 -0.2293 -0.0224
34661POPC   C3A61918   1.087  18.586   7.338  0.2673 -0.0372 -0.0801
34661POPC   C4A61919   0.999  18.620   6.883 -0.1119  0.1231  0.0824
34661POPC   C1B61920   0.370  18.354   8.063 -0.1352  0.0818  0.2381
34661POPC   C2B61921   0.177  18.603   7.708 -0.0434  0.0438 -0.0438
34661POPC   C3B61922   0.097  18.881   7.368  0.0971 -0.0928 -0.0554
34661POPC   C4B61923  -0.058  19.050   6.928  0.2497  0.0578  0.0753
34662POPC   NC361924   6.685  18.665  12.986 -0.0655  0.1664  0.0357
34662POPC   PO461925   6.914  18.467  12.731 -0.1847 -0.0751 -0.1423
34662POPC   GL161926   7.173  18.738  12.775 -0.1234 -0.1570 -0.3212
34662POPC   GL261927   7.106  18.994  12.863  0.0074  0.0145 -0.1100
34662POPC   C1A61928   7.610  18.942  12.815  0.2412  0.1098  0.1057
34662POPC   D2A61929   7.869  19.356  12.974 -0.0466  0.0359  0.1612
34662POPC   C3A61930   7.943  19.709  12.705  0.2158  0.0547  0.3092
34662POPC   C4A61931   8.299  20.060  12.653 -0.5327  0.1297 -0.3683
34662POPC   C1B61932   7.367  19.357  12.973  0.0444 -0.3210  0.0417
34662POPC   C2B61933   7.583  19.779  13.053  0.2421  0.1863 -0.0390
34662POPC   C3B61934   7.537  20.205  12.858 -0.0462 -0.0497  0.1378
34662POPC   C4B61935   7.214  20.504  12.674 -0.0731  0.0719  0.1210
34663POPC   NC361936  13.001  19.325  11.047 -0.0498  0.0154  0.1312
34663POPC   PO461937  13.046  19.094  10.769  0.0489  0.0977  0.1809
34663POPC   GL161938  12.943  19.342  10.446 -0.0469 -0.1706 -0.1070
34663POPC   GL261939  12.856  19.184  10.159 -0.1700  0.2891 -0.0674
34663POPC   C1A61940  13.090  19.676  10.185 -0.0511  0.1145 -0.0281
34663POPC   D2A61941  13.170  20.069   9.924  0.1488  0.1085  0.2214
34663POPC   C3A61942  12.897  20.230   9.574 -0.0979 -0.1655 -0.0150
34663POPC   C4A61943  12.597  20.040   9.281 -0.0916 -0.0044 -0.0898
34663POPC   C1B61944  12.585  19.535  10.199  0.2130  0.1682 -0.2747
34663POPC   C2B61945  12.229  19.817  10.162  0.4441  0.2251  0.0219
34663POPC   C3B61946  11.814  19.958   9.968  0.3314 -0.0934 -0.0281
34663POPC   C4B61947  11.352  20.043   9.871  0.1032  0.0066  0.0667
34664POPC   NC361948  14.065  20.290  10.106 -0.0431  0.0475  0.1905
34664POPC   PO461949  14.441  20.128   9.945  0.2099  0.0414  0.0937
34664POPC   GL161950  14.182  20.285   9.665  0.2781  0.2944  0.2021
34664POPC   GL261951  14.374  20.397   9.472 -0.1130  0.0767 -0.1534
34664POPC   C1A61952  13.727  20.237   9.662  0.1096  0.0365 -0.0959
34664POPC   D2A61953  13.376  20.284   9.354 -0.2497  0.4601  0.2188
34664POPC   C3A61954  13.068  20.632   9.225  0.0712  0.1283 -0.0098
34664POPC   C4A61955  12.812  20.998   9.194 -0.0834  0.2842  0.0105
34664POPC   C1B61956  13.957  20.489   9.231 -0.1072  0.6717  0.1594
34664POPC   C2B61957  13.574  20.632   8.976 -0.1638  0.0222  0.5473
34664POPC   C3B61958  13.294  20.848   8.733 -0.2756 -0.0011  0.0447
34664POPC   C4B61959  12.948  21.136   8.797  0.0161 -0.3299 -0.0576
34665POPC   NC361960  14.202  20.759  13.081 -0.2328 -0.1946 -0.0184
34665POPC   PO461961  14.555  20.901  13.206  0.1438  0.1213  0.3250
34665POPC   GL161962  14.353  21.098  13.402  0.2386 -0.3776  0.0906
34665POPC   GL261963  14.324  21.074  13.695  0.2518 -0.2625 -0.0598
34665POPC   C1A61964  13.898  21.048  13.419  0.0155 -0.3204  0.0179
34665POPC   D2A61965  13.647  20.834  13.076  0.1266  0.0457 -0.0010
34665POPC   C3A61966  13.189  20.942  13.074 -0.3839  0.0671  0.1560
34665POPC   C4A61967  12.801  21.144  13.118  0.1025 -0.0994 -0.1708
34665POPC   C1B61968  13.941  20.985  13.895 -0.0165 -0.2580  0.0503
34665POPC   C2B61969  13.419  21.034  13.832  0.0262 -0.0264 -0.3491
34665POPC   C3B61970  13.001  21.156  14.039  0.2805 -0.1389 -0.0744
34665POPC   C4B61971  12.604  21.320  14.127  0.1181  0.3175  0.0289
34666POPC   NC361972  13.168  30.331   8.247  0.1999  0.1134 -0.3405
34666POPC   PO461973  13.479  30.202   8.514  0.2677  0.0961 -0.0727
34666POPC   GL161974  13.732  30.161   8.229 -0.0139 -0.1389  0.0848
34666POPC   GL261975  13.597  30.222   8.021 -0.0819  0.4388  0.1612
34666POPC   C1A61976  13.909  29.842   7.966  0.1902 -0.1980  0.0074
34666POPC   D2A61977  13.983  29.553   7.594 -0.1485 -0.1012 -0.3796
34666POPC   C3A61978  13.917  29.790   7.182  0.2783 -0.1218 -0.0724
34666POPC   C4A61979  13.968  29.737   6.746  0.0232 -0.0820 -0.4771
34666POPC   C1B61980  13.490  30.051   7.604 -0.2901 -0.2939  0.2284
34666POPC   C2B61981  13.498  30.194   7.123 -0.0290  0.3635  0.1848
34666POPC   C3B61982  13.799  30.202   6.763  0.0196  0.1404  0.0621
34666POPC   C4B61983  13.805  30.485   6.411  0.1021 -0.2996 -0.1699
34667POPC   NC361984   6.142  28.448   9.105 -0.3700  0.2803  0.1448
34667POPC   PO461985   6.468  28.224   9.157  0.1749  0.2432 -0.3385
34667POPC   GL161986   6.505  28.176   8.774  0.4240 -0.1732  0.2639
34667POPC   GL261987   6.213  28.122   8.693  0.0612  0.1173  0.1175
34667POPC   C1A61988   6.646  28.473   8.487 -0.0221 -0.1607 -0.0553
34667POPC   D2A61989   6.724  28.547   8.056 -0.0991 -0.0809  0.2393
34667POPC   C3A61990   6.568  28.262   7.793  0.1920  0.1874  0.2455
34667POPC   C4A61991   6.366  27.899   7.675  0.0904  0.2616  0.2368
34667POPC   C1B61992   6.422  28.149   8.275 -0.0301 -0.0884  0.3204
34667POPC   C2B61993   6.734  27.893   8.091  0.1926 -0.0536 -0.3094
34667POPC   C3B61994   6.977  27.534   8.251  0.1832  0.1094  0.0321
34667POPC   C4B61995   7.154  27.070   8.349  0.2043  0.0234  0.1206
34668POPC   NC361996   6.838  17.852  10.700  0.2738  0.2059 -0.0778
34668POPC   PO461997   7.005  18.049  11.039 -0.0554  0.4032 -0.1162
34668POPC   GL161998   6.922  18.402  10.820  0.1067 -0.0599  0.2222
34668POPC   GL261999   7.012  18.326  10.529 -0.1473 -0.1415 -0.1296
34668POPC   C1A62000   6.703  18.813  10.738  0.1607  0.2958 -0.4457
34668POPC   D2A62001   6.505  19.190  10.925 -0.3421 -0.1090 -0.1961
34668POPC   C3A62002   6.610  19.504  10.640  0.0950  0.1714  0.0214
34668POPC   C4A62003   6.664  19.919  10.413  0.0606 -0.0862 -0.0611
34668POPC   C1B62004   7.053  18.732  10.338  0.1611 -0.3220 -0.1710
34668POPC   C2B62005   7.351  19.042  10.151 -0.1500 -0.4946 -0.0241
34668POPC   C3B62006   7.551  19.468  10.160  0.1214  0.0776 -0.3692
34668POPC   C4B62007   7.647  19.842   9.920  0.2192  0.0529 -0.0376
34669POPC   NC362008   8.084  17.947  14.102 -0.0327 -0.0439 -0.0377
34669POPC   PO462009   8.206  17.653  13.896  0.0464  0.0850  0.0547
34669POPC   GL162010   8.508  17.737  14.127 -0.0998  0.1458  0.1931
34669POPC   GL262011   8.612  17.983  13.958  0.2125  0.0407 -0.4580
34669POPC   C1A62012   8.566  18.119  14.399 -0.0316  0.0859  0.1548
34669POPC   D2A62013   8.553  18.584  14.322  0.3235  0.0543  0.1388
34669POPC   C3A62014   8.655  18.993  14.543  0.2052 -0.0292 -0.0907
34669POPC   C4A62015   8.901  19.381  14.519 -0.1161 -0.0851 -0.0213
34669POPC   C1B62016   8.555  18.414  13.841 -0.1628 -0.0741 -0.0637
34669POPC   C2B62017   8.723  18.844  13.894 -0.0839 -0.4128 -0.3302
34669POPC   C3B62018   8.799  19.298  14.030  0.1813 -0.0716  0.2494
34669POPC   C4B62019   8.697  19.738  14.148  0.1246  0.2211  0.0608
34670POPC   NC362020  13.605  18.287   9.636 -0.1943 -0.2362 -0.2198
34670POPC   PO462021  13.887  18.463   9.903  0.1222 -0.0712 -0.0593
34670POPC   GL162022  13.878  18.644   9.539  0.0238  0.0606 -0.1214
34670POPC   GL262023  14.113  18.806   9.330 -0.2113  0.0359  0.0318
34670POPC   C1A62024  13.674  18.517   9.125  0.0273 -0.1701 -0.2320
34670POPC   D2A62025  13.880  18.596   8.734 -0.1707  0.1665  0.2293
34670POPC   C3A62026  13.594  18.884   8.542 -0.0905  0.1892  0.2349
34670POPC   C4A62027  13.357  19.118   8.217 -0.1182  0.0004  0.0239
34670POPC   C1B62028  13.928  19.009   8.976  0.3218 -0.1286  0.0472
34670POPC   C2B62029  13.777  19.322   8.684 -0.1158 -0.4964 -0.0480
34670POPC   C3B62030  13.602  19.580   8.336 -0.0131 -0.0109  0.0616
34670POPC   C4B62031  13.268  19.749   8.104  0.0473 -0.0357  0.0530
34671POPC   NC362032   3.646  29.938   8.352 -0.0422 -0.0236 -0.1103
34671POPC   PO462033   3.699  30.150   8.006  0.1392  0.0930 -0.1240
34671POPC   GL162034   3.596  30.263   7.725 -0.3096 -0.0263  0.3476
34671POPC   GL262035   3.303  30.214   7.611  0.3414  0.0197  0.1140
34671POPC   C1A62036   3.589  30.485   7.324  0.0601  0.1561 -0.0827
34671POPC   D2A62037   3.774  30.576   6.900 -0.1726  0.0073 -0.0165
34671POPC   C3A62038   4.154  30.745   6.701  0.1767 -0.0609  0.1237
34671POPC   C4A62039   4.406  30.523   6.361  0.2376 -0.2718 -0.3130
34671POPC   C1B62040   3.277  30.213   7.143 -0.0127 -0.0259 -0.0814
34671POPC   C2B62041   3.392  30.278   6.701 -0.0335 -0.3439 -0.2244
34671POPC   C3B62042   3.257  30.207   6.239 -0.0599 -0.0868  0.0327
34671POPC   C4B62043   3.049  29.894   5.975  0.1749  0.0578 -0.0480
34672POPC   NC362044   7.436  29.067   9.033 -0.0449  0.0209  0.2307
34672POPC   PO462045   7.769  28.874   9.075 -0.2192  0.1711  0.1183
34672POPC   GL162046   7.883  28.485   8.943  0.0442  0.1311  0.0909
34672POPC   GL262047   7.842  28.256   9.159 -0.2053 -0.1363  0.2613
34672POPC   C1A62048   8.023  28.206   8.594 -0.5702  0.0591 -0.0262
34672POPC   D2A62049   8.098  27.960   8.187  0.0842  0.0349 -0.0752
34672POPC   C3A62050   7.883  27.834   7.804 -0.4589 -0.1205  0.3467
34672POPC   C4A62051   7.510  27.591   7.619 -0.0559 -0.4837  0.2420
34672POPC   C1B62052   7.876  27.904   8.940  0.1000  0.0249  0.1751
34672POPC   C2B62053   7.816  27.756   8.511 -0.1352 -0.0145 -0.0965
34672POPC   C3B62054   8.039  27.473   8.167  0.1071 -0.0835  0.2802
34672POPC   C4B62055   8.184  27.047   8.096 -0.1924 -0.1434 -0.2613
34673POPC   NC362056  14.507  31.010   8.356  0.0825 -0.0655  0.0812
34673POPC   PO462057  14.379  31.371   8.453  0.5832 -0.0433  0.1246
34673POPC   GL162058  14.350  31.447   8.104 -0.1597  0.1793  0.2717
34673POPC   GL262059  14.611  31.491   7.959 -0.3910 -0.1260 -0.1779
34673POPC   C1A62060  14.183  31.218   7.759 -0.2086  0.3019  0.0145
34673POPC   D2A62061  14.112  31.333   7.342 -0.0891  0.2968 -0.1321
34673POPC   C3A62062  14.043  31.471   6.899  0.1634 -0.0644 -0.0807
34673POPC   C4A62063  14.175  31.370   6.493  0.2225 -0.1778 -0.1446
34673POPC   C1B62064  14.594  31.428   7.532  0.0695  0.0861 -0.0639
34673POPC   C2B62065  14.497  31.240   7.067  0.0528  0.1466  0.2156
34673POPC   C3B62066  14.465  30.938   6.634 -0.2091  0.0583  0.2003
34673POPC   C4B62067  14.769  30.795   6.420 -0.1532  0.0756  0.2836
34674POPC   NC362068  10.313  31.068   9.242  0.1051  0.0311 -0.1285
34674POPC   PO462069  10.621  31.231   9.029 -0.0102 -0.2465 -0.1544
34674POPC   GL162070  10.784  31.392   8.612 -0.2277  0.2333  0.1138
34674POPC   GL262071  10.660  31.636   8.630 -0.0470 -0.1323 -0.1141
34674POPC   C1A62072  10.961  31.640   8.284  0.1130 -0.0251  0.2928
34674POPC   D2A62073  10.767  31.913   8.001  0.0697 -0.2366 -0.1230
34674POPC   C3A62074  10.812  32.138   7.616 -0.1305 -0.1402  0.1939
34674POPC   C4A62075  10.604  32.456   7.307  0.1840  0.1999  0.0017
34674POPC   C1B62076  10.400  31.780   8.340  0.2222  0.1693  0.0578
34674POPC   C2B62077  10.192  32.005   7.997  0.0828  0.1510 -0.0125
34674POPC   C3B62078  10.314  32.366   7.679  0.2032 -0.0174  0.2786
34674POPC   C4B62079  10.117  32.491   7.304 -0.1313 -0.3707  0.1403
34675POPC   NC362080   5.497  30.894   8.654 -0.0515  0.2348  0.0446
34675POPC   PO462081   5.804  31.113   8.489 -0.1291 -0.0218 -0.1079
34675POPC   GL162082   5.852  30.879   8.202  0.2549  0.0319 -0.0485
34675POPC   GL262083   5.537  30.823   8.155 -0.0023 -0.2889  0.0255
34675POPC   C1A62084   5.784  30.801   7.727  0.1509 -0.3346  0.0676
34675POPC   D2A62085   5.462  30.580   7.476 -0.0798 -0.3770  0.0644
34675POPC   C3A62086   5.620  30.458   7.057  0.1839 -0.2258 -0.2385
34675POPC   C4A62087   5.792  30.278   6.715 -0.3138 -0.1509  0.0733
34675POPC   C1B62088   5.256  30.981   7.781  0.1132 -0.0394  0.2032
34675POPC   C2B62089   5.175  30.961   7.324  0.2138  0.0360  0.1169
34675POPC   C3B62090   5.435  30.892   6.979 -0.0297  0.1503  0.2142
34675POPC   C4B62091   5.761  30.767   6.638 -0.2263 -0.3649 -0.0267
34676POPC   NC362092   4.110  19.769  14.471 -0.2538 -0.4396 -0.1862
34676POPC   PO462093   4.416  19.998  14.558  0.1754  0.0504 -0.1106
34676POPC   GL162094   4.423  20.224  14.880  0.1183 -0.0619 -0.0438
34676POPC   GL262095   4.521  20.060  15.125  0.3971 -0.0782 -0.2564
34676POPC   C1A62096   4.734  20.502  15.125 -0.3226  0.1699 -0.0703
34676POPC   D2A62097   5.018  20.786  15.270  0.2278 -0.1085 -0.0468
34676POPC   C3A62098   4.979  20.908  15.751 -0.0925  0.0487 -0.1430
34676POPC   C4A62099   5.030  21.129  16.135 -0.0095 -0.1632  0.0807
34676POPC   C1B62100   4.903  20.064  15.421  0.0648 -0.1555  0.2477
34676POPC   C2B62101   5.114  20.417  15.699 -0.0775 -0.2207  0.0481
34676POPC   C3B62102   5.431  20.796  15.794 -0.2105  0.2815  0.2298
34676POPC   C4B62103   5.523  21.099  16.081 -0.2209 -0.2446 -0.3054
34677POPC   NC362104  12.030  29.840   9.242  0.0652  0.2619  0.2511
34677POPC   PO462105  11.634  29.879   9.106  0.3110  0.3767 -0.1052
34677POPC   GL162106  11.753  29.636   8.817 -0.1690 -0.1274 -0.0484
34677POPC   GL262107  12.025  29.637   8.746  0.0836  0.3959  0.2317
34677POPC   C1A62108  11.755  29.529   8.363 -0.2006  0.1053 -0.0567
34677POPC   D2A62109  11.544  29.197   8.121  0.0379  0.2148 -0.0915
34677POPC   C3A62110  11.438  28.959   7.758 -0.0353 -0.0164  0.0702
34677POPC   C4A62111  11.363  28.794   7.376 -0.0714 -0.0268  0.1777
34677POPC   C1B62112  12.365  29.380   8.448  0.0346  0.1928  0.0947
34677POPC   C2B62113  12.457  29.354   8.007  0.1945 -0.0159 -0.1623
34677POPC   C3B62114  12.388  29.126   7.641  0.0567  0.2589 -0.3100
34677POPC   C4B62115  12.421  28.902   7.227 -0.5049  0.1134 -0.2612
34678POPC   NC362116   5.676  20.439  13.061  0.0873  0.2772 -0.1349
34678POPC   PO462117   5.491  20.743  13.151  0.3784 -0.0786 -0.2913
34678POPC   GL162118   5.848  20.826  13.259  0.0670 -0.1947 -0.1755
34678POPC   GL262119   5.973  20.830  12.969 -0.0100 -0.0724  0.0558
34678POPC   C1A62120   6.155  21.114  13.446 -0.2561 -0.1876  0.0596
34678POPC   D2A62121   6.612  21.138  13.581 -0.0216  0.3854 -0.1673
34678POPC   C3A62122   6.956  20.854  13.695  0.0499  0.2027 -0.1270
34678POPC   C4A62123   7.349  20.978  13.870  0.2411 -0.2689  0.0418
34678POPC   C1B62124   6.185  20.424  12.896  0.1257 -0.0321 -0.1451
34678POPC   C2B62125   6.284  20.048  12.717 -0.0705  0.3109  0.0077
34678POPC   C3B62126   6.565  19.650  12.800 -0.1698 -0.3109  0.1436
34678POPC   C4B62127   6.836  19.373  12.699 -0.1505 -0.2841 -0.1106
34679POPC   NC362128   3.984  20.359  10.234  0.3544 -0.0173 -0.3775
34679POPC   PO462129   4.214  20.663  10.204  0.2702 -0.1824 -0.1339
34679POPC   GL162130   4.410  20.923   9.990  0.3912 -0.0633  0.0790
34679POPC   GL262131   4.351  21.208   9.997  0.2647 -0.1873  0.2483
34679POPC   C1A62132   4.840  20.806   9.764  0.0592 -0.1317 -0.0441
34679POPC   D2A62133   5.314  20.960   9.699 -0.0733 -0.1460 -0.1369
34679POPC   C3A62134   5.328  21.231   9.330 -0.0405  0.0855 -0.0817
34679POPC   C4A62135   5.243  21.517   8.963 -0.1368  0.2802  0.0538
34679POPC   C1B62136   4.688  21.302   9.730  0.0503  0.1599  0.2657
34679POPC   C2B62137   4.823  21.600   9.410 -0.4053 -0.0025 -0.3452
34679POPC   C3B62138   4.776  21.741   8.967  0.0398 -0.0615  0.2829
34679POPC   C4B62139   4.703  21.756   8.485  0.0609  0.2023 -0.5924
34680POPC   NC362140  15.763  25.382   9.198  0.0918  0.1023  0.1291
34680POPC   PO462141  15.418  25.211   9.362 -0.0645  0.0149  0.0981
34680POPC   GL162142  15.244  25.343   9.004  0.4235  0.0070 -0.0814
34680POPC   GL262143  15.418  25.467   8.781  0.1224  0.2512  0.0367
34680POPC   C1A62144  15.209  24.997   8.667 -0.0337  0.2288  0.0528
34680POPC   D2A62145  14.911  24.629   8.636  0.1231  0.3159 -0.0827
34680POPC   C3A62146  14.819  24.442   8.216  0.2925 -0.1271 -0.0620
34680POPC   C4A62147  14.897  24.428   7.768  0.0187  0.1096  0.0284
34680POPC   C1B62148  15.048  25.401   8.429  0.1591  0.0069  0.2543
34680POPC   C2B62149  14.805  25.424   7.987  0.0690 -0.2684 -0.0936
34680POPC   C3B62150  14.405  25.552   7.805 -0.1132  0.0853  0.0191
34680POPC   C4B62151  14.012  25.648   7.528  0.1715  0.0878 -0.0608
34681POPC   NC362152   7.620  30.419   8.632  0.2191  0.0214 -0.1632
34681POPC   PO462153   7.231  30.518   8.589 -0.1697  0.2529  0.1753
34681POPC   GL162154   7.419  30.506   8.222 -0.0272  0.1777  0.0372
34681POPC   GL262155   7.637  30.716   8.197  0.1608  0.3275  0.0667
34681POPC   C1A62156   7.438  30.257   7.862  0.2727 -0.0613  0.1578
34681POPC   D2A62157   7.448  29.832   7.717  0.1955 -0.0099  0.0309
34681POPC   C3A62158   7.334  29.550   7.349 -0.4336 -0.2561 -0.0761
34681POPC   C4A62159   6.959  29.481   7.079  0.2009 -0.1276  0.0415
34681POPC   C1B62160   7.352  30.785   7.787  0.0689  0.2341 -0.1677
34681POPC   C2B62161   7.290  30.954   7.350  0.2257  0.1029 -0.2606
34681POPC   C3B62162   7.116  30.920   6.936  0.1867  0.3762 -0.1618
34681POPC   C4B62163   7.341  30.736   6.595  0.0405  0.1973  0.1309
34682POPC   NC362164  13.867  25.601  11.998 -0.4179 -0.3050 -0.2337
34682POPC   PO462165  13.674  25.449  11.670  0.0335 -0.1662  0.1923
34682POPC   GL162166  13.351  25.262  11.625 -0.1412 -0.2653  0.0475
34682POPC   GL262167  13.186  25.273  11.397 -0.0355 -0.0312  0.0509
34682POPC   C1A62168  13.378  24.829  11.833 -0.0426 -0.0274 -0.0182
34682POPC   D2A62169  13.500  24.324  11.958 -0.3874  0.0674  0.2106
34682POPC   C3A62170  13.188  24.445  12.321  0.3097  0.0924 -0.1859
34682POPC   C4A62171  12.888  24.334  12.612  0.1945 -0.1519 -0.1473
34682POPC   C1B62172  12.786  25.200  11.275 -0.0376 -0.2062  0.1069
34682POPC   C2B62173  12.626  24.878  11.025 -0.1648 -0.1103  0.2803
34682POPC   C3B62174  12.298  24.576  10.847 -0.0465 -0.0669  0.1220
34682POPC   C4B62175  12.082  24.176  10.599 -0.3362 -0.2302 -0.2703
34683POPC   NC362176  10.730  17.460  12.968  0.1394  0.1712  0.2349
34683POPC   PO462177  10.739  17.234  13.294 -0.0182 -0.0170  0.2680
34683POPC   GL162178  10.872  17.572  13.501 -0.0195  0.1772 -0.0684
34683POPC   GL262179  10.625  17.677  13.414 -0.0528  0.2344  0.2491
34683POPC   C1A62180  11.126  17.822  13.758  0.3168 -0.5399 -0.1779
34683POPC   D2A62181  11.494  18.097  13.905  0.0633 -0.0025  0.2002
34683POPC   C3A62182  11.354  18.451  14.183 -0.1582  0.1224  0.2746
34683POPC   C4A62183  11.248  18.874  14.333  0.0825  0.0269 -0.1208
34683POPC   C1B62184  10.304  18.020  13.397 -0.1508 -0.1958  0.0817
34683POPC   C2B62185  10.110  18.389  13.621  0.1939 -0.3615 -0.0476
34683POPC   C3B62186  10.203  18.837  13.791 -0.1521 -0.2357  0.0112
34683POPC   C4B62187  10.076  19.277  13.918  0.0080  0.3488  0.0118
34684POPC   NC362188   4.837  26.962   9.389 -0.3814  0.1951  0.0169
34684POPC   PO462189   4.911  27.286   9.173 -0.3800 -0.1521 -0.0978
34684POPC   GL162190   5.272  27.230   8.970  0.0416 -0.2063 -0.0137
34684POPC   GL262191   5.489  27.361   8.819 -0.1890 -0.0719 -0.0440
34684POPC   C1A62192   5.398  26.857   8.717  0.0712 -0.1569  0.2220
34684POPC   D2A62193   5.743  26.644   8.466 -0.0667  0.2799 -0.2513
34684POPC   C3A62194   5.686  26.540   8.011 -0.1680 -0.0089  0.1145
34684POPC   C4A62195   5.717  26.908   7.710  0.2317 -0.1615 -0.0036
34684POPC   C1B62196   5.744  27.160   8.530 -0.0853  0.2208  0.0995
34684POPC   C2B62197   5.936  27.016   8.147 -0.1763 -0.2583 -0.3098
34684POPC   C3B62198   6.243  26.755   7.955  0.0080 -0.0304  0.2029
34684POPC   C4B62199   6.593  26.407   7.836 -0.1132  0.1221 -0.0048
34685POPC   NC362200   6.210  18.768  10.920  0.1229  0.1649 -0.2733
34685POPC   PO462201   5.861  18.805  10.776  0.2855  0.0246 -0.1080
34685POPC   GL162202   6.077  19.064  10.498 -0.2863  0.0864 -0.1035
34685POPC   GL262203   6.324  19.020  10.507 -0.4518  0.1054  0.0385
34685POPC   C1A62204   5.974  19.509  10.438 -0.0780 -0.3059  0.0374
34685POPC   D2A62205   6.064  19.950  10.391 -0.1439 -0.4397  0.1222
34685POPC   C3A62206   6.350  20.166  10.123  0.0545  0.1092 -0.1253
34685POPC   C4A62207   6.737  20.307   9.992  0.1647 -0.1497 -0.0717
34685POPC   C1B62208   6.769  19.100  10.333  0.2024  0.2646  0.1523
34685POPC   C2B62209   7.069  19.459  10.286 -0.0270  0.0392 -0.4976
34685POPC   C3B62210   7.149  19.928  10.157 -0.1216  0.0412 -0.0597
34685POPC   C4B62211   7.279  20.170   9.833  0.1082  0.3675  0.0987
34686POPC   NC362212   6.387  25.762  13.780  0.3340 -0.3980  0.1189
34686POPC   PO462213   6.303  25.678  13.418 -0.2879  0.5735  0.1211
34686POPC   GL162214   6.451  25.394  13.182 -0.0874  0.2359  0.0613
34686POPC   GL262215   6.700  25.325  13.044 -0.0827  0.1099  0.0049
34686POPC   C1A62216   6.253  25.000  12.982  0.1693 -0.2998  0.1931
34686POPC   D2A62217   6.316  24.578  12.862  0.1206  0.0550 -0.1825
34686POPC   C3A62218   6.791  24.565  12.752  0.2131 -0.0745 -0.2581
34686POPC   C4A62219   7.199  24.484  12.836 -0.4176  0.0148 -0.0981
34686POPC   C1B62220   6.753  24.850  13.201  0.2656 -0.0728  0.1670
34686POPC   C2B62221   7.075  24.672  13.537  0.0760 -0.0319 -0.0443
34686POPC   C3B62222   7.492  24.472  13.663  0.3354 -0.1741  0.1772
34686POPC   C4B62223   7.732  24.092  13.433  0.0913  0.1776  0.0162
34687POPC   NC362224  14.402  32.528   8.494 -0.2661  0.2757 -0.1974
34687POPC   PO462225  14.472  32.138   8.652 -0.2976 -0.1126  0.2281
34687POPC   GL162226  14.366  32.099   8.238  0.0403  0.1290 -0.1407
34687POPC   GL262227  14.321  31.942   7.960  0.1733  0.1873 -0.1159
34687POPC   C1A62228  14.274  32.496   8.008 -0.0865  0.0733 -0.1595
34687POPC   D2A62229  14.068  32.702   7.662  0.1730 -0.1747 -0.3296
34687POPC   C3A62230  14.151  32.842   7.208  0.0574  0.0383  0.1836
34687POPC   C4A62231  14.276  33.059   6.824  0.2022 -0.2916  0.4025
34687POPC   C1B62232  14.267  32.218   7.584  0.0775  0.0986 -0.2657
34687POPC   C2B62233  14.274  32.347   7.127 -0.0153  0.1018 -0.0233
34687POPC   C3B62234  14.217  32.535   6.727  0.0259  0.1619  0.0762
34687POPC   C4B62235  14.535  32.659   6.463 -0.0497  0.1584  0.1359
34688POPC   NC362236  13.233  26.387  10.839 -0.2944  0.0599 -0.0543
34688POPC   PO462237  13.197  26.564  10.479 -0.0895 -0.1659 -0.1248
34688POPC   GL162238  12.870  26.524  10.308 -0.2828 -0.0860 -0.0143
34688POPC   GL262239  12.943  26.330  10.065  0.1722  0.0647 -0.2099
34688POPC   C1A62240  12.460  26.320  10.324  0.1784  0.1043 -0.3027
34688POPC   D2A62241  12.139  26.026  10.227 -0.1292  0.0431  0.0107
34688POPC   C3A62242  11.728  25.956   9.983 -0.2870  0.0717 -0.0116
34688POPC   C4A62243  11.279  25.999   9.957  0.0105 -0.1698  0.0668
34688POPC   C1B62244  12.812  26.489   9.655  0.3089  0.1813 -0.0240
34688POPC   C2B62245  12.740  26.543   9.204  0.4079 -0.0007 -0.0743
34688POPC   C3B62246  12.786  26.345   8.809 -0.0694 -0.2591  0.1132
34688POPC   C4B62247  12.917  26.047   8.503  0.1457 -0.0685 -0.0980
34689POPC   NC362248  17.342  29.251   8.247 -0.1001 -0.0428  0.0780
34689POPC   PO462249  17.712  29.183   8.425 -0.0007 -0.1442 -0.1161
34689POPC   GL162250  17.684  29.232   7.947  0.0273 -0.0956  0.1306
34689POPC   GL262251  17.835  29.034   7.854 -0.0375 -0.0794  0.0045
34689POPC   C1A62252  17.711  29.340   7.499  0.0610 -0.1712  0.3107
34689POPC   D2A62253  17.649  29.071   7.082 -0.1338 -0.3338 -0.1580
34689POPC   C3A62254  17.887  28.779   6.836 -0.0881 -0.0795 -0.1604
34689POPC   C4A62255  18.034  28.499   6.488  0.3081  0.2170  0.1318
34689POPC   C1B62256  17.735  28.725   7.429  0.0645 -0.1249  0.2370
34689POPC   C2B62257  17.558  28.471   7.055  0.3711 -0.2554 -0.0551
34689POPC   C3B62258  17.602  28.193   6.688  0.1062 -0.0324 -0.0610
34689POPC   C4B62259  17.744  28.050   6.295 -0.1163 -0.6571 -0.1481
34690POPC   NC362260  12.489  18.694  11.081  0.0744 -0.4567 -0.2152
34690POPC   PO462261  12.649  19.037  11.143 -0.4204  0.0609  0.1635
34690POPC   GL162262  12.324  19.306  10.929 -0.1966  0.1433 -0.0740
34690POPC   GL262263  12.564  19.321  10.726  0.3496  0.0807  0.0978
34690POPC   C1A62264  11.887  19.474  10.976 -0.0977  0.0907  0.0346
34690POPC   D2A62265  11.543  19.741  10.888  0.1700 -0.2401  0.2353
34690POPC   C3A62266  11.397  20.133  10.711 -0.0087 -0.0649  0.1188
34690POPC   C4A62267  11.190  20.466  10.482 -0.0607  0.3941  0.1448
34690POPC   C1B62268  12.328  19.704  10.658  0.0271  0.2954  0.0838
34690POPC   C2B62269  11.962  19.944  10.640 -0.3928  0.1129 -0.0431
34690POPC   C3B62270  11.745  20.249  10.342  0.1796 -0.2783  0.1259
34690POPC   C4B62271  11.504  20.473   9.982  0.2397  0.2883  0.0131
34691POPC   NC362272  11.678  32.831   9.622 -0.0058  0.1679  0.0299
34691POPC   PO462273  11.585  32.519   9.412  0.2073  0.1691 -0.2127
34691POPC   GL162274  11.693  32.849   9.138  0.3494 -0.2619  0.0543
34691POPC   GL262275  11.559  33.085   9.166  0.0736 -0.3308  0.4538
34691POPC   C1A62276  11.308  32.884   8.828  0.0022 -0.1412  0.4654
34691POPC   D2A62277  11.008  33.141   8.547 -0.0643  0.0876  0.2015
34691POPC   C3A62278  10.715  33.214   8.165 -0.0770 -0.1945  0.2144
34691POPC   C4A62279  10.302  33.356   7.977 -0.0511  0.1275  0.0797
34691POPC   C1B62280  11.502  33.414   8.843  0.1129 -0.1055  0.0744
34691POPC   C2B62281  11.416  33.491   8.417  0.1298 -0.0553  0.2289
34691POPC   C3B62282  11.257  33.378   8.029 -0.0189  0.0990 -0.1084
34691POPC   C4B62283  11.181  33.554   7.607 -0.3157  0.1725 -0.3692
34692POPC   NC362284   1.969  18.144   8.938 -0.0976 -0.0236 -0.1920
34692POPC   PO462285   1.585  18.145   8.777  0.0932  0.2249 -0.0609
34692POPC   GL162286   1.759  18.322   8.543 -0.1768  0.0765 -0.1219
34692POPC   GL262287   1.543  18.527   8.382 -0.2770 -0.1826  0.0774
34692POPC   C1A62288   2.028  18.285   8.173 -0.4113  0.2044 -0.0798
34692POPC   D2A62289   2.160  18.294   7.710 -0.1595 -0.1254  0.1238
34692POPC   C3A62290   2.082  18.479   7.327  0.0837 -0.0101  0.0795
34692POPC   C4A62291   1.948  18.714   6.975  0.0206 -0.0087 -0.0832
34692POPC   C1B62292   1.587  18.726   7.979 -0.1582 -0.1859  0.1812
34692POPC   C2B62293   1.815  18.898   7.642  0.1239 -0.1186  0.0424
34692POPC   C3B62294   1.982  19.085   7.288 -0.1664 -0.2194  0.1236
34692POPC   C4B62295   2.242  19.196   6.932  0.1727  0.1377 -0.0406
34693POPC   NC362296   4.984  21.732  11.303  0.1841 -0.1887 -0.1600
34693POPC   PO462297   5.164  21.726  11.671 -0.2956  0.0093 -0.1182
34693POPC   GL162298   5.464  21.960  11.553  0.0135  0.0448  0.3523
34693POPC   GL262299   5.713  22.015  11.715  0.2255  0.2020  0.3578
34693POPC   C1A62300   5.647  22.082  11.145 -0.2028  0.1923  0.1774
34693POPC   D2A62301   5.601  22.221  10.700  0.3254 -0.3362 -0.1314
34693POPC   C3A62302   5.914  22.449  10.521 -0.2004 -0.4179  0.1009
34693POPC   C4A62303   6.171  22.623  10.188  0.1261 -0.0612  0.1437
34693POPC   C1B62304   6.112  22.128  11.855  0.0276 -0.0374 -0.0497
34693POPC   C2B62305   6.506  22.176  11.759  0.0043  0.4231 -0.2562
34693POPC   C3B62306   6.913  22.410  11.735 -0.0223  0.0230  0.0944
34693POPC   C4B62307   7.409  22.372  11.766  0.0805  0.1480 -0.1573
34694POPC   NC362308   8.622  30.043   8.617 -0.1188  0.0453 -0.1271
34694POPC   PO462309   8.680  30.400   8.853  0.1581 -0.2676 -0.0261
34694POPC   GL162310   9.016  30.293   8.626  0.1712 -0.0172  0.3295
34694POPC   GL262311   9.296  30.308   8.679 -0.0197 -0.1450  0.1528
34694POPC   C1A62312   8.866  30.213   8.207  0.2005  0.0581  0.0107
34694POPC   D2A62313   8.562  29.889   8.106  0.2512  0.0048  0.3448
34694POPC   C3A62314   8.236  29.794   7.758  0.3931  0.0037 -0.1721
34694POPC   C4A62315   8.123  29.897   7.325  0.3016 -0.0867  0.1293
34694POPC   C1B62316   9.330  30.372   8.247 -0.3534 -0.0523 -0.3007
34694POPC   C2B62317   9.339  30.166   7.828 -0.4332 -0.0319  0.2316
34694POPC   C3B62318   8.926  30.163   7.566  0.0386  0.2875 -0.0492
34694POPC   C4B62319   8.846  30.122   7.124  0.0549  0.2302  0.0208
34695POPC   NC362320  15.266  27.551   9.424  0.1218 -0.0014 -0.2291
34695POPC   PO462321  15.568  27.375   9.164  0.1639 -0.1735 -0.2042
34695POPC   GL162322  15.557  27.151   8.824  0.0444  0.1220  0.0069
34695POPC   GL262323  15.479  27.458   8.662 -0.3532 -0.1878  0.2865
34695POPC   C1A62324  15.308  27.029   8.443 -0.2562 -0.4127  0.1447
34695POPC   D2A62325  14.958  27.056   8.088 -0.1468 -0.1187 -0.3931
34695POPC   C3A62326  14.737  27.327   7.732  0.4273  0.3126 -0.2723
34695POPC   C4A62327  14.304  27.231   7.554 -0.1466 -0.0653  0.0513
34695POPC   C1B62328  15.708  27.265   8.370 -0.2855  0.0964  0.0600
34695POPC   C2B62329  15.576  26.998   8.021 -0.0878 -0.1543 -0.1190
34695POPC   C3B62330  15.266  26.880   7.645 -0.3192  0.1904  0.2014
34695POPC   C4B62331  15.097  26.798   7.250 -0.2267 -0.2121  0.1039
34696POPC   NC362332  14.820  21.754  13.936 -0.2581 -0.2298  0.1399
34696POPC   PO462333  14.947  21.371  13.949 -0.1938  0.2507  0.1024
34696POPC   GL162334  14.806  21.394  14.283  0.0010  0.2236  0.0103
34696POPC   GL262335  14.828  21.178  14.531  0.1611 -0.0595  0.2495
34696POPC   C1A62336  14.446  21.508  14.511 -0.0758  0.0017 -0.4563
34696POPC   D2A62337  13.986  21.593  14.592  0.0595 -0.2809  0.1070
34696POPC   C3A62338  13.542  21.591  14.480 -0.1666  0.0374 -0.2518
34696POPC   C4A62339  13.098  21.390  14.474 -0.0415 -0.0061  0.3652
34696POPC   C1B62340  14.511  21.014  14.817  0.1103  0.1161 -0.2105
34696POPC   C2B62341  14.181  20.973  15.177 -0.3522 -0.4656 -0.1472
34696POPC   C3B62342  13.746  20.979  15.318  0.1273  0.0376 -0.1441
34696POPC   C4B62343  13.339  21.299  15.381 -0.4653 -0.1602 -0.2846
34697POPC   NC362344   8.273  28.772   9.102  0.1510  0.3610  0.0708
34697POPC   PO462345   8.200  28.539   9.438 -0.2662  0.1675 -0.2487
34697POPC   GL162346   8.286  28.209   9.275  0.2725 -0.0888 -0.0736
34697POPC   GL262347   8.295  28.277   9.015 -0.4664  0.2135  0.1520
34697POPC   C1A62348   8.400  27.781   9.271 -0.1793 -0.0364 -0.1519
34697POPC   D2A62349   8.581  27.346   9.231  0.2943 -0.4780  0.2430
34697POPC   C3A62350   8.702  27.101   8.842  0.0499  0.0965  0.0638
34697POPC   C4A62351   8.934  27.156   8.472  0.2710  0.0854 -0.1779
34697POPC   C1B62352   8.538  28.076   8.641 -0.1360  0.0288  0.1037
34697POPC   C2B62353   8.639  27.759   8.314 -0.0138 -0.0847 -0.0214
34697POPC   C3B62354   8.584  27.359   8.143 -0.1739 -0.0140 -0.2001
34697POPC   C4B62355   8.838  27.097   7.844  0.0702  0.1285  0.3741
34698POPC   NC362356   3.306  24.473  10.152 -0.3446  0.3556 -0.0592
34698POPC   PO462357   3.606  24.305   9.948  0.1028  0.1682 -0.2880
34698POPC   GL162358   3.929  24.501   9.688 -0.2253 -0.3544  0.0179
34698POPC   GL262359   3.711  24.560   9.457  0.2518  0.2933 -0.0431
34698POPC   C1A62360   4.229  24.234   9.429 -0.0505  0.0120  0.0422
34698POPC   D2A62361   4.193  23.801   9.134 -0.3367  0.0196  0.2852
34698POPC   C3A62362   4.539  23.503   9.260  0.1472  0.0383  0.3439
34698POPC   C4A62363   4.840  23.520   9.654  0.3241 -0.0732  0.4057
34698POPC   C1B62364   3.729  24.266   9.083 -0.1255  0.0008  0.0351
34698POPC   C2B62365   4.097  24.367   8.757 -0.0544 -0.0518 -0.1296
34698POPC   C3B62366   4.281  24.352   8.377  0.0940  0.2561 -0.2396
34698POPC   C4B62367   4.575  24.405   8.043 -0.2439 -0.1666  0.2152
34699POPC   NC362368  32.831  21.596   9.324  0.0091 -0.0005 -0.0418
34699POPC   PO462369  32.686  21.953   9.428  0.3282 -0.2592 -0.1839
34699POPC   GL162370  32.727  21.919   9.001  0.1012 -0.1795  0.1178
34699POPC   GL262371  32.912  22.209   9.010  0.1813  0.3375  0.2518
34699POPC   C1A62372  32.646  22.062   8.578  0.2073 -0.0760  0.1036
34699POPC   D2A62373  32.226  22.098   8.328 -0.2948 -0.0281  0.3813
34699POPC   C3A62374  32.328  22.174   7.856 -0.0466 -0.0273  0.1806
34699POPC   C4A62375  32.178  22.238   7.403 -0.0167  0.0590 -0.1070
34699POPC   C1B62376  33.073  22.371   8.624 -0.0694 -0.0733  0.3785
34699POPC   C2B62377  32.928  22.576   8.352 -0.2293 -0.1590  0.1173
34699POPC   C3B62378  32.743  22.718   7.942 -0.1596  0.2734 -0.1431
34699POPC   C4B62379  32.806  23.003   7.561 -0.1452 -0.2194 -0.0332
34700POPC   NC362380  17.957  29.502   8.121 -0.0858 -0.0893 -0.1826
34700POPC   PO462381  17.616  29.666   8.102  0.1051  0.0350 -0.1120
34700POPC   GL162382  17.411  29.783   7.745  0.1929 -0.4316 -0.2129
34700POPC   GL262383  17.322  29.531   7.698  0.0049  0.4540 -0.2621
34700POPC   C1A62384  17.325  29.945   7.267 -0.1000  0.2146 -0.3054
34700POPC   D2A62385  17.296  29.878   6.768 -0.0150 -0.0480  0.1567
34700POPC   C3A62386  17.149  29.577   6.404 -0.0815 -0.2038  0.1871
34700POPC   C4A62387  17.079  29.236   6.120 -0.2112 -0.1887  0.1168
34700POPC   C1B62388  17.129  29.447   7.271  0.1980 -0.0819  0.0738
34700POPC   C2B62389  17.258  29.366   6.863  0.0788  0.1991  0.2062
34700POPC   C3B62390  17.278  29.017   6.581 -0.1657 -0.0068 -0.3913
34700POPC   C4B62391  17.507  28.673   6.538  0.1463 -0.0898 -0.1729
34701POPC   NC362392  14.552  18.050   9.310 -0.4365 -0.1811  0.3110
34701POPC   PO462393  14.342  17.722   9.341 -0.0130 -0.0288  0.0896
34701POPC   GL162394  14.131  17.993   9.012  0.2517 -0.1648  0.0334
34701POPC   GL262395  14.256  18.245   8.857  0.0823  0.0337 -0.1764
34701POPC   C1A62396  13.716  18.127   8.854  0.2779  0.0837 -0.1367
34701POPC   D2A62397  13.360  18.381   8.671  0.0096  0.0202  0.0121
34701POPC   C3A62398  13.196  18.616   8.331  0.3252 -0.3146 -0.1533
34701POPC   C4A62399  13.085  18.808   8.014 -0.2605 -0.1498  0.3589
34701POPC   C1B62400  14.290  18.446   8.422  0.2287 -0.1278 -0.0792
34701POPC   C2B62401  14.101  18.562   8.032  0.1615  0.1530  0.0583
34701POPC   C3B62402  13.994  18.543   7.554 -0.0461  0.1852 -0.1863
34701POPC   C4B62403  14.180  18.435   7.104 -0.1961 -0.0779  0.0280
34702POPC   NC362404   4.651  23.328  10.967  0.0247  0.3383  0.1119
34702POPC   PO462405   4.731  23.531  11.289  0.0278  0.0527  0.0282
34702POPC   GL162406   5.036  23.295  11.378  0.0795 -0.1021  0.1690
34702POPC   GL262407   5.262  23.373  11.591 -0.2017  0.1620  0.2614
34702POPC   C1A62408   5.414  22.987  11.298  0.1902  0.2629  0.0021
34702POPC   D2A62409   5.881  22.932  11.425 -0.1219 -0.0923 -0.1426
34702POPC   C3A62410   6.014  23.175  11.063  0.0590  0.1474 -0.2223
34702POPC   C4A62411   6.184  23.400  10.718 -0.0531 -0.0078  0.0968
34702POPC   C1B62412   5.626  23.429  11.318 -0.2257  0.1956  0.0095
34702POPC   C2B62413   5.698  23.660  10.928 -0.2444  0.1861 -0.0650
34702POPC   C3B62414   5.814  23.642  10.488 -0.0069 -0.5241 -0.3181
34702POPC   C4B62415   6.235  23.627  10.270 -0.3097  0.2908 -0.0216
34703POPC   NC362416  14.951  23.553  10.096 -0.1731 -0.2336 -0.3197
34703POPC   PO462417  14.833  23.371  10.419  0.3950  0.0469 -0.0363
34703POPC   GL162418  14.507  23.218  10.260  0.1072  0.1481  0.1714
34703POPC   GL262419  14.622  23.117  10.031 -0.1378  0.1100 -0.1097
34703POPC   C1A62420  14.112  23.033  10.174  0.1434 -0.3836 -0.1119
34703POPC   D2A62421  13.812  22.664  10.216  0.0448 -0.2671  0.0762
34703POPC   C3A62422  13.363  22.734  10.152  0.0418 -0.0568  0.0394
34703POPC   C4A62423  12.952  22.790  10.328 -0.0204  0.2283 -0.0537
34703POPC   C1B62424  14.312  23.400   9.908  0.1457 -0.0981  0.0513
34703POPC   C2B62425  14.069  23.559   9.524 -0.0765 -0.0546 -0.0034
34703POPC   C3B62426  13.662  23.584   9.379  0.0550  0.0621  0.0229
34703POPC   C4B62427  13.344  23.744   9.090  0.0718 -0.2091  0.2224
34704POPC   NC362428  32.702  31.212   8.344  0.3389 -0.2097 -0.0580
34704POPC   PO462429  32.618  31.303   7.948 -0.1085  0.0585  0.1193
34704POPC   GL162430  32.647  31.271   7.547 -0.3012 -0.2711 -0.1846
34704POPC   GL262431  32.603  30.968   7.585  0.3567 -0.0419 -0.1847
34704POPC   C1A62432  32.867  31.020   7.209 -0.3518  0.1451 -0.0008
34704POPC   D2A62433  32.824  30.938   6.805  0.0910  0.3177  0.2133
34704POPC   C3A62434  32.866  30.629   6.432 -0.2129  0.0047 -0.2674
34704POPC   C4A62435  32.734  30.524   6.012 -0.0404  0.0953  0.0546
34704POPC   C1B62436  32.417  31.087   7.155  0.1806 -0.2559 -0.1857
34704POPC   C2B62437  32.364  31.126   6.707  0.1836 -0.2919 -0.1882
34704POPC   C3B62438  32.594  31.175   6.317  0.1943 -0.4504 -0.1564
34704POPC   C4B62439  32.697  31.031   5.897  0.2854  0.1013 -0.2663
34705POPC   NC362440   5.865  19.748  12.678  0.1820  0.0044  0.0368
34705POPC   PO462441   5.685  19.993  12.920  0.1405  0.1882 -0.4309
34705POPC   GL162442   5.825  19.924  13.263  0.0709 -0.1532  0.1262
34705POPC   GL262443   6.111  20.077  13.235 -0.0899  0.0286 -0.0556
34705POPC   C1A62444   5.937  19.772  13.679 -0.2387 -0.1983 -0.1606
34705POPC   D2A62445   5.961  20.033  14.055 -0.0638 -0.1071  0.1539
34705POPC   C3A62446   6.264  20.036  14.413  0.0078 -0.1269  0.3018
34705POPC   C4A62447   6.234  19.954  14.823  0.2214  0.0364 -0.1956
34705POPC   C1B62448   6.579  20.189  13.168  0.1072  0.0216 -0.0924
34705POPC   C2B62449   6.905  20.523  13.323 -0.2677  0.0146 -0.1369
34705POPC   C3B62450   7.303  20.689  13.330 -0.1392  0.0864 -0.0669
34705POPC   C4B62451   7.700  20.710  13.587  0.0321 -0.3002  0.2723
34706POPC   NC362452   1.211  21.266   9.114 -0.0818  0.0455 -0.0930
34706POPC   PO462453   1.293  21.559   9.355 -0.0259 -0.4211 -0.0182
34706POPC   GL162454   1.365  21.704   8.905  0.0926 -0.2734 -0.3007
34706POPC   GL262455   1.081  21.555   8.716  0.3887 -0.1250  0.0446
34706POPC   C1A62456   1.363  21.835   8.447  0.0150  0.0497  0.0641
34706POPC   D2A62457   1.291  21.773   8.008 -0.1314  0.3518 -0.1461
34706POPC   C3A62458   1.094  21.894   7.632  0.0121  0.0545  0.3352
34706POPC   C4A62459   0.777  21.784   7.341 -0.1067 -0.0398  0.1469
34706POPC   C1B62460   0.945  21.491   8.252 -0.0694 -0.0544  0.2561
34706POPC   C2B62461   0.872  21.397   7.813 -0.2579  0.0413  0.2107
34706POPC   C3B62462   0.906  21.252   7.397  0.0174 -0.1153  0.1421
34706POPC   C4B62463   0.695  21.085   6.978  0.4327 -0.1983 -0.0560
34707POPC   NC362464   6.903  17.813  13.975  0.2260  0.0659 -0.1958
34707POPC   PO462465   7.225  17.890  13.687  0.2113 -0.1176 -0.0744
34707POPC   GL162466   7.280  18.257  13.722 -0.2939  0.2325 -0.2214
34707POPC   GL262467   7.279  18.470  13.945 -0.3074 -0.0486 -0.0390
34707POPC   C1A62468   7.644  18.505  13.581  0.1174  0.1736 -0.2269
34707POPC   D2A62469   8.108  18.565  13.667  0.0784 -0.0736  0.1312
34707POPC   C3A62470   8.232  18.875  13.967  0.1211 -0.3498  0.1070
34707POPC   C4A62471   8.142  19.216  14.260 -0.0388  0.0728 -0.1073
34707POPC   C1B62472   7.294  18.839  14.247  0.0474 -0.1197  0.1314
34707POPC   C2B62473   7.243  19.160  14.557  0.0386 -0.0857 -0.0635
34707POPC   C3B62474   7.382  19.242  14.934 -0.2394  0.1948  0.0709
34707POPC   C4B62475   7.641  19.369  15.269 -0.2928 -0.2927  0.2095
34708POPC   NC362476   7.775  22.631   8.928 -0.0262  0.0290 -0.0920
34708POPC   PO462477   7.836  22.897   9.212  0.1884 -0.0159 -0.1720
34708POPC   GL162478   7.911  22.753   9.628 -0.1608  0.1401  0.0412
34708POPC   GL262479   7.743  22.970   9.732  0.0239 -0.1347 -0.0016
34708POPC   C1A62480   7.580  22.554   9.898  0.1405  0.1469 -0.1379
34708POPC   D2A62481   7.140  22.677  10.083 -0.1433  0.1371  0.1910
34708POPC   C3A62482   6.749  22.774   9.830  0.0553 -0.1376  0.4042
34708POPC   C4A62483   6.537  22.754   9.420 -0.1761 -0.1919 -0.1606
34708POPC   C1B62484   7.331  23.112  10.032 -0.0224 -0.0015  0.0586
34708POPC   C2B62485   6.860  23.220   9.961 -0.0246 -0.1932  0.1740
34708POPC   C3B62486   6.579  23.601   9.903  0.2336 -0.1219 -0.0780
34708POPC   C4B62487   6.300  23.972   9.848  0.0502 -0.2725  0.2013
34709POPC   NC362488   6.155  27.705   5.104  0.0226  0.1350 -0.0150
34709POPC   PO462489   5.900  27.950   4.902  0.0613 -0.1813 -0.0522
34709POPC   GL162490   5.730  28.092   5.201 -0.1313 -0.0314 -0.2870
34709POPC   GL262491   5.934  28.127   5.399 -0.0594 -0.1930 -0.2459
34709POPC   C1A62492   5.447  28.378   5.494 -0.1120  0.0847 -0.0832
34709POPC   D2A62493   5.289  28.668   5.823  0.1675 -0.0130 -0.1146
34709POPC   C3A62494   5.378  29.087   5.968  0.2146 -0.1959  0.2451
34709POPC   C4A62495   5.155  29.233   6.357  0.1434  0.0597  0.0017
34709POPC   C1B62496   5.899  28.249   5.812 -0.0456  0.0131  0.0709
34709POPC   C2B62497   5.532  28.219   6.070 -0.4108  0.1430  0.1368
34709POPC   C3B62498   5.495  28.271   6.563  0.2145 -0.1791 -0.1411
34709POPC   C4B62499   5.441  28.514   7.003 -0.2092 -0.1843  0.4055
34710POPC   NC362500  14.255  26.289   5.388 -0.0688 -0.0669 -0.3248
34710POPC   PO462501  13.922  26.352   5.166  0.2275  0.1672  0.1481
34710POPC   GL162502  13.857  26.383   5.625 -0.3345  0.2042 -0.0376
34710POPC   GL262503  13.750  26.650   5.807  0.0754 -0.0789 -0.0675
34710POPC   C1A62504  14.111  26.358   6.015  0.0651 -0.0566 -0.2381
34710POPC   D2A62505  14.119  26.428   6.481 -0.2911 -0.0637  0.1097
34710POPC   C3A62506  14.229  26.756   6.694  0.0842  0.1561  0.2473
34710POPC   C4A62507  14.480  26.942   7.032  0.0789 -0.0554  0.2756
34710POPC   C1B62508  13.667  26.526   6.225  0.1905  0.0324  0.1640
34710POPC   C2B62509  13.742  26.820   6.623  0.0680 -0.1041 -0.3465
34710POPC   C3B62510  13.783  27.113   6.987 -0.2165  0.0866 -0.1185
34710POPC   C4B62511  13.916  27.484   7.235  0.1829 -0.5051  0.2823
34711POPC   NC362512   0.863  18.210   4.547  0.0075  0.3274 -0.1555
34711POPC   PO462513   0.816  17.958   4.832  0.0697  0.1937  0.0104
34711POPC   GL162514   0.843  17.766   5.168  0.1129  0.1335  0.2035
34711POPC   GL262515   1.057  17.516   5.104 -0.2153 -0.2324 -0.1643
34711POPC   C1A62516   0.607  17.525   5.484  0.1415  0.2983  0.0791
34711POPC   D2A62517   0.232  17.326   5.673 -0.1827  0.4574  0.0265
34711POPC   C3A62518   0.226  17.302   6.093  0.1921 -0.2242 -0.0548
34711POPC   C4A62519   0.133  17.193   6.512  0.0895 -0.1863  0.0228
34711POPC   C1B62520   1.267  17.788   5.370  0.0138  0.0012  0.0170
34711POPC   C2B62521   1.461  17.837   5.762 -0.2302  0.0058  0.0387
34711POPC   C3B62522   1.664  17.654   6.134 -0.1447  0.2635 -0.3778
34711POPC   C4B62523   1.661  17.296   6.423 -0.1585 -0.0454 -0.0744
34712POPC   NC362524   4.544  22.803   5.676 -0.0006 -0.1075 -0.0697
34712POPC   PO462525   4.657  23.178   5.508 -0.3235 -0.2142  0.0148
34712POPC   GL162526   4.796  23.355   5.832 -0.2061 -0.0187  0.0971
34712POPC   GL262527   4.752  23.125   6.028 -0.2665 -0.0832 -0.1066
34712POPC   C1A62528   4.509  23.559   6.143 -0.4365 -0.4016  0.0072
34712POPC   D2A62529   4.362  23.956   6.258 -0.2096  0.1576 -0.1051
34712POPC   C3A62530   4.414  24.135   6.706  0.2856 -0.3211 -0.0682
34712POPC   C4A62531   4.227  24.137   7.161 -0.1647 -0.1405  0.1870
34712POPC   C1B62532   4.725  23.189   6.439 -0.3281 -0.2054 -0.0750
34712POPC   C2B62533   4.510  23.541   6.643  0.2111 -0.1717  0.0091
34712POPC   C3B62534   4.555  23.765   7.014 -0.0300  0.3753 -0.0817
34712POPC   C4B62535   4.606  23.853   7.430  0.0899 -0.0197 -0.1241
34713POPC   NC362536   8.225  21.830   9.506 -0.2025 -0.0840  0.0154
34713POPC   PO462537   8.508  21.677   9.303 -0.0497  0.0463 -0.1578
34713POPC   GL162538   8.381  21.337   9.366 -0.0414  0.1502  0.4412
34713POPC   GL262539   8.443  21.190   9.112  0.5077  0.1885 -0.1739
34713POPC   C1A62540   8.297  21.118   9.739  0.0574  0.3782 -0.0311
34713POPC   D2A62541   8.292  20.744   9.962 -0.0042  0.4452  0.1951
34713POPC   C3A62542   7.933  20.666  10.218 -0.0070  0.0299 -0.1970
34713POPC   C4A62543   7.645  20.600  10.583  0.2231 -0.0446 -0.2022
34713POPC   C1B62544   8.128  20.868   9.083 -0.2229  0.0073  0.1113
34713POPC   C2B62545   8.006  20.426   8.901  0.0992 -0.0843  0.0374
34713POPC   C3B62546   7.849  20.049   9.024  0.0737  0.2013  0.2478
34713POPC   C4B62547   7.931  19.602   8.988 -0.3900 -0.1022 -0.1148
34714POPC   NC362548  11.932  21.075   7.008 -0.2893  0.2071 -0.0341
34714POPC   PO462549  11.926  20.783   6.772 -0.0377  0.0640 -0.0973
34714POPC   GL162550  12.092  20.558   7.080  0.0527  0.2570 -0.0502
34714POPC   GL262551  12.325  20.523   6.912 -0.1740  0.1081  0.1468
34714POPC   C1A62552  12.260  20.711   7.423  0.0052 -0.1049 -0.2454
34714POPC   D2A62553  12.283  21.061   7.678 -0.1434  0.1975  0.3670
34714POPC   C3A62554  12.552  21.098   8.034  0.1970  0.2269  0.3333
34714POPC   C4A62555  12.822  20.950   8.352 -0.0118 -0.1912  0.2374
34714POPC   C1B62556  12.669  20.484   7.186 -0.1197  0.0670 -0.3488
34714POPC   C2B62557  13.064  20.498   7.487 -0.0136  0.0446 -0.4156
34714POPC   C3B62558  13.460  20.645   7.714  0.3105  0.0969  0.0228
34714POPC   C4B62559  13.776  20.542   8.020  0.1325  0.1282  0.0673
34715POPC   NC362560  13.695  17.844   4.733 -0.4544 -0.1359  0.0294
34715POPC   PO462561  13.942  18.080   4.933  0.4592  0.1379  0.0691
34715POPC   GL162562  14.166  18.074   5.264 -0.0827 -0.1907  0.0349
34715POPC   GL262563  13.944  17.918   5.401  0.0661  0.3244  0.1628
34715POPC   C1A62564  14.334  17.885   5.695 -0.2760  0.2245  0.1103
34715POPC   D2A62565  14.402  17.549   5.981  0.1081  0.2155  0.0237
34715POPC   C3A62566  14.036  17.368   6.096  0.0461  0.0705  0.1459
34715POPC   C4A62567  13.628  17.151   6.059 -0.0646  0.0030 -0.0836
34715POPC   C1B62568  13.909  17.488   5.606  0.2481 -0.2881 -0.0388
34715POPC   C2B62569  13.958  17.010   5.712 -0.1155 -0.0494  0.1297
34715POPC   C3B62570  14.065  16.735   6.003 -0.2559  0.2951  0.2092
34715POPC   C4B62571  14.166  16.406   6.325 -0.0767  0.0454  0.0738
34716POPC   NC362572   2.756  17.279   4.889  0.1268 -0.4566  0.2132
34716POPC   PO462573   2.552  17.624   4.852 -0.2034  0.2664  0.1174
34716POPC   GL162574   2.527  17.417   5.305  0.3208 -0.3255  0.0203
34716POPC   GL262575   2.810  17.309   5.352  0.4528  0.1859 -0.1129
34716POPC   C1A62576   2.630  17.441   5.773 -0.1814  0.0437 -0.0725
34716POPC   D2A62577   2.944  17.242   6.007  0.0816  0.3448 -0.1609
34716POPC   C3A62578   2.984  16.791   6.127 -0.4144  0.0009 -0.2075
34716POPC   C4A62579   2.881  16.564   6.488  0.1299  0.0800 -0.0328
34716POPC   C1B62580   2.804  16.912   5.614 -0.0786  0.1542  0.0791
34716POPC   C2B62581   2.806  16.493   5.778  0.1481 -0.0250  0.0157
34716POPC   C3B62582   2.612  16.309   6.095  0.3133  0.0474  0.1903
34716POPC   C4B62583   2.216  16.106   6.327  0.2810 -0.1249 -0.2837
34717POPC   NC362584   4.922  23.652   5.364 -0.0812 -0.1021 -0.3409
34717POPC   PO462585   4.963  24.051   5.458  0.2085  0.3578  0.0523
34717POPC   GL162586   4.956  24.186   5.733 -0.1857  0.0933 -0.0851
34717POPC   GL262587   4.845  24.063   6.008  0.1763  0.2525 -0.0190
34717POPC   C1A62588   4.778  24.619   5.918  0.1348 -0.1204 -0.2264
34717POPC   D2A62589   4.774  24.864   6.381 -0.0137 -0.0138  0.0830
34717POPC   C3A62590   4.726  25.321   6.446 -0.0578  0.3194 -0.1504
34717POPC   C4A62591   4.870  25.729   6.273 -0.0045  0.0711  0.4648
34717POPC   C1B62592   4.761  24.342   6.391 -0.0308 -0.1708  0.0583
34717POPC   C2B62593   4.505  24.638   6.670 -0.1896  0.1634 -0.0156
34717POPC   C3B62594   4.661  25.043   6.861 -0.3304 -0.1108  0.0520
34717POPC   C4B62595   4.506  25.306   7.265 -0.1952  0.4667 -0.1528
34718POPC   NC362596   5.637  17.451   5.077  0.4226 -0.0727  0.2044
34718POPC   PO462597   5.424  17.331   4.803  0.0410 -0.2010  0.2255
34718POPC   GL162598   5.049  17.261   5.010 -0.3750  0.2452 -0.2791
34718POPC   GL262599   5.089  17.387   5.261  0.0991  0.1690  0.1858
34718POPC   C1A62600   4.893  16.965   5.333  0.0501  0.0941 -0.0780
34718POPC   D2A62601   5.009  16.649   5.685 -0.3059 -0.2117 -0.0300
34718POPC   C3A62602   5.292  16.646   5.999 -0.0682 -0.1940  0.0781
34718POPC   C4A62603   5.266  16.538   6.522  0.2349 -0.0768 -0.2618
34718POPC   C1B62604   5.090  17.573   5.696  0.1862 -0.1310  0.3518
34718POPC   C2B62605   5.074  17.487   6.139  0.1710  0.0079 -0.4532
34718POPC   C3B62606   5.001  17.098   6.479  0.0769  0.0036  0.2725
34718POPC   C4B62607   4.807  16.766   6.760 -0.1625 -0.1359 -0.1184
34719POPC   NC362608  11.069  22.103   8.521  0.0389  0.0079  0.1293
34719POPC   PO462609  11.277  21.843   8.327  0.0643  0.2655 -0.0243
34719POPC   GL162610  11.602  21.921   8.546 -0.2582 -0.2186 -0.3563
34719POPC   GL262611  11.701  21.706   8.701  0.1554  0.3285  0.1421
34719POPC   C1A62612  12.082  21.954   8.379  0.1937 -0.1563  0.0101
34719POPC   D2A62613  12.531  22.029   8.243 -0.0359  0.2559  0.2819
34719POPC   C3A62614  12.851  22.029   8.601  0.0307 -0.1846 -0.3067
34719POPC   C4A62615  13.042  21.828   8.871  0.0426  0.0634 -0.1100
34719POPC   C1B62616  12.024  21.428   9.003 -0.0574 -0.2478  0.1913
34719POPC   C2B62617  12.000  21.374   9.462 -0.1878  0.2218 -0.2123
34719POPC   C3B62618  11.939  21.557   9.896  0.1150 -0.0296  0.2655
34719POPC   C4B62619  12.019  21.730  10.326 -0.0045  0.0391  0.0788
34720POPC   NC362620   4.236  23.153   5.030 -0.0258  0.4328 -0.3221
34720POPC   PO462621   4.177  23.039   5.442 -0.1552 -0.2250 -0.0506
34720POPC   GL162622   4.257  23.169   5.849 -0.0101 -0.7006  0.1721
34720POPC   GL262623   4.151  23.445   5.923  0.1597  0.2075  0.2106
34720POPC   C1A62624   4.260  23.004   6.267 -0.0867 -0.1680 -0.4838
34720POPC   D2A62625   4.360  22.915   6.696 -0.0895 -0.0788  0.1824
34720POPC   C3A62626   4.468  22.539   6.937 -0.0241 -0.1024  0.1769
34720POPC   C4A62627   4.772  22.358   7.166  0.3692  0.1002 -0.2317
34720POPC   C1B62628   4.085  23.450   6.365  0.2565  0.0794  0.1789
34720POPC   C2B62629   4.064  23.658   6.792  0.0677  0.0769  0.2568
34720POPC   C3B62630   4.089  23.700   7.261  0.2973 -0.1695  0.0615
34720POPC   C4B62631   4.193  23.487   7.707 -0.2903 -0.2974  0.3656
34721POPC   NC362632   8.069  32.758   5.389 -0.1766 -0.0239  0.1096
34721POPC   PO462633   7.741  32.627   5.192  0.1960  0.0590 -0.2979
34721POPC   GL162634   7.679  32.205   5.443  0.0338  0.1161 -0.4580
34721POPC   GL262635   7.951  32.213   5.546 -0.2461 -0.1682 -0.0547
34721POPC   C1A62636   7.556  31.961   5.888  0.0252 -0.2823 -0.1577
34721POPC   D2A62637   7.468  31.880   6.328  0.1573  0.2328  0.1291
34721POPC   C3A62638   7.648  32.215   6.575 -0.0135  0.3432 -0.1760
34721POPC   C4A62639   7.882  32.612   6.504  0.0465 -0.4256  0.1237
34721POPC   C1B62640   8.058  32.179   6.021  0.3508 -0.0740 -0.0287
34721POPC   C2B62641   8.039  31.965   6.414 -0.0174  0.0100  0.0712
34721POPC   C3B62642   8.186  31.778   6.800  0.0781  0.1432  0.1126
34721POPC   C4B62643   8.117  31.547   7.139 -0.1019  0.2478 -0.0054
34722POPC   NC362644   0.941  20.566   5.000  0.1697  0.1653 -0.1068
34722POPC   PO462645   0.954  20.176   4.982  0.0481  0.0271 -0.0495
34722POPC   GL162646   1.151  20.116   5.366 -0.0828 -0.0125 -0.1354
34722POPC   GL262647   1.071  20.367   5.508  0.2497  0.2191 -0.2407
34722POPC   C1A62648   1.264  19.944   5.799  0.1423 -0.1535 -0.1519
34722POPC   D2A62649   1.127  19.923   6.209  0.0371 -0.0202  0.3853
34722POPC   C3A62650   1.009  20.154   6.557  0.1606  0.2151  0.2236
34722POPC   C4A62651   0.653  20.078   6.837  0.0392 -0.1647  0.0638
34722POPC   C1B62652   1.245  20.423   5.978 -0.2547 -0.1203  0.1359
34722POPC   C2B62653   1.380  20.575   6.442  0.2129  0.0992  0.1026
34722POPC   C3B62654   1.205  20.672   6.847  0.1581  0.1434 -0.0514
34722POPC   C4B62655   0.911  20.714   7.226 -0.0439 -0.1353 -0.0531
34723POPC   NC362656   7.407  29.278   4.535 -0.1490  0.1053  0.1604
34723POPC   PO462657   7.234  29.568   4.729 -0.2805 -0.2591 -0.0377
34723POPC   GL162658   7.169  29.454   5.171 -0.1723 -0.1129 -0.0860
34723POPC   GL262659   7.187  29.748   5.239  0.0707  0.2172  0.3021
34723POPC   C1A62660   6.876  29.224   5.413 -0.2681  0.1797 -0.0708
34723POPC   D2A62661   6.869  28.993   5.805  0.3172  0.1826 -0.0241
34723POPC   C3A62662   6.971  29.038   6.278  0.0455  0.2416  0.1435
34723POPC   C4A62663   6.786  29.247   6.608  0.1527 -0.0125 -0.2491
34723POPC   C1B62664   7.403  29.854   5.660 -0.0474  0.0161 -0.1612
34723POPC   C2B62665   7.618  30.072   6.029 -0.3159 -0.0890  0.1350
34723POPC   C3B62666   7.610  30.074   6.504  0.2798  0.0138  0.1173
34723POPC   C4B62667   7.500  30.291   6.895 -0.0106  0.0850 -0.0010
34724POPC   NC362668   3.652  31.745   3.802 -0.3738  0.1095 -0.0158
34724POPC   PO462669   3.640  31.956   4.119 -0.1540 -0.1481 -0.1327
34724POPC   GL162670   3.785  31.672   4.422 -0.0472  0.2442 -0.0095
34724POPC   GL262671   3.901  31.562   4.738  0.4788  0.2428  0.1357
34724POPC   C1A62672   3.426  31.512   4.672 -0.4154  0.2349  0.1301
34724POPC   D2A62673   3.247  31.703   5.042  0.0448  0.2017  0.2097
34724POPC   C3A62674   3.066  31.693   5.473 -0.0974 -0.1093 -0.0843
34724POPC   C4A62675   2.855  31.779   5.844 -0.0780 -0.0016  0.0716
34724POPC   C1B62676   3.621  31.413   5.126 -0.0312  0.0352 -0.1632
34724POPC   C2B62677   3.405  31.202   5.480 -0.3143  0.1151 -0.0906
34724POPC   C3B62678   3.563  31.045   5.912 -0.1601  0.3591 -0.0589
34724POPC   C4B62679   3.581  31.317   6.331 -0.2312  0.2762 -0.0127
34725POPC   NC362680   9.986  21.539  11.785 -0.0556  0.1916  0.2245
34725POPC   PO462681   9.776  21.813  11.766  0.1516 -0.2228  0.0291
34725POPC   GL162682   9.512  21.484  11.768 -0.1194 -0.1856  0.1023
34725POPC   GL262683   9.576  21.311  12.046 -0.1159 -0.1181 -0.1334
34725POPC   C1A62684   9.605  21.072  11.563  0.2483  0.2159  0.0485
34725POPC   D2A62685   9.553  20.639  11.399 -0.0114 -0.1438  0.0374
34725POPC   C3A62686   9.279  20.514  11.092  0.1704 -0.0657 -0.0752
34725POPC   C4A62687   9.021  20.286  10.832  0.1780 -0.0035  0.1705
34725POPC   C1B62688   9.359  20.998  12.329 -0.0683 -0.2378  0.0121
34725POPC   C2B62689   9.374  20.541  12.323 -0.0666 -0.0436 -0.5044
34725POPC   C3B62690   9.386  20.100  12.502  0.0923 -0.1293 -0.0626
34725POPC   C4B62691   9.020  19.824  12.593  0.1287  0.2937 -0.5740
34726POPC   NC362692  13.119  30.845   4.571 -0.2892 -0.1928  0.0517
34726POPC   PO462693  13.381  30.598   4.445 -0.2523 -0.2059  0.1103
34726POPC   GL162694  13.580  30.855   4.785 -0.0590 -0.1806  0.3468
34726POPC   GL262695  13.850  30.865   4.734 -0.2222 -0.2697  0.2088
34726POPC   C1A62696  13.509  30.880   5.259  0.0727  0.2919 -0.0563
34726POPC   D2A62697  13.512  30.787   5.720  0.0342  0.2673  0.2299
34726POPC   C3A62698  13.519  30.476   6.047  0.0714  0.0567  0.0407
34726POPC   C4A62699  13.576  30.072   6.285  0.2030 -0.0763 -0.1010
34726POPC   C1B62700  13.841  30.512   5.100  0.1483 -0.0065  0.1222
34726POPC   C2B62701  14.016  30.175   5.394 -0.2761  0.1460 -0.0314
34726POPC   C3B62702  14.440  30.168   5.578 -0.1326 -0.2157  0.3065
34726POPC   C4B62703  14.832  30.420   5.694 -0.0055 -0.1308  0.0649
34727POPC   NC362704  13.048  32.338   4.917 -0.0789 -0.1369  0.1040
34727POPC   PO462705  13.433  32.468   4.829 -0.3371 -0.0353 -0.0696
34727POPC   GL162706  13.582  32.478   5.146 -0.0392 -0.5080 -0.1809
34727POPC   GL262707  13.378  32.454   5.370  0.0767  0.0245  0.2500
34727POPC   C1A62708  14.001  32.427   5.359  0.0898 -0.3432 -0.2009
34727POPC   D2A62709  14.432  32.310   5.538 -0.0048 -0.0113  0.0472
34727POPC   C3A62710  14.511  32.049   5.948  0.2693 -0.3045 -0.1327
34727POPC   C4A62711  14.779  31.772   6.231  0.0360 -0.2931 -0.1185
34727POPC   C1B62712  13.648  32.118   5.554 -0.0712 -0.2004 -0.0093
34727POPC   C2B62713  13.680  31.819   5.947 -0.1188 -0.3899 -0.0285
34727POPC   C3B62714  13.416  32.064   6.238  0.2028 -0.0947  0.0153
34727POPC   C4B62715  13.322  32.247   6.668  0.0494 -0.3462 -0.0266
34728POPC   NC362716  10.540  21.770  12.498  0.3395 -0.0978 -0.0309
34728POPC   PO462717  10.654  21.885  12.169 -0.1279  0.1380 -0.0165
34728POPC   GL162718  10.549  21.480  12.188  0.1950 -0.0864  0.2920
34728POPC   GL262719  10.473  21.374  11.949 -0.1955  0.1378 -0.3338
34728POPC   C1A62720  10.485  21.095  12.403 -0.0359  0.0495  0.0541
34728POPC   D2A62721  10.311  20.679  12.423  0.2811 -0.1684  0.0998
34728POPC   C3A62722  10.319  20.255  12.472 -0.4374 -0.2949 -0.0210
34728POPC   C4A62723  10.405  19.834  12.496 -0.0916 -0.4441  0.1090
34728POPC   C1B62724  10.113  21.102  12.087  0.1389  0.1216 -0.0860
34728POPC   C2B62725   9.768  20.743  12.092 -0.0041  0.0201 -0.1911
34728POPC   C3B62726   9.786  20.309  12.167  0.2106 -0.2301  0.0262
34728POPC   C4B62727   9.898  19.953  12.438  0.0730 -0.0216 -0.0746
34729POPC   NC362728  11.478  22.290   9.792  0.0385  0.0717 -0.0373
34729POPC   PO462729  11.170  22.468  10.022 -0.1387  0.2465  0.1876
34729POPC   GL162730  11.355  22.190  10.270 -0.1362 -0.0458  0.0445
34729POPC   GL262731  11.613  22.398  10.265  0.0460  0.0581 -0.0869
34729POPC   C1A62732  11.692  22.040  10.547 -0.2047  0.0811  0.2204
34729POPC   D2A62733  12.093  22.243  10.502 -0.5183  0.1230  0.1416
34729POPC   C3A62734  12.485  22.007  10.282  0.1952 -0.2398 -0.0969
34729POPC   C4A62735  12.917  21.885  10.117  0.0063  0.1701 -0.1516
34729POPC   C1B62736  11.960  22.716  10.233  0.0002  0.0347 -0.0197
34729POPC   C2B62737  11.897  23.131  10.424  0.2257 -0.0754  0.1238
34729POPC   C3B62738  12.174  23.232  10.764  0.1017  0.1088 -0.0955
34729POPC   C4B62739  12.257  22.985  11.144 -0.3152 -0.2343  0.0855
34730POPC   NC362740   8.063  17.782   5.293 -0.2163 -0.4873 -0.1424
34730POPC   PO462741   7.929  17.935   5.588  0.0247  0.3021 -0.3728
34730POPC   GL162742   8.146  17.872   5.841  0.1132  0.0359  0.1353
34730POPC   GL262743   8.350  18.042   6.059 -0.3349 -0.1536 -0.2957
34730POPC   C1A62744   8.141  17.583   6.182 -0.3173  0.2148  0.1467
34730POPC   D2A62745   8.346  17.521   6.561  0.0231  0.3000 -0.0977
34730POPC   C3A62746   8.318  17.204   6.878 -0.1067  0.2366 -0.1051
34730POPC   C4A62747   8.404  16.879   7.181 -0.0951 -0.1878 -0.2261
34730POPC   C1B62748   8.360  18.107   6.539  0.0439 -0.0602  0.1000
34730POPC   C2B62749   8.414  17.952   6.996  0.1394 -0.0396 -0.0503
34730POPC   C3B62750   8.521  18.044   7.387  0.1765 -0.1977 -0.1563
34730POPC   C4B62751   8.508  17.987   7.860  0.2150 -0.2599 -0.0235
34731POPC   NC362752  31.923  32.685   3.835  0.0708  0.1922 -0.1345
34731POPC   PO462753  31.554  32.808   3.891  0.0361 -0.1219 -0.1598
34731POPC   GL162754  31.754  32.852   4.281 -0.0143  0.0969 -0.0165
34731POPC   GL262755  31.660  32.631   4.381  0.0230 -0.0336  0.3191
34731POPC   C1A62756  32.160  32.909   4.483 -0.0513 -0.1398  0.2815
34731POPC   D2A62757  32.504  33.021   4.797  0.2208  0.0298 -0.0800
34731POPC   C3A62758  32.572  33.486   4.854 -0.0521 -0.0921 -0.0626
34731POPC   C4A62759  32.384  33.894   5.024  0.1493  0.0672 -0.2334
34731POPC   C1B62760  31.835  32.666   4.802 -0.0403  0.0593 -0.1183
34731POPC   C2B62761  31.829  32.439   5.178 -0.0790  0.0057 -0.4100
34731POPC   C3B62762  31.760  32.298   5.602 -0.2287  0.1145  0.0651
34731POPC   C4B62763  31.746  32.049   5.943 -0.0470  0.0628  0.0609
34732POPC   NC362764  10.199  29.612   4.945 -0.3003  0.2339 -0.1443
34732POPC   PO462765  10.086  29.786   5.287  0.1638  0.3427  0.1083
34732POPC   GL162766   9.911  29.769   5.683  0.0304  0.0848 -0.2579
34732POPC   GL262767   9.685  29.638   5.666  0.0785 -0.0408 -0.2383
34732POPC   C1A62768  10.039  29.870   6.156  0.0504  0.2467  0.0589
34732POPC   D2A62769   9.758  29.996   6.504 -0.0061 -0.0870  0.3589
34732POPC   C3A62770  10.048  30.081   6.864  0.0013  0.0244  0.1973
34732POPC   C4A62771  10.178  30.393   7.220  0.0745  0.1571 -0.1366
34732POPC   C1B62772   9.787  29.440   6.096  0.2618  0.1315 -0.0614
34732POPC   C2B62773   9.936  29.500   6.558 -0.0072  0.0743 -0.0755
34732POPC   C3B62774  10.016  29.563   6.983  0.4182  0.0159 -0.3300
34732POPC   C4B62775   9.831  29.722   7.357  0.2321  0.1061 -0.1520
34733POPC   NC362776   6.421  19.308   6.178  0.3018  0.5032 -0.2182
34733POPC   PO462777   6.697  19.485   6.410 -0.0375  0.0966 -0.0395
34733POPC   GL162778   6.770  19.148   6.521 -0.0020  0.0922  0.2051
34733POPC   GL262779   6.565  18.915   6.561  0.0055 -0.3133  0.0686
34733POPC   C1A62780   7.046  18.923   6.829 -0.1942  0.0192 -0.1939
34733POPC   D2A62781   7.439  18.980   7.090  0.0994  0.0552 -0.0186
34733POPC   C3A62782   7.470  18.895   7.514 -0.0651 -0.0915 -0.2469
34733POPC   C4A62783   7.612  18.842   7.914  0.2115  0.1812 -0.1532
34733POPC   C1B62784   6.441  18.718   6.958  0.1691 -0.0155 -0.0322
34733POPC   C2B62785   6.487  18.340   7.219  0.2551 -0.0662  0.0643
34733POPC   C3B62786   6.141  18.073   7.440 -0.0306 -0.0295 -0.0438
34733POPC   C4B62787   5.874  17.806   7.204  0.2695 -0.2598  0.1669
34734POPC   NC362788   8.878  21.764  10.104 -0.1859 -0.2516 -0.0632
34734POPC   PO462789   8.889  21.615   9.725 -0.2069 -0.0805 -0.1423
34734POPC   GL162790   8.755  21.208   9.605 -0.1972 -0.3651 -0.0437
34734POPC   GL262791   9.019  20.992   9.644  0.0251 -0.1571 -0.2718
34734POPC   C1A62792   8.555  20.763   9.527 -0.1048 -0.1024  0.2313
34734POPC   D2A62793   8.205  20.513   9.471  0.1055 -0.0894  0.0744
34734POPC   C3A62794   8.318  20.034   9.481  0.1056  0.2229 -0.0987
34734POPC   C4A62795   8.470  19.789   9.808 -0.1672 -0.1095 -0.1600
34734POPC   C1B62796   8.801  20.830  10.042 -0.0093  0.0444 -0.0635
34734POPC   C2B62797   8.632  20.425  10.205 -0.1513  0.3997  0.1982
34734POPC   C3B62798   8.290  20.344  10.505  0.0135 -0.2749  0.1515
34734POPC   C4B62799   7.978  20.089  10.694 -0.0375  0.0586 -0.0189
34735POPC   NC362800  13.805  21.370   5.425  0.1668  0.1578  0.0050
34735POPC   PO462801  13.719  21.137   5.703 -0.2347  0.3151  0.4204
34735POPC   GL162802  13.961  21.063   6.002  0.0787 -0.0101  0.0164
34735POPC   GL262803  13.748  21.035   6.209 -0.2121 -0.1053  0.0589
34735POPC   C1A62804  14.309  21.191   6.235 -0.2190 -0.3367  0.4130
34735POPC   D2A62805  14.410  21.409   6.545 -0.1475 -0.0405 -0.4083
34735POPC   C3A62806  14.724  21.400   6.948  0.0810  0.2776  0.0682
34735POPC   C4A62807  14.880  21.102   7.243 -0.2381  0.3520  0.0716
34735POPC   C1B62808  14.107  20.762   6.299 -0.0284  0.2966  0.0932
34735POPC   C2B62809  14.311  20.542   6.646  0.0811 -0.2539 -0.0775
34735POPC   C3B62810  14.614  20.347   6.905  0.3008 -0.0192 -0.1086
34735POPC   C4B62811  14.571  20.297   7.360 -0.2270 -0.1754  0.0676
34736POPC   NC362812   6.550  26.136   5.273  0.0999  0.1470 -0.0926
34736POPC   PO462813   6.428  26.469   5.311  0.0773  0.0686  0.0115
34736POPC   GL162814   6.160  26.768   5.494 -0.0524 -0.1265  0.1781
34736POPC   GL262815   6.007  26.602   5.661  0.1163 -0.1356 -0.1223
34736POPC   C1A62816   5.815  27.045   5.573 -0.0907  0.0862 -0.0095
34736POPC   D2A62817   5.439  27.257   5.731 -0.0985  0.1920 -0.0179
34736POPC   C3A62818   5.238  27.106   6.049  0.3680 -0.1034 -0.0676
34736POPC   C4A62819   5.256  27.287   6.490 -0.0057 -0.2592 -0.2934
34736POPC   C1B62820   5.930  26.907   6.040 -0.1979  0.0228  0.0849
34736POPC   C2B62821   5.951  27.007   6.476 -0.0784  0.2681  0.2321
34736POPC   C3B62822   5.988  27.043   6.903 -0.2961  0.0545  0.2503
34736POPC   C4B62823   5.733  27.123   7.215 -0.3033  0.1944  0.1817
34737POPC   NC362824   8.765  23.521   9.954 -0.1208  0.0140  0.3723
34737POPC   PO462825   9.042  23.650  10.117 -0.1248  0.2689 -0.0039
34737POPC   GL162826   8.978  24.002  10.315 -0.0371 -0.1826  0.0345
34737POPC   GL262827   8.697  23.947  10.412  0.1741  0.2565 -0.3520
34737POPC   C1A62828   9.015  24.452  10.545 -0.0600  0.0845  0.0306
34737POPC   D2A62829   9.050  24.768  10.823 -0.1285 -0.2139  0.2618
34737POPC   C3A62830   8.792  24.894  11.155  0.0559  0.1751  0.1063
34737POPC   C4A62831   8.952  24.857  11.574  0.0197  0.0906 -0.1770
34737POPC   C1B62832   8.391  24.222  10.224 -0.0075 -0.0022  0.1285
34737POPC   C2B62833   8.240  24.462   9.950 -0.0729 -0.2463 -0.4388
34737POPC   C3B62834   7.956  24.537   9.640  0.0608 -0.1200  0.0912
34737POPC   C4B62835   7.795  24.386   9.215 -0.2238  0.0539  0.1004
34738POPC   NC362836   6.497  22.623   6.979  0.0966  0.0187  0.0623
34738POPC   PO462837   6.364  22.658   7.326 -0.0893 -0.0174  0.0058
34738POPC   GL162838   6.255  22.582   7.722 -0.6673 -0.0916 -0.0487
34738POPC   GL262839   6.465  22.412   7.767 -0.2055 -0.1801  0.1893
34738POPC   C1A62840   5.966  22.699   8.011 -0.1401  0.1351 -0.1999
34738POPC   D2A62841   5.858  22.595   8.490 -0.3639  0.1308 -0.0899
34738POPC   C3A62842   5.762  22.279   8.823  0.0063  0.1242  0.0558
34738POPC   C4A62843   5.660  21.856   9.106  0.2378 -0.2279  0.2461
34738POPC   C1B62844   6.393  21.969   8.032 -0.0123  0.1115  0.3200
34738POPC   C2B62845   6.264  21.647   8.364  0.2552  0.0356 -0.0291
34738POPC   C3B62846   6.016  21.712   8.769  0.0780  0.0243  0.0894
34738POPC   C4B62847   6.159  21.791   9.194 -0.1563 -0.0441 -0.2636
34739POPC   NC362848   9.349  31.244   5.029  0.4705 -0.0181  0.0818
34739POPC   PO462849   9.674  31.351   4.868 -0.0344  0.1248 -0.4236
34739POPC   GL162850   9.802  31.333   5.266  0.2367 -0.0393  0.2629
34739POPC   GL262851   9.876  31.048   5.315  0.0236 -0.1353 -0.1662
34739POPC   C1A62852   9.649  31.279   5.693 -0.2227  0.1830 -0.1331
34739POPC   D2A62853   9.413  31.553   5.999 -0.1771 -0.1626  0.1663
34739POPC   C3A62854   9.436  32.013   6.161 -0.1993 -0.1657  0.1572
34739POPC   C4A62855   9.208  32.194   6.500 -0.0049 -0.0362  0.0850
34739POPC   C1B62856  10.132  31.096   5.699 -0.1035 -0.1130  0.1096
34739POPC   C2B62857  10.140  31.250   6.104 -0.4336  0.0491  0.1012
34739POPC   C3B62858  10.170  31.304   6.535  0.0638 -0.4273  0.0945
34739POPC   C4B62859   9.877  31.562   6.753  0.0707 -0.3609  0.0785
34740POPC   NC362860   6.830  18.463   5.888 -0.1041 -0.2631 -0.0016
34740POPC   PO462861   7.034  18.316   5.614  0.3530 -0.0976 -0.2163
34740POPC   GL162862   7.085  18.099   6.016 -0.0914  0.2942  0.5537
34740POPC   GL262863   7.098  17.852   5.860  0.2354 -0.0233  0.1662
34740POPC   C1A62864   6.686  17.967   6.205 -0.0278 -0.0546 -0.1468
34740POPC   D2A62865   6.651  17.850   6.625 -0.0520  0.0731  0.0912
34740POPC   C3A62866   6.957  17.634   6.912  0.0418 -0.1983 -0.0876
34740POPC   C4A62867   7.238  17.799   7.297 -0.0514 -0.2119  0.0505
34740POPC   C1B62868   7.171  17.550   6.197 -0.0911 -0.2621 -0.2765
34740POPC   C2B62869   6.877  17.346   6.472  0.1686  0.0272  0.2309
34740POPC   C3B62870   6.832  17.022   6.822  0.0825  0.0881  0.0168
34740POPC   C4B62871   6.477  16.729   6.997  0.0107 -0.4316 -0.0975
34741POPC   NC362872   7.642  28.298   5.373 -0.0897  0.1736  0.0528
34741POPC   PO462873   7.460  27.926   5.302  0.3233 -0.2027  0.2998
34741POPC   GL162874   7.592  27.949   5.709  0.2758 -0.4902  0.0821
34741POPC   GL262875   7.303  27.976   5.823 -0.0255 -0.0012  0.3091
34741POPC   C1A62876   7.656  28.359   5.909  0.3693 -0.1372  0.1925
34741POPC   D2A62877   7.778  28.789   5.811  0.2692  0.0995 -0.2589
34741POPC   C3A62878   7.820  29.053   6.212 -0.0584 -0.0010 -0.1719
34741POPC   C4A62879   7.569  29.474   6.377 -0.0356 -0.0383  0.0222
34741POPC   C1B62880   7.221  28.226   6.210  0.3263 -0.1205 -0.0775
34741POPC   C2B62881   6.876  28.520   6.208  0.2349 -0.1716  0.1523
34741POPC   C3B62882   6.750  28.686   6.657  0.1750  0.0448 -0.0683
34741POPC   C4B62883   6.445  28.567   7.003  0.0827 -0.3774  0.1235
34742POPC   NC362884  10.190  25.975   6.724  0.0504  0.1729  0.2076
34742POPC   PO462885  10.218  25.678   6.966 -0.2329  0.1084 -0.0991
34742POPC   GL162886  10.105  25.984   7.174  0.1790  0.1543 -0.2666
34742POPC   GL262887  10.090  25.828   7.462 -0.0761  0.3220  0.0934
34742POPC   C1A62888  10.449  26.187   7.469 -0.0479 -0.1617  0.0225
34742POPC   D2A62889  10.485  26.654   7.476 -0.1574  0.1836 -0.1603
34742POPC   C3A62890  10.559  27.091   7.590 -0.2189 -0.0647  0.2119
34742POPC   C4A62891  10.823  27.415   7.802 -0.0682 -0.1271 -0.1690
34742POPC   C1B62892  10.002  26.239   7.588  0.1037 -0.1261 -0.0381
34742POPC   C2B62893  10.271  26.375   7.932 -0.0722  0.0712  0.1405
34742POPC   C3B62894  10.199  26.480   8.349  0.0778  0.1529  0.1402
34742POPC   C4B62895  10.022  26.717   8.705  0.0719  0.2937  0.0283
34743POPC   NC362896   7.544  23.247   7.552 -0.1632 -0.0090  0.2059
34743POPC   PO462897   7.252  23.122   7.762  0.2272  0.0479 -0.2321
34743POPC   GL162898   7.017  23.239   8.141 -0.0985  0.3321 -0.0562
34743POPC   GL262899   6.820  23.347   8.006 -0.1151  0.2954  0.2150
34743POPC   C1A62900   7.139  23.578   8.460  0.1738  0.0433 -0.1339
34743POPC   D2A62901   7.128  23.919   8.754  0.1259  0.3498 -0.5714
34743POPC   C3A62902   6.815  23.970   9.135  0.0343  0.0522  0.2553
34743POPC   C4A62903   6.433  23.989   9.390 -0.1470 -0.0286  0.0408
34743POPC   C1B62904   6.449  23.418   8.347  0.3852 -0.3099  0.0497
34743POPC   C2B62905   6.044  23.485   8.584  0.1602 -0.1388 -0.1670
34743POPC   C3B62906   5.659  23.474   8.829 -0.1250  0.0388 -0.1038
34743POPC   C4B62907   5.245  23.744   8.921  0.1819  0.1284  0.0797
34744POPC   NC362908  12.327  20.053   6.104 -0.2107 -0.1380 -0.0707
34744POPC   PO462909  12.672  19.863   5.969  0.1406  0.2415 -0.0091
34744POPC   GL162910  12.762  19.972   6.318  0.4294  0.0639  0.0945
34744POPC   GL262911  12.704  19.669   6.426  0.0841  0.1563  0.1876
34744POPC   C1A62912  13.124  20.018   6.652  0.1448  0.1539 -0.1492
34744POPC   D2A62913  13.116  20.098   7.133 -0.1098  0.3100  0.2349
34744POPC   C3A62914  12.753  19.916   7.353  0.3469 -0.1424  0.0003
34744POPC   C4A62915  12.393  19.613   7.343 -0.1519 -0.3261  0.0103
34744POPC   C1B62916  13.043  19.520   6.662  0.0187 -0.0325 -0.1246
34744POPC   C2B62917  13.297  19.160   6.783  0.6378  0.4794  0.1386
34744POPC   C3B62918  13.262  18.699   6.910  0.3819 -0.2996  0.0866
34744POPC   C4B62919  13.028  18.264   7.084  0.2872 -0.0589  0.0123
34745POPC   NC362920   9.818  27.303   6.289 -0.0835 -0.1636  0.1308
34745POPC   PO462921   9.546  27.577   6.207 -0.2780  0.1184  0.3552
34745POPC   GL162922   9.473  27.909   6.493  0.2853 -0.0519 -0.1743
34745POPC   GL262923   9.776  27.929   6.620 -0.7250  0.2471  0.0956
34745POPC   C1A62924   9.312  28.093   6.854  0.0898 -0.4420  0.0679
34745POPC   D2A62925   9.271  28.448   7.161 -0.2044  0.3667  0.3367
34745POPC   C3A62926   8.843  28.346   7.220 -0.1523 -0.1070 -0.3567
34745POPC   C4A62927   8.588  28.014   7.439 -0.2236 -0.1631  0.0715
34745POPC   C1B62928  10.180  27.954   6.922 -0.0178 -0.1334  0.0504
34745POPC   C2B62929  10.484  28.237   7.033  0.0335  0.2750  0.1003
34745POPC   C3B62930  10.919  28.244   7.225  0.0562 -0.2692  0.0419
34745POPC   C4B62931  11.387  28.132   7.277  0.0379 -0.3376  0.1125
34746POPC   NC362932  10.634  23.698   7.889  0.1574  0.0057  0.0536
34746POPC   PO462933  10.976  23.834   7.838 -0.1315  0.4042 -0.2081
34746POPC   GL162934  11.243  24.181   7.853 -0.0398 -0.0027  0.0350
34746POPC   GL262935  11.487  23.973   7.898 -0.1383 -0.1776  0.1367
34746POPC   C1A62936  11.525  24.515   7.994  0.0583 -0.0914  0.2604
34746POPC   D2A62937  11.929  24.818   7.977  0.0691  0.2464 -0.0064
34746POPC   C3A62938  12.086  24.889   8.440 -0.2463  0.0811  0.3458
34746POPC   C4A62939  12.302  24.855   8.837 -0.2012 -0.2004 -0.3465
34746POPC   C1B62940  11.705  24.105   8.255  0.1396 -0.0902 -0.1814
34746POPC   C2B62941  11.783  24.190   8.688  0.2056  0.0544  0.0590
34746POPC   C3B62942  12.033  23.980   9.061 -0.2597  0.2886 -0.2795
34746POPC   C4B62943  12.045  24.083   9.506  0.4565  0.0051  0.1162
34747POPC   NC362944   6.753  31.567   4.305 -0.2855  0.0729  0.2441
34747POPC   PO462945   7.070  31.669   4.493  0.1606 -0.1009 -0.0450
34747POPC   GL162946   7.278  31.556   4.808  0.1733 -0.1486 -0.1815
34747POPC   GL262947   7.059  31.305   4.873  0.1002  0.0542  0.1848
34747POPC   C1A62948   7.336  31.882   5.191 -0.1795 -0.0010 -0.2856
34747POPC   D2A62949   7.188  32.133   5.596 -0.2021  0.1441  0.1216
34747POPC   C3A62950   7.197  32.272   6.028 -0.1181  0.0272 -0.1737
34747POPC   C4A62951   7.136  32.318   6.432 -0.1251  0.0633  0.0515
34747POPC   C1B62952   7.318  31.399   5.228 -0.0538 -0.1588  0.0341
34747POPC   C2B62953   7.590  31.570   5.575  0.3671  0.0220  0.0558
34747POPC   C3B62954   7.608  31.440   5.994 -0.0614  0.2479 -0.1572
34747POPC   C4B62955   7.802  31.526   6.427 -0.2652  0.2030 -0.0592
34748POPC   NC362956  15.859  28.519   4.236  0.0969  0.1917  0.0236
34748POPC   PO462957  15.958  28.207   4.426  0.0919  0.2781 -0.3655
34748POPC   GL162958  16.233  28.481   4.614  0.0450 -0.4769 -0.0223
34748POPC   GL262959  15.985  28.626   4.845  0.3581  0.1664  0.1529
34748POPC   C1A62960  16.448  28.816   4.831  0.0341  0.1618  0.2172
34748POPC   D2A62961  16.605  28.835   5.250 -0.1157  0.1497  0.1987
34748POPC   C3A62962  16.396  28.948   5.693 -0.2274 -0.0384  0.2800
34748POPC   C4A62963  16.177  28.936   6.063 -0.1140 -0.1343  0.0200
34748POPC   C1B62964  16.090  28.733   5.269 -0.1316 -0.1205  0.1062
34748POPC   C2B62965  16.056  28.556   5.711 -0.2759  0.2957  0.1810
34748POPC   C3B62966  15.678  28.717   5.919 -0.0241  0.0191 -0.1507
34748POPC   C4B62967  15.341  28.717   6.146  0.1897 -0.1109 -0.0418
34749POPC   NC362968  10.361  24.054   9.088 -0.3624 -0.0668 -0.1992
34749POPC   PO462969  10.551  23.718   9.179 -0.1384  0.0384 -0.1373
34749POPC   GL162970  10.859  23.912   9.242 -0.0221 -0.1256  0.4102
34749POPC   GL262971  10.787  24.216   9.275 -0.0255  0.0246  0.1432
34749POPC   C1A62972  11.051  24.079   9.651  0.0619  0.0977  0.0398
34749POPC   D2A62973  11.327  24.214  10.021 -0.0357 -0.0773 -0.0125
34749POPC   C3A62974  11.490  24.695   9.951  0.0844 -0.0944 -0.1553
34749POPC   C4A62975  11.776  25.021  10.083 -0.0804 -0.1912 -0.1509
34749POPC   C1B62976  10.575  24.535   9.524 -0.1655 -0.2675  0.2776
34749POPC   C2B62977  10.674  24.970   9.649 -0.1704  0.1739 -0.0806
34749POPC   C3B62978  10.803  25.326   9.963 -0.2913 -0.0088  0.2064
34749POPC   C4B62979  10.891  25.400  10.366  0.0081 -0.0291  0.1052
34750POPC   NC362980   7.048  25.449   5.957  0.1026 -0.0107 -0.3334
34750POPC   PO462981   7.435  25.472   5.840  0.1297  0.3183 -0.1572
34750POPC   GL162982   7.452  25.658   6.148  0.0155  0.2229  0.5571
34750POPC   GL262983   7.252  25.975   6.128  0.3126 -0.2229  0.0886
34750POPC   C1A62984   7.579  25.565   6.566  0.1026 -0.1366 -0.2983
34750POPC   D2A62985   7.419  25.856   6.905 -0.1470 -0.0870  0.1157
34750POPC   C3A62986   6.968  25.788   6.918 -0.1545  0.1809 -0.3686
34750POPC   C4A62987   6.525  25.877   6.951  0.1537  0.0438 -0.2107
34750POPC   C1B62988   7.112  26.130   6.574  0.4388  0.1023 -0.3105
34750POPC   C2B62989   7.003  26.244   7.007  0.0607 -0.0194 -0.0438
34750POPC   C3B62990   6.545  26.344   7.149 -0.2021  0.2274  0.2323
34750POPC   C4B62991   6.294  26.580   7.458 -0.2026 -0.0467 -0.1020
34751POPC   NC362992  13.576  24.665   5.584  0.1212  0.1463  0.0751
34751POPC   PO462993  13.798  24.392   5.435 -0.0626  0.3247  0.0350
34751POPC   GL162994  13.992  24.414   5.743  0.1530 -0.1399 -0.0041
34751POPC   GL262995  14.021  24.664   5.875 -0.0350 -0.0772  0.1838
34751POPC   C1A62996  14.351  24.195   5.924 -0.0311  0.3061 -0.1392
34751POPC   D2A62997  14.760  24.001   6.108 -0.0264 -0.3385 -0.1565
34751POPC   C3A62998  14.714  23.747   6.520  0.2182 -0.0270 -0.0489
34751POPC   C4A62999  14.760  23.679   6.954  0.3964 -0.0625 -0.0452
34751POPC   C1B63000  13.934  24.337   6.222  0.0182 -0.1866 -0.2791
34751POPC   C2B63001  13.876  24.320   6.697 -0.1114  0.5087 -0.0438
34751POPC   C3B63002  14.190  24.406   7.076  0.1260 -0.1930 -0.2172
34751POPC   C4B63003  14.582  24.166   7.301 -0.0155 -0.1537  0.0006
34752POPC   NC363004   3.842  30.657   4.530  0.1125 -0.1850  0.0602
34752POPC   PO463005   4.217  30.804   4.431 -0.1687  0.2700 -0.0402
34752POPC   GL163006   4.348  30.899   4.808  0.3091 -0.0705  0.1084
34752POPC   GL263007   4.518  31.196   4.769 -0.5167 -0.0518  0.0309
34752POPC   C1A63008   4.369  30.829   5.264 -0.0593 -0.0021  0.3654
34752POPC   D2A63009   4.069  30.940   5.558 -0.0480 -0.0394  0.1284
34752POPC   C3A63010   3.991  31.372   5.800 -0.3028 -0.1664  0.0423
34752POPC   C4A63011   4.074  31.740   6.062  0.0346 -0.1883  0.1165
34752POPC   C1B63012   4.694  31.160   5.181  0.0456  0.1514  0.2442
34752POPC   C2B63013   4.479  31.253   5.631 -0.3081  0.1992 -0.1666
34752POPC   C3B63014   4.503  31.324   6.089 -0.1606 -0.2072 -0.4720
34752POPC   C4B63015   4.413  31.541   6.435 -0.2291 -0.2467  0.0752
34753POPC   NC363016  31.095  30.788   3.750 -0.0628  0.1409 -0.0938
34753POPC   PO463017  31.399  30.977   3.899  0.1420 -0.1466 -0.2726
34753POPC   GL163018  31.556  30.968   4.214  0.0358 -0.2926 -0.0111
34753POPC   GL263019  31.843  30.943   4.139  0.1156 -0.1872 -0.1790
34753POPC   C1A63020  31.471  31.240   4.603 -0.1796 -0.1380 -0.2730
34753POPC   D2A63021  31.337  31.150   5.034  0.0241 -0.0935 -0.0634
34753POPC   C3A63022  30.878  31.197   5.151 -0.2684 -0.2308  0.1210
34753POPC   C4A63023  30.687  31.262   5.544  0.2645  0.2672  0.1941
34753POPC   C1B63024  31.928  30.886   4.571  0.0904  0.0120 -0.1216
34753POPC   C2B63025  31.843  31.116   4.973 -0.0351  0.0245  0.2026
34753POPC   C3B63026  31.777  31.365   5.333 -0.1628  0.0474 -0.0092
34753POPC   C4B63027  31.865  31.510   5.796  0.0132  0.0912 -0.1096
34754POPC   NC363028   0.430  30.416   3.425  0.0369 -0.0243  0.0107
34754POPC   PO463029   0.551  30.218   3.740 -0.2145 -0.0048 -0.2664
34754POPC   GL163030   0.448  30.260   4.155 -0.4954  0.1019  0.2534
34754POPC   GL263031   0.715  30.348   4.324  0.1066  0.0738  0.0161
34754POPC   C1A63032   0.314  30.278   4.561  0.1149 -0.1646  0.1002
34754POPC   D2A63033   0.596  30.201   4.935  0.0063  0.0022 -0.0926
34754POPC   C3A63034   0.659  30.533   5.307  0.2213  0.3364  0.0606
34754POPC   C4A63035   0.714  30.759   5.718  0.1424 -0.1937 -0.3751
34754POPC   C1B63036   0.765  29.977   4.558  0.0689 -0.1723  0.2233
34754POPC   C2B63037   1.026  29.905   4.896 -0.0357 -0.1231  0.0394
34754POPC   C3B63038   1.024  30.158   5.262  0.2070  0.3294 -0.1725
34754POPC   C4B63039   0.876  30.292   5.670 -0.1081 -0.2586  0.0272
34755POPC   NC363040   9.281  23.526  10.985  0.1699  0.1973 -0.1137
34755POPC   PO463041   9.114  23.628  10.637  0.0697 -0.1240 -0.2803
34755POPC   GL163042   8.775  23.507  10.781  0.2785  0.1410  0.2961
34755POPC   GL263043   8.728  23.537  11.048  0.0644 -0.2270 -0.2557
34755POPC   C1A63044   8.301  23.428  10.877 -0.5741 -0.1352 -0.1277
34755POPC   D2A63045   7.859  23.512  10.703 -0.1885  0.0392  0.0166
34755POPC   C3A63046   7.553  23.393  11.036 -0.2572 -0.3925 -0.0298
34755POPC   C4A63047   7.107  23.250  11.181  0.2390 -0.4024  0.2035
34755POPC   C1B63048   8.515  23.874  10.850 -0.2169  0.1225 -0.1951
34755POPC   C2B63049   8.211  24.212  10.760 -0.1661  0.1533  0.1576
34755POPC   C3B63050   8.151  24.685  10.879  0.3623 -0.0408 -0.2693
34755POPC   C4B63051   8.105  25.016  11.155  0.1500  0.3088 -0.1089
34756POPC   NC363052  17.398  31.755   3.842  0.0160  0.0484  0.0456
34756POPC   PO463053  17.568  31.627   4.152  0.1658  0.2519 -0.1029
34756POPC   GL163054  17.721  31.751   4.485 -0.2084 -0.0665 -0.2117
34756POPC   GL263055  17.746  31.473   4.612  0.0215  0.0125 -0.0440
34756POPC   C1A63056  17.963  31.830   4.911  0.0071  0.0387  0.0760
34756POPC   D2A63057  18.299  32.086   5.084  0.5134 -0.2345 -0.0562
34756POPC   C3A63058  18.410  32.091   5.551  0.0679 -0.0071  0.0539
34756POPC   C4A63059  18.717  31.820   5.796  0.0249  0.1685 -0.1037
34756POPC   C1B63060  17.700  31.346   5.068  0.3598  0.1124  0.0766
34756POPC   C2B63061  17.792  31.214   5.499  0.2210  0.2855  0.1188
34756POPC   C3B63062  17.567  30.862   5.688  0.0503 -0.1389 -0.1275
34756POPC   C4B63063  17.236  30.811   5.968 -0.4171  0.4092 -0.0094
34757POPC   NC363064   3.677  16.725   4.450  0.0347  0.0773 -0.3959
34757POPC   PO463065   3.317  16.879   4.464 -0.2104 -0.2936  0.3320
34757POPC   GL163066   3.205  17.023   4.808  0.1265 -0.3722  0.0715
34757POPC   GL263067   3.249  17.225   5.000  0.0815  0.1472 -0.0135
34757POPC   C1A63068   3.153  16.836   5.231  0.0236  0.0265 -0.1285
34757POPC   D2A63069   3.298  16.962   5.648 -0.0078 -0.1895  0.2403
34757POPC   C3A63070   3.500  16.817   6.021  0.0646  0.0169 -0.2252
34757POPC   C4A63071   3.397  16.707   6.507 -0.4028  0.2824  0.1117
34757POPC   C1B63072   3.329  17.410   5.410  0.4180 -0.3087 -0.0781
34757POPC   C2B63073   3.384  17.357   5.878 -0.0707 -0.3850 -0.1068
34757POPC   C3B63074   3.291  17.180   6.309 -0.1335 -0.0274 -0.3602
34757POPC   C4B63075   2.937  17.152   6.567 -0.1280 -0.0978  0.1346
34758POPC   NC363076   5.849  22.391   6.454  0.2815 -0.3290  0.2713
34758POPC   PO463077   6.121  22.658   6.620  0.0508  0.0192 -0.0817
34758POPC   GL163078   6.080  22.779   6.998 -0.1450 -0.1086 -0.0543
34758POPC   GL263079   5.904  22.704   7.210  0.0490 -0.0148 -0.2979
34758POPC   C1A63080   5.817  23.219   7.046 -0.2296  0.0459  0.1834
34758POPC   D2A63081   5.485  23.292   7.318  0.0455 -0.3907  0.1390
34758POPC   C3A63082   5.164  23.401   7.664 -0.0214  0.1693  0.1097
34758POPC   C4A63083   4.774  23.518   7.880  0.4034 -0.0374  0.0066
34758POPC   C1B63084   5.756  22.942   7.542 -0.1279  0.3195  0.2285
34758POPC   C2B63085   5.525  23.030   7.922 -0.0728  0.2691  0.2181
34758POPC   C3B63086   5.467  22.873   8.323  0.1908 -0.0400 -0.1644
34758POPC   C4B63087   5.478  22.915   8.775  0.1501  0.0762 -0.0852
34759POPC   NC363088  14.022  28.063   4.565 -0.0956 -0.0094 -0.0959
34759POPC   PO463089  14.076  28.384   4.837 -0.1901  0.1078 -0.0541
34759POPC   GL163090  13.965  28.218   5.193 -0.1721  0.0331 -0.1467
34759POPC   GL263091  14.138  28.552   5.277  0.2517  0.0489 -0.1016
34759POPC   C1A63092  13.908  28.367   5.610  0.2078  0.2429 -0.1237
34759POPC   D2A63093  13.596  28.499   5.945  0.1741 -0.1675 -0.2237
34759POPC   C3A63094  13.615  28.735   6.333  0.2843 -0.1370 -0.2120
34759POPC   C4A63095  13.493  29.086   6.641 -0.1139 -0.0165  0.1851
34759POPC   C1B63096  14.266  28.696   5.699  0.0626 -0.1068 -0.0120
34759POPC   C2B63097  14.485  28.928   6.034 -0.1506 -0.0368  0.1259
34759POPC   C3B63098  14.581  29.311   6.252  0.2487 -0.3531  0.0370
34759POPC   C4B63099  14.429  29.747   6.406  0.2503  0.4432 -0.0019
34760POPC   NC363100  13.525  20.044   5.437 -0.0577 -0.3422  0.2418
34760POPC   PO463101  13.823  19.798   5.473 -0.0901 -0.0592 -0.1716
34760POPC   GL163102  14.011  19.383   5.576 -0.0637 -0.0288  0.0240
34760POPC   GL263103  14.295  19.466   5.540 -0.1674  0.0894  0.0402
34760POPC   C1A63104  13.912  19.114   5.923 -0.1989 -0.2004 -0.2086
34760POPC   D2A63105  14.040  18.906   6.347  0.1862 -0.2227  0.1665
34760POPC   C3A63106  13.731  18.848   6.715 -0.1669  0.1241  0.3561
34760POPC   C4A63107  13.682  18.413   6.945 -0.0913 -0.1197  0.0110
34760POPC   C1B63108  14.369  19.353   5.998 -0.1429 -0.0113  0.1393
34760POPC   C2B63109  14.424  19.297   6.445 -0.0840 -0.1746 -0.2522
34760POPC   C3B63110  14.411  19.106   6.792  0.1311 -0.0334 -0.4501
34760POPC   C4B63111  14.078  18.953   7.072 -0.1624 -0.0365  0.0398
34761POPC   NC363112   4.574  19.379   5.159  0.2659 -0.1169  0.0220
34761POPC   PO463113   4.721  19.579   5.509 -0.2033 -0.1159  0.0404
34761POPC   GL163114   4.607  19.436   5.795  0.1216  0.3455  0.2637
34761POPC   GL263115   4.435  19.588   5.949  0.1747 -0.1399 -0.0798
34761POPC   C1A63116   4.649  18.975   5.958 -0.0046  0.1058  0.0010
34761POPC   D2A63117   4.376  18.653   6.230 -0.1833 -0.2515 -0.0926
34761POPC   C3A63118   4.473  18.289   6.571 -0.1137 -0.1708  0.0933
34761POPC   C4A63119   4.172  18.046   6.842 -0.0907 -0.3880 -0.0932
34761POPC   C1B63120   4.708  19.480   6.308 -0.0601 -0.1458  0.0127
34761POPC   C2B63121   4.793  19.680   6.715  0.0011  0.2228  0.0564
34761POPC   C3B63122   4.626  19.782   7.107 -0.3205  0.1179 -0.2088
34761POPC   C4B63123   4.786  19.706   7.564 -0.0778  0.0910  0.1008
34762POPC   NC363124   6.290  25.774   5.648  0.1684 -0.1481  0.3525
34762POPC   PO463125   6.265  26.165   5.679 -0.0413  0.2425 -0.0196
34762POPC   GL163126   6.475  26.470   5.884  0.1384 -0.0465  0.0198
34762POPC   GL263127   6.423  26.305   6.125  0.1641 -0.0438 -0.0204
34762POPC   C1A63128   6.396  26.779   6.245  0.0816  0.0819 -0.0545
34762POPC   D2A63129   6.419  27.074   6.577  0.2202 -0.4288  0.1266
34762POPC   C3A63130   6.170  27.446   6.513 -0.0356 -0.0256 -0.2349
34762POPC   C4A63131   5.791  27.426   6.749  0.1559  0.0136  0.1259
34762POPC   C1B63132   5.988  26.342   6.275 -0.0603  0.0247  0.3630
34762POPC   C2B63133   5.757  26.514   6.627  0.1215  0.3320 -0.1110
34762POPC   C3B63134   5.810  26.607   7.054  0.1849  0.1790 -0.3280
34762POPC   C4B63135   5.410  26.711   7.290 -0.1339  0.0380  0.3401
34763POPC   NC363136  13.025  22.261   6.300  0.0981  0.3007  0.0405
34763POPC   PO463137  13.303  21.961   6.320  0.0899  0.0535 -0.1117
34763POPC   GL163138  13.381  22.172   6.583 -0.0959  0.3260 -0.0100
34763POPC   GL263139  13.657  22.316   6.487  0.0448 -0.0945  0.1243
34763POPC   C1A63140  13.490  22.050   6.992 -0.1573 -0.1936  0.0855
34763POPC   D2A63141  13.705  22.246   7.373  0.4262  0.1727 -0.0778
34763POPC   C3A63142  13.862  21.939   7.572 -0.1284 -0.0607  0.1759
34763POPC   C4A63143  14.298  21.832   7.444 -0.2726 -0.0565 -0.2283
34763POPC   C1B63144  13.746  22.536   6.891  0.0321 -0.0224 -0.1317
34763POPC   C2B63145  13.921  22.812   7.188  0.3407 -0.1280 -0.0758
34763POPC   C3B63146  14.102  22.711   7.575 -0.1480 -0.1167  0.2097
34763POPC   C4B63147  14.259  22.878   7.950  0.2197 -0.4336 -0.2110
34764POPC   NC363148   7.970  30.103   4.818  0.0590  0.0276 -0.3358
34764POPC   PO463149   8.183  30.392   4.668  0.0407  0.1838 -0.1014
34764POPC   GL163150   8.438  30.337   5.004 -0.2232  0.2728 -0.1967
34764POPC   GL263151   8.413  30.105   5.182 -0.2843  0.1765  0.1030
34764POPC   C1A63152   8.563  30.504   5.396 -0.1628 -0.0482  0.0280
34764POPC   D2A63153   8.631  30.465   5.891 -0.4068 -0.0197  0.2637
34764POPC   C3A63154   8.872  30.698   6.143 -0.0829  0.0276 -0.3359
34764POPC   C4A63155   8.927  30.533   6.596  0.1218 -0.0322 -0.0802
34764POPC   C1B63156   8.255  30.167   5.588  0.4308 -0.2640  0.0061
34764POPC   C2B63157   8.404  30.022   6.046 -0.1077 -0.3408  0.1311
34764POPC   C3B63158   8.531  30.356   6.357 -0.1356 -0.1479  0.0322
34764POPC   C4B63159   8.464  30.747   6.512  0.2044 -0.0343  0.0824
34765POPC   NC363160   1.855  29.563   3.406 -0.0008 -0.2942  0.2526
34765POPC   PO463161   1.839  29.616   3.779  0.0924 -0.0073 -0.0144
34765POPC   GL163162   1.582  29.508   4.059 -0.0148  0.1177 -0.0024
34765POPC   GL263163   1.338  29.649   4.035  0.0894  0.1277 -0.0559
34765POPC   C1A63164   1.322  29.217   4.365  0.0195  0.2987  0.1564
34765POPC   D2A63165   1.061  28.885   4.568  0.1619 -0.3346  0.1485
34765POPC   C3A63166   0.869  29.029   4.923 -0.1185 -0.2498  0.2210
34765POPC   C4A63167   0.739  29.331   5.228  0.0201  0.0663  0.0198
34765POPC   C1B63168   1.074  29.656   4.413  0.1281  0.2668 -0.1607
34765POPC   C2B63169   1.180  29.422   4.808  0.1606  0.4096  0.1107
34765POPC   C3B63170   1.351  29.631   5.264 -0.0300  0.0212 -0.1822
34765POPC   C4B63171   1.831  29.798   5.330  0.2309 -0.2473 -0.2914
34766POPC   NC363172   9.839  21.642   9.051  0.2330 -0.0706  0.0486
34766POPC   PO463173   9.695  21.369   9.280  0.3133  0.2541 -0.2170
34766POPC   GL163174   9.801  21.060   9.514 -0.1637  0.0698 -0.3810
34766POPC   GL263175   9.561  20.924   9.654  0.3423 -0.0149 -0.0305
34766POPC   C1A63176   9.914  20.583   9.505  0.0402  0.0403  0.1056
34766POPC   D2A63177  10.132  20.184   9.585  0.0069  0.4416 -0.2053
34766POPC   C3A63178   9.938  19.790   9.719 -0.0711 -0.0883  0.0295
34766POPC   C4A63179   9.542  19.556   9.748  0.1507 -0.3941  0.1400
34766POPC   C1B63180   9.759  20.720  10.012  0.0853 -0.0162  0.0994
34766POPC   C2B63181   9.687  20.457  10.379  0.1726 -0.0283  0.0279
34766POPC   C3B63182   9.441  20.092  10.599  0.2152 -0.0755  0.2885
34766POPC   C4B63183   9.150  19.789  10.825 -0.2289 -0.2541 -0.3500
34767POPC   NC363184  14.582  26.148   4.985  0.0772  0.2173  0.1351
34767POPC   PO463185  14.529  25.820   5.235  0.1712 -0.0219 -0.0079
34767POPC   GL163186  14.657  26.065   5.432 -0.0492  0.3712 -0.1947
34767POPC   GL263187  14.906  26.006   5.640 -0.0605 -0.2770  0.1446
34767POPC   C1A63188  14.574  26.295   5.864  0.1051  0.1193  0.1663
34767POPC   D2A63189  14.706  26.766   5.848  0.1733 -0.1062 -0.1533
34767POPC   C3A63190  15.073  26.932   6.072 -0.1527  0.0907  0.0699
34767POPC   C4A63191  15.392  27.216   6.036  0.0854  0.0989 -0.1038
34767POPC   C1B63192  15.095  25.910   6.030 -0.1401  0.2019 -0.2750
34767POPC   C2B63193  15.270  26.004   6.446  0.0033 -0.0014 -0.1859
34767POPC   C3B63194  15.312  26.196   6.857 -0.1855 -0.1632  0.1566
34767POPC   C4B63195  15.165  26.297   7.247 -0.0825 -0.2105  0.0076
34768POPC   NC363196  32.786  32.122   3.916  0.2312 -0.2725 -0.1621
34768POPC   PO463197  32.916  31.758   4.033 -0.1979 -0.2438 -0.0246
34768POPC   GL163198  32.863  31.961   4.383  0.2653  0.2238 -0.0274
34768POPC   GL263199  32.869  32.088   4.602  0.2106 -0.1341 -0.1811
34768POPC   C1A63200  32.898  31.551   4.696  0.0596  0.1346  0.1563
34768POPC   D2A63201  32.806  31.147   4.834 -0.0481 -0.1717 -0.2438
34768POPC   C3A63202  32.815  30.722   4.827  0.2547 -0.0340  0.2555
34768POPC   C4A63203  32.987  30.427   5.091 -0.0700  0.1038  0.1574
34768POPC   C1B63204  32.744  32.263   4.995 -0.0143  0.2299 -0.0036
34768POPC   C2B63205  32.681  32.126   5.435  0.0436 -0.1883  0.3077
34768POPC   C3B63206  32.819  31.772   5.746  0.1978 -0.1678 -0.0084
34768POPC   C4B63207  32.856  31.555   6.134 -0.2043  0.0914  0.1475
34769POPC   NC363208  11.971  26.769   5.706  0.0244  0.0714  0.0818
34769POPC   PO463209  11.619  26.871   5.877  0.0537 -0.1070  0.1167
34769POPC   GL163210  11.851  27.071   6.142  0.3457 -0.1479 -0.2074
34769POPC   GL263211  12.173  27.052   6.136  0.1454  0.3741  0.0305
34769POPC   C1A63212  11.697  27.493   6.153 -0.1763  0.0891 -0.0144
34769POPC   D2A63213  11.568  27.761   6.585 -0.0787  0.3036  0.0654
34769POPC   C3A63214  11.148  27.921   6.721 -0.1528 -0.0210  0.1351
34769POPC   C4A63215  10.717  27.796   6.910  0.1886  0.0726  0.2226
34769POPC   C1B63216  12.149  27.148   6.595  0.1161 -0.0483 -0.0848
34769POPC   C2B63217  11.865  27.331   6.906  0.4623  0.2715 -0.1849
34769POPC   C3B63218  11.620  27.550   7.210  0.1806 -0.1578  0.0144
34769POPC   C4B63219  11.323  27.507   7.601 -0.1129 -0.0892  0.2119
34770POPC   NC363220   3.576  18.541   5.177 -0.2183 -0.1893 -0.0655
34770POPC   PO463221   3.568  18.154   5.186  0.0202  0.1459  0.3080
34770POPC   GL163222   3.417  18.255   5.519  0.1826  0.1666 -0.3550
34770POPC   GL263223   3.762  18.398   5.617  0.1751  0.1040  0.1702
34770POPC   C1A63224   3.374  18.472   5.922 -0.0066 -0.2043 -0.3333
34770POPC   D2A63225   3.338  18.595   6.378  0.2869  0.3440 -0.2073
34770POPC   C3A63226   3.212  18.987   6.602  0.0192  0.0792 -0.0237
34770POPC   C4A63227   3.174  19.164   7.005  0.0728 -0.1387 -0.0808
34770POPC   C1B63228   3.955  18.195   5.970 -0.1561 -0.2436 -0.2584
34770POPC   C2B63229   3.919  18.331   6.404 -0.2356  0.0581 -0.0143
34770POPC   C3B63230   3.856  18.603   6.790  0.2089 -0.1187  0.0339
34770POPC   C4B63231   3.963  18.623   7.270 -0.0194  0.2985  0.1090
34771POPC   NC363232  32.167  29.089   3.772  0.0790  0.0699  0.1430
34771POPC   PO463233  31.851  29.126   3.983  0.1968  0.0026  0.0205
34771POPC   GL163234  31.846  29.299   4.342 -0.1214  0.2395  0.2681
34771POPC   GL263235  31.586  29.466   4.331 -0.2536 -0.0033 -0.2899
34771POPC   C1A63236  31.632  29.165   4.746 -0.0173  0.0764  0.0757
34771POPC   D2A63237  31.283  29.162   5.039 -0.1816  0.1075  0.3015
34771POPC   C3A63238  31.220  29.281   5.490  0.1812  0.1875 -0.1369
34771POPC   C4A63239  30.960  29.147   5.865 -0.0809 -0.2565  0.0553
34771POPC   C1B63240  31.708  29.820   4.649 -0.1870  0.1043 -0.0346
34771POPC   C2B63241  31.623  30.109   4.997  0.4042  0.2572  0.0506
34771POPC   C3B63242  31.608  30.361   5.397  0.0930 -0.0591  0.0964
34771POPC   C4B63243  31.365  30.628   5.728 -0.1284 -0.0906  0.0083
34772POPC   NC363244  10.313  21.004   8.554 -0.3835 -0.1477  0.3201
34772POPC   PO463245  10.598  21.279   8.704 -0.1537 -0.3818  0.0232
34772POPC   GL163246  10.528  20.987   8.957  0.2498 -0.3684  0.0359
34772POPC   GL263247  10.644  21.090   9.153  0.0043 -0.0435 -0.3515
34772POPC   C1A63248  10.520  20.587   8.857 -0.0284 -0.0817 -0.2086
34772POPC   D2A63249  10.358  20.112   8.881 -0.0115  0.2458  0.2849
34772POPC   C3A63250  10.471  19.708   8.720  0.1276  0.0199 -0.0787
34772POPC   C4A63251  10.558  19.277   8.928 -0.2011 -0.0894  0.2058
34772POPC   C1B63252  11.147  20.991   9.316  0.1121 -0.1746 -0.0446
34772POPC   C2B63253  11.525  20.714   9.447 -0.0240 -0.1324  0.0300
34772POPC   C3B63254  11.859  20.390   9.616  0.1025 -0.0356 -0.2199
34772POPC   C4B63255  12.278  20.188   9.688  0.1067 -0.3753  0.3374
34773POPC   NC363256   8.276  23.781   7.690  0.1864 -0.0129  0.2387
34773POPC   PO463257   8.298  23.698   8.105 -0.1010 -0.1288 -0.1505
34773POPC   GL163258   8.203  24.151   8.005 -0.0295 -0.1232 -0.0410
34773POPC   GL263259   8.333  24.264   8.232  0.2604 -0.1927 -0.1087
34773POPC   C1A63260   7.890  24.465   8.197 -0.1287  0.0565  0.0048
34773POPC   D2A63261   7.517  24.521   8.215  0.2377  0.1484  0.1942
34773POPC   C3A63262   7.173  24.444   8.540  0.1692  0.1690  0.2414
34773POPC   C4A63263   6.817  24.377   8.859 -0.0749 -0.2549 -0.0304
34773POPC   C1B63264   8.268  24.741   8.124 -0.1110 -0.3546  0.2838
34773POPC   C2B63265   8.082  25.105   8.405  0.1979  0.0874  0.1175
34773POPC   C3B63266   7.826  25.342   8.765 -0.1273  0.0339  0.2934
34773POPC   C4B63267   7.814  25.533   9.124 -0.2108  0.0549  0.1686
34774POPC   NC363268  15.070  22.427   5.356  0.1188 -0.1057 -0.1622
34774POPC   PO463269  14.695  22.316   5.398 -0.0387 -0.1083 -0.0501
34774POPC   GL163270  14.697  22.319   5.771 -0.0088 -0.1574  0.2617
34774POPC   GL263271  14.479  22.331   5.951 -0.1850 -0.0549  0.1860
34774POPC   C1A63272  15.028  22.024   6.022  0.1034 -0.2050 -0.3549
34774POPC   D2A63273  15.185  21.564   6.046  0.0667 -0.0727 -0.3365
34774POPC   C3A63274  15.192  21.255   6.402 -0.0594 -0.0341 -0.1938
34774POPC   C4A63275  15.256  21.271   6.875 -0.0744  0.1342 -0.0184
34774POPC   C1B63276  14.547  22.350   6.419 -0.1789 -0.2360  0.0249
34774POPC   C2B63277  14.287  22.404   6.773 -0.2663  0.0273 -0.3277
34774POPC   C3B63278  14.148  22.336   7.195 -0.1683  0.0598  0.0540
34774POPC   C4B63279  14.285  22.239   7.649  0.0428 -0.0118 -0.2365
34775POPC   NC363280  10.868  29.964   4.692 -0.0216  0.1531 -0.1408
34775POPC   PO463281  11.261  29.927   4.613  0.0824 -0.0933 -0.1113
34775POPC   GL163282  11.399  29.986   4.930  0.3106 -0.1752 -0.0943
34775POPC   GL263283  11.443  30.263   4.942  0.3681 -0.0263  0.0745
34775POPC   C1A63284  11.373  30.011   5.406 -0.0155 -0.0840 -0.5145
34775POPC   D2A63285  11.294  29.906   5.864  0.0035 -0.1935 -0.4890
34775POPC   C3A63286  11.675  30.114   6.019 -0.0120  0.0489 -0.0933
34775POPC   C4A63287  12.029  29.950   6.269 -0.3377  0.1608  0.0717
34775POPC   C1B63288  11.871  30.168   5.080  0.2413  0.0823  0.0629
34775POPC   C2B63289  12.169  30.379   5.339 -0.0414 -0.1196 -0.3621
34775POPC   C3B63290  12.604  30.465   5.240 -0.4294  0.0515  0.0315
34775POPC   C4B63291  12.966  30.285   5.204  0.0106 -0.1231  0.0998
34776POPC   NC363292   9.502  21.564  12.523 -0.0391  0.0690  0.2126
34776POPC   PO463293   9.238  21.823  12.556  0.0069  0.1963  0.0692
34776POPC   GL163294   8.925  21.745  12.472  0.0466 -0.1619 -0.1518
34776POPC   GL263295   8.981  21.579  12.244  0.1835  0.1149 -0.2653
34776POPC   C1A63296   8.466  21.723  12.427 -0.0242 -0.1251 -0.2505
34776POPC   D2A63297   8.129  21.567  12.723  0.1429  0.2291 -0.2148
34776POPC   C3A63298   7.825  21.225  12.569 -0.0024 -0.2401  0.0068
34776POPC   C4A63299   7.504  21.094  12.239  0.1161 -0.4838 -0.0096
34776POPC   C1B63300   8.659  21.224  12.224  0.1272 -0.1608  0.0854
34776POPC   C2B63301   8.278  20.942  12.248 -0.0992  0.2160  0.0316
34776POPC   C3B63302   7.845  20.806  12.074 -0.1524  0.2382 -0.1925
34776POPC   C4B63303   7.601  20.552  11.774 -0.3172  0.2689 -0.0296
34777POPC   NC363304   1.226  31.668   3.353 -0.0806  0.1054 -0.0371
34777POPC   PO463305   1.154  31.870   3.670  0.0456 -0.1653 -0.0133
34777POPC   GL163306   1.109  31.864   3.982 -0.0199  0.1400 -0.0343
34777POPC   GL263307   0.768  31.750   4.036  0.1109 -0.0510  0.1087
34777POPC   C1A63308   0.933  32.225   4.227 -0.1167  0.3727 -0.0497
34777POPC   D2A63309   0.638  32.223   4.579 -0.3660 -0.0974 -0.1967
34777POPC   C3A63310   0.433  31.846   4.829  0.0735 -0.1512 -0.2410
34777POPC   C4A63311   0.199  31.696   5.200  0.1188 -0.2465 -0.1428
34777POPC   C1B63312   0.849  31.796   4.497 -0.3284  0.0592 -0.1812
34777POPC   C2B63313   0.958  31.698   4.951 -0.3662  0.0279 -0.0482
34777POPC   C3B63314   0.932  31.578   5.433 -0.2494  0.0069  0.0151
34777POPC   C4B63315   0.963  31.198   5.758 -0.0730 -0.0588  0.2696
34778POPC   NC363316  11.315  19.944   6.333 -0.3229 -0.1839  0.1130
34778POPC   PO463317  11.023  19.697   6.439 -0.3141 -0.1891  0.1830
34778POPC   GL163318  11.302  19.610   6.688  0.1734 -0.1430 -0.0303
34778POPC   GL263319  11.430  19.321   6.674  0.0988 -0.3028 -0.3130
34778POPC   C1A63320  11.130  19.414   7.026  0.1720 -0.0445  0.2214
34778POPC   D2A63321  11.123  19.124   7.359 -0.2094 -0.1745 -0.0979
34778POPC   C3A63322  11.123  18.729   7.528 -0.0602  0.1742  0.0255
34778POPC   C4A63323  11.324  18.335   7.766  0.3027 -0.3140  0.0434
34778POPC   C1B63324  11.479  19.058   7.037 -0.0769  0.0453  0.2663
34778POPC   C2B63325  11.657  18.768   7.303 -0.0284 -0.0355 -0.0057
34778POPC   C3B63326  11.935  18.634   7.643 -0.3411  0.6943  0.0001
34778POPC   C4B63327  12.221  18.830   7.921 -0.3145 -0.0979  0.1946
34779POPC   NC363328   8.943  25.873   6.484  0.0230 -0.2967 -0.1566
34779POPC   PO463329   8.923  25.562   6.707  0.1433 -0.0081 -0.2178
34779POPC   GL163330   8.860  25.828   7.066 -0.5083  0.1969 -0.1915
34779POPC   GL263331   8.883  26.099   6.963  0.1272 -0.0752 -0.0177
34779POPC   C1A63332   8.412  26.017   7.216 -0.1333  0.2966 -0.1976
34779POPC   D2A63333   7.983  26.149   7.265 -0.0043  0.1824  0.2660
34779POPC   C3A63334   7.782  26.180   7.661  0.0359 -0.1408  0.1989
34779POPC   C4A63335   7.462  26.349   7.862  0.2745 -0.1144  0.2571
34779POPC   C1B63336   8.867  26.162   7.483  0.3818  0.2213  0.0453
34779POPC   C2B63337   8.756  26.231   7.930  0.0807  0.1518  0.1769
34779POPC   C3B63338   8.851  26.352   8.320 -0.2129  0.1044 -0.1541
34779POPC   C4B63339   8.979  26.630   8.694 -0.2758  0.1246  0.1491
34780POPC   NC363340  10.175  21.262   9.292 -0.3241 -0.1206 -0.0543
34780POPC   PO463341  10.082  21.227   8.913 -0.1194  0.1090  0.0221
34780POPC   GL163342  10.063  20.873   9.005  0.0396 -0.2774 -0.0599
34780POPC   GL263343   9.825  20.857   9.116  0.0921  0.1411 -0.0109
34780POPC   C1A63344  10.365  20.688   9.307 -0.0432  0.0641 -0.3589
34780POPC   D2A63345  10.846  20.629   9.220 -0.0508 -0.1069  0.0984
34780POPC   C3A63346  11.117  20.394   9.567 -0.2741  0.0338  0.0857
34780POPC   C4A63347  10.990  20.317  10.035  0.0443  0.2216 -0.1052
34780POPC   C1B63348   9.853  20.407   8.986  0.0925  0.1035  0.1316
34780POPC   C2B63349   9.838  20.008   9.139  0.1281  0.4487  0.0286
34780POPC   C3B63350   9.711  19.665   9.315  0.1069  0.2651  0.1918
34780POPC   C4B63351   9.678  19.194   9.394  0.1526 -0.0508 -0.0532
34781POPC   NC363352   7.687  20.359   7.542 -0.1831  0.0135  0.2345
34781POPC   PO463353   7.397  20.619   7.592  0.1137  0.0841 -0.2620
34781POPC   GL163354   7.325  20.489   7.911 -0.3982  0.1772  0.2452
34781POPC   GL263355   7.156  20.225   7.808 -0.0941 -0.1794 -0.1199
34781POPC   C1A63356   7.327  20.639   8.344 -0.2028  0.0043  0.0749
34781POPC   D2A63357   7.147  20.719   8.752 -0.2514 -0.3769 -0.1713
34781POPC   C3A63358   7.283  20.516   9.126 -0.1596  0.0040 -0.0116
34781POPC   C4A63359   7.296  20.111   9.311 -0.0072 -0.0001  0.0174
34781POPC   C1B63360   6.892  20.111   8.140  0.1370 -0.2790  0.1560
34781POPC   C2B63361   6.797  19.761   8.450  0.0143  0.2781 -0.1218
34781POPC   C3B63362   6.536  19.693   8.862 -0.2034 -0.0087  0.1169
34781POPC   C4B63363   6.480  19.655   9.357 -0.0176 -0.2156 -0.1134
34782POPC   NC363364  10.900  31.774   4.870  0.0231 -0.2245  0.1675
34782POPC   PO463365  10.547  31.952   5.047 -0.1241  0.0070  0.0181
34782POPC   GL163366  10.573  31.858   5.470 -0.1186 -0.0861  0.1610
34782POPC   GL263367  10.788  31.651   5.401 -0.2852  0.3242  0.0933
34782POPC   C1A63368  10.807  32.110   5.821 -0.0291 -0.0221 -0.0970
34782POPC   D2A63369  11.034  32.344   6.103  0.5551 -0.0228 -0.1170
34782POPC   C3A63370  10.887  32.790   5.981  0.3741 -0.2692  0.1907
34782POPC   C4A63371  10.735  33.189   6.088 -0.0800  0.0506  0.1619
34782POPC   C1B63372  10.786  31.330   5.789 -0.0773  0.0841 -0.2249
34782POPC   C2B63373  10.629  31.361   6.249  0.1361  0.3644  0.0221
34782POPC   C3B63374  10.617  31.406   6.691 -0.3258 -0.1583  0.0505
34782POPC   C4B63375  10.534  31.557   7.079  0.0055  0.0445  0.1800
34783POPC   NC363376   7.670  19.131   6.575  0.0267 -0.1360 -0.1776
34783POPC   PO463377   7.961  19.014   6.365 -0.1077  0.0065  0.0479
34783POPC   GL163378   7.973  18.786   6.774 -0.1849  0.2534  0.0520
34783POPC   GL263379   8.214  18.639   6.830  0.2595 -0.0916  0.0875
34783POPC   C1A63380   7.732  18.568   7.122 -0.0505  0.2475 -0.0533
34783POPC   D2A63381   7.575  18.299   7.467  0.4432 -0.0207 -0.0682
34783POPC   C3A63382   7.596  18.299   7.917  0.3378  0.1907 -0.0087
34783POPC   C4A63383   7.699  18.253   8.390  0.0567  0.0140  0.0261
34783POPC   C1B63384   8.005  18.259   6.841 -0.1190  0.1757 -0.2635
34783POPC   C2B63385   7.965  18.087   7.267 -0.1704  0.0502  0.1434
34783POPC   C3B63386   8.072  18.240   7.718 -0.0574  0.3245  0.2825
34783POPC   C4B63387   8.099  18.047   8.138  0.1241 -0.2200  0.0899
34784POPC   NC363388   2.570   0.642   4.027 -0.1419 -0.0735 -0.2909
34784POPC   PO463389   2.908   0.753   4.150  0.2292  0.3406  0.1999
34784POPC   GL163390   2.863   0.839   4.529  0.0407 -0.1638 -0.5496
34784POPC   GL263391   3.043   0.722   4.694 -0.1897  0.1550 -0.1640
34784POPC   C1A63392   2.764   1.156   4.848 -0.1239 -0.0284 -0.0141
34784POPC   D2A63393   2.581   1.420   5.189 -0.0786  0.2036 -0.0014
34784POPC   C3A63394   2.584   1.192   5.614  0.0695 -0.0472  0.2895
34784POPC   C4A63395   2.532   1.261   6.003 -0.2405  0.0908 -0.0471
34784POPC   C1B63396   3.231   0.620   5.096 -0.0814 -0.1233  0.1252
34784POPC   C2B63397   3.250   0.551   5.602  0.0429  0.2989 -0.1246
34784POPC   C3B63398   3.217   0.509   6.037  0.4890  0.0146  0.0423
34784POPC   C4B63399   3.217   0.720   6.450  0.0238 -0.3851 -0.1769
34785POPC   NC363400  14.610  29.615   4.240 -0.0808  0.0565  0.0080
34785POPC   PO463401  14.906  29.382   4.274  0.0904 -0.0741  0.0028
34785POPC   GL163402  15.021  29.380   4.638  0.1530  0.1595 -0.0627
34785POPC   GL263403  15.287  29.572   4.628 -0.0531 -0.1581 -0.0146
34785POPC   C1A63404  15.089  29.144   5.020  0.0947 -0.0515 -0.0861
34785POPC   D2A63405  15.052  28.933   5.452  0.0281 -0.3809 -0.0854
34785POPC   C3A63406  15.505  28.799   5.459  0.0580  0.0302  0.3729
34785POPC   C4A63407  15.922  29.019   5.595  0.0143 -0.1791 -0.2086
34785POPC   C1B63408  15.344  29.768   5.114 -0.1084  0.2105 -0.0471
34785POPC   C2B63409  15.388  29.780   5.581 -0.2359  0.0603  0.2048
34785POPC   C3B63410  15.319  29.610   6.017 -0.0009 -0.2579  0.0662
34785POPC   C4B63411  15.395  29.571   6.487  0.0401 -0.2385  0.1127
34786POPC   NC363412   3.393  17.357   4.488 -0.1778 -0.3070 -0.3521
34786POPC   PO463413   3.768  17.297   4.650 -0.1512  0.0580 -0.2133
34786POPC   GL163414   3.940  17.301   5.026  0.0904 -0.1356 -0.1872
34786POPC   GL263415   3.783  17.331   5.218 -0.0783 -0.1311 -0.0750
34786POPC   C1A63416   4.031  16.907   5.295  0.0598 -0.0555 -0.0402
34786POPC   D2A63417   3.903  16.697   5.724  0.0253 -0.1817  0.4347
34786POPC   C3A63418   4.316  16.573   5.994  0.1228 -0.0390  0.1149
34786POPC   C4A63419   4.620  16.215   5.924  0.1391 -0.3232 -0.2150
34786POPC   C1B63420   3.811  17.277   5.684 -0.3412 -0.2085 -0.1784
34786POPC   C2B63421   3.885  17.173   6.117 -0.2031 -0.1200 -0.1587
34786POPC   C3B63422   3.869  16.838   6.356  0.1066 -0.1879 -0.2009
34786POPC   C4B63423   3.903  16.443   6.202  0.0236 -0.0975 -0.3035
34787POPC   NC363424   9.616  21.247   8.790  0.1331 -0.2135 -0.3411
34787POPC   PO463425   9.235  21.179   8.784  0.4054 -0.0175  0.6941
34787POPC   GL163426   9.426  20.764   8.846  0.2275 -0.2709 -0.0197
34787POPC   GL263427   9.411  20.579   8.745 -0.1596 -0.0222  0.0221
34787POPC   C1A63428   9.458  20.567   9.257 -0.4489  0.0537  0.3482
34787POPC   D2A63429   9.246  20.469   9.655 -0.0468  0.5499  0.1544
34787POPC   C3A63430   9.105  19.991   9.660  0.0837 -0.3391  0.2475
34787POPC   C4A63431   9.014  19.531   9.841  0.2636 -0.0508  0.2464
34787POPC   C1B63432   9.016  20.452   8.944  0.0126  0.1321  0.0692
34787POPC   C2B63433   8.850  20.304   9.304  0.0389  0.0297  0.1647
34787POPC   C3B63434   8.629  20.239   9.754  0.1188 -0.4049  0.1320
34787POPC   C4B63435   8.207  20.268   9.962 -0.0404 -0.1003  0.0864
34788POPC   NC363436  12.449  23.112   6.921 -0.3432 -0.1355  0.2321
34788POPC   PO463437  12.780  23.300   6.820 -0.1890 -0.1129 -0.1179
34788POPC   GL163438  12.854  23.431   7.210 -0.0253 -0.0166  0.0781
34788POPC   GL263439  12.660  23.252   7.372  0.1910  0.1305 -0.0812
34788POPC   C1A63440  13.036  23.841   7.303 -0.0447 -0.0721 -0.0110
34788POPC   D2A63441  13.362  24.120   7.472  0.1789 -0.1461 -0.1273
34788POPC   C3A63442  13.463  23.865   7.834 -0.1839  0.1985 -0.1580
34788POPC   C4A63443  13.535  23.677   8.259 -0.2528 -0.2988  0.0257
34788POPC   C1B63444  13.073  23.389   7.609 -0.0546 -0.2596  0.1518
34788POPC   C2B63445  13.304  23.275   8.019  0.1690 -0.2018  0.2138
34788POPC   C3B63446  13.530  23.215   8.444  0.0817  0.1515 -0.1188
34788POPC   C4B63447  13.668  23.491   8.795 -0.1220  0.1120  0.1160
34789POPC   NC363448  11.579  24.390   7.496  0.1349 -0.2171 -0.1539
34789POPC   PO463449  11.612  23.994   7.424 -0.2101 -0.2788 -0.1925
34789POPC   GL163450  11.948  23.947   7.675 -0.0919  0.0807  0.0524
34789POPC   GL263451  11.927  24.187   7.816 -0.0373  0.1895 -0.1005
34789POPC   C1A63452  12.265  23.892   7.987  0.0689  0.2318 -0.0877
34789POPC   D2A63453  12.621  24.118   8.133  0.1560  0.1027 -0.0030
34789POPC   C3A63454  12.569  24.564   8.375  0.0250 -0.3578  0.1437
34789POPC   C4A63455  12.917  24.927   8.392  0.2740 -0.1847 -0.0255
34789POPC   C1B63456  12.127  24.362   8.230  0.1473  0.1089  0.1068
34789POPC   C2B63457  12.278  24.260   8.648 -0.0601  0.2724 -0.0215
34789POPC   C3B63458  12.482  24.203   9.010  0.1842  0.1713  0.1390
34789POPC   C4B63459  12.726  24.113   9.357 -0.1271  0.0055 -0.2320
34790POPC   NC363460  32.817  16.972   3.874 -0.2332 -0.0650 -0.1283
34790POPC   PO463461  33.057  16.991   4.158 -0.2100 -0.0473 -0.2249
34790POPC   GL163462  33.169  16.949   4.608  0.2217 -0.0785  0.0865
34790POPC   GL263463  33.430  16.997   4.682 -0.2092  0.0224  0.3106
34790POPC   C1A63464  33.050  16.545   4.809  0.0998 -0.1099  0.1377
34790POPC   D2A63465  33.023  16.289   5.219 -0.1408 -0.0414  0.2172
34790POPC   C3A63466  32.884  16.439   5.597  0.1713 -0.1694 -0.1425
34790POPC   C4A63467  32.483  16.501   5.835 -0.2579  0.0801  0.0459
34790POPC   C1B63468  33.464  17.182   5.088 -0.0465 -0.0289  0.2138
34790POPC   C2B63469  33.808  17.096   5.354 -0.0235 -0.0402 -0.1248
34790POPC   C3B63470  33.976  16.821   5.639 -0.0995 -0.1376  0.0070
34790POPC   C4B63471  34.441  16.770   5.675 -0.3461 -0.2275  0.0741
34791POPC   NC363472  14.567  21.847   5.256  0.0352  0.3532  0.1795
34791POPC   PO463473  14.403  21.509   5.368 -0.0253  0.0005  0.0992
34791POPC   GL163474  14.224  21.319   5.660  0.2538  0.2335 -0.1944
34791POPC   GL263475  14.232  21.463   5.866  0.3502 -0.0329 -0.1222
34791POPC   C1A63476  14.387  20.897   5.864 -0.3779 -0.0272 -0.0514
34791POPC   D2A63477  14.595  20.646   6.178 -0.1504  0.3262  0.3767
34791POPC   C3A63478  14.968  20.528   6.386  0.1589  0.0477  0.1120
34791POPC   C4A63479  15.075  20.257   6.759 -0.0109 -0.2761 -0.0452
34791POPC   C1B63480  14.603  21.603   6.135  0.0048  0.0686 -0.0204
34791POPC   C2B63481  14.828  21.769   6.405 -0.3323 -0.1102  0.1350
34791POPC   C3B63482  15.015  21.823   6.830  0.0410  0.2892 -0.0406
34791POPC   C4B63483  15.129  22.130   7.189 -0.0153  0.4339  0.0010
34792POPC   NC363484   7.329  24.550   6.642 -0.0031 -0.2075 -0.0436
34792POPC   PO463485   6.927  24.525   6.670 -0.0102  0.1534  0.1204
34792POPC   GL163486   6.959  24.577   7.042  0.2159  0.4458  0.4452
34792POPC   GL263487   7.074  24.852   7.019 -0.0758 -0.0878  0.1185
34792POPC   C1A63488   6.845  24.466   7.485  0.0646 -0.0735  0.0880
34792POPC   D2A63489   6.708  24.690   7.878  0.0163 -0.0218 -0.0147
34792POPC   C3A63490   6.309  24.665   8.116 -0.0519 -0.0453 -0.0593
34792POPC   C4A63491   5.931  24.844   8.220 -0.1042  0.0649 -0.1896
34792POPC   C1B63492   6.677  24.893   7.190 -0.1608 -0.4079 -0.0714
34792POPC   C2B63493   6.434  25.033   7.527 -0.1095  0.3619 -0.0589
34792POPC   C3B63494   6.354  25.149   7.932  0.0269 -0.0134  0.2346
34792POPC   C4B63495   6.448  25.353   8.340 -0.3305  0.3589 -0.0970
34793POPC   NC363496  12.373  31.003   4.784 -0.0573 -0.1768  0.2206
34793POPC   PO463497  12.083  30.747   4.648 -0.2485 -0.1533 -0.0360
34793POPC   GL163498  12.028  30.823   5.113 -0.2340  0.1613 -0.2178
34793POPC   GL263499  11.769  30.692   5.110  0.2184 -0.0143  0.0978
34793POPC   C1A63500  12.367  30.855   5.437 -0.0814  0.1774  0.1703
34793POPC   D2A63501  12.454  30.807   5.908 -0.1962 -0.0830  0.1674
34793POPC   C3A63502  12.758  30.670   6.219  0.0724  0.1226 -0.1092
34793POPC   C4A63503  13.010  30.662   6.574 -0.0154 -0.0433  0.1829
34793POPC   C1B63504  11.739  30.860   5.576  0.2407 -0.2075 -0.2502
34793POPC   C2B63505  11.489  31.235   5.800 -0.0291  0.0988 -0.0427
34793POPC   C3B63506  11.379  31.420   6.221 -0.0942  0.0542  0.2269
34793POPC   C4B63507  11.101  31.205   6.530 -0.0834  0.4166 -0.0412
34794POPC   NC363508   8.233  25.178   6.186 -0.1526  0.3109 -0.0942
34794POPC   PO463509   8.076  24.887   6.405  0.4703 -0.1417 -0.0035
34794POPC   GL163510   7.787  25.104   6.586  0.0880 -0.1802  0.2003
34794POPC   GL263511   7.455  25.076   6.619  0.0088  0.2913  0.0161
34794POPC   C1A63512   7.687  25.285   7.005 -0.2346  0.3511  0.2149
34794POPC   D2A63513   7.396  25.117   7.320 -0.1775 -0.0712  0.1496
34794POPC   C3A63514   7.302  25.408   7.647 -0.1545  0.0000 -0.2297
34794POPC   C4A63515   7.026  25.676   7.885 -0.0458 -0.2567 -0.1418
34794POPC   C1B63516   7.209  25.382   6.869 -0.2503 -0.1068  0.1304
34794POPC   C2B63517   6.944  25.406   7.228 -0.2103 -0.2252 -0.0017
34794POPC   C3B63518   6.697  25.426   7.625  0.2827  0.0753 -0.2640
34794POPC   C4B63519   6.520  25.786   7.826  0.0528 -0.1129  0.1456
34795POPC   NC363520   0.541  19.895   4.869 -0.3858 -0.0187 -0.4600
34795POPC   PO463521   0.831  19.656   4.837 -0.0524  0.1915  0.1723
34795POPC   GL163522   0.804  19.686   5.200  0.0880 -0.2040  0.1244
34795POPC   GL263523   0.782  19.914   5.465  0.1527  0.0041 -0.0674
34795POPC   C1A63524   0.980  19.530   5.598  0.0984 -0.1234  0.0506
34795POPC   D2A63525   1.246  19.293   5.894 -0.1143  0.1333  0.0635
34795POPC   C3A63526   1.717  19.235   5.811 -0.1299  0.1978  0.0713
34795POPC   C4A63527   2.111  19.353   5.967  0.2488 -0.1858  0.0163
34795POPC   C1B63528   0.574  19.722   5.839  0.1106  0.2498 -0.1897
34795POPC   C2B63529   0.321  19.533   6.161 -0.2591 -0.0347  0.1050
34795POPC   C3B63530   0.040  19.394   6.517  0.2779 -0.0153 -0.0608
34795POPC   C4B63531  -0.148  19.517   6.946  0.3740 -0.2714  0.0052
34796POPC   NC363532  10.483  20.313   7.906  0.0242 -0.0433  0.0570
34796POPC   PO463533  10.487  20.325   7.515  0.2701 -0.0981  0.2287
34796POPC   GL163534  10.876  20.311   7.659  0.2388 -0.3123  0.2059
34796POPC   GL263535  10.914  19.994   7.762 -0.1419  0.0406  0.3211
34796POPC   C1A63536  11.081  20.372   8.121 -0.0424  0.0447 -0.1009
34796POPC   D2A63537  11.295  19.982   8.269  0.2066 -0.0326  0.0308
34796POPC   C3A63538  11.300  19.573   8.486  0.0013  0.1697 -0.2645
34796POPC   C4A63539  11.499  19.187   8.414 -0.1641  0.1557  0.0425
34796POPC   C1B63540  11.077  19.616   7.977  0.3062 -0.1746 -0.0986
34796POPC   C2B63541  10.931  19.177   7.988  0.0393 -0.4044  0.0434
34796POPC   C3B63542  10.521  18.965   8.043  0.2847  0.0602 -0.2063
34796POPC   C4B63543  10.181  18.726   7.743  0.0588 -0.0728  0.0775
34797POPC   NC363544  12.034  21.707   7.441 -0.0289 -0.1334 -0.0269
34797POPC   PO463545  11.870  21.325   7.451 -0.2521  0.1154  0.2879
34797POPC   GL163546  11.743  21.016   7.665  0.2331  0.2010  0.0364
34797POPC   GL263547  11.537  21.066   7.754 -0.0203  0.1938 -0.2599
34797POPC   C1A63548  11.876  20.684   7.950  0.0210  0.3728  0.1501
34797POPC   D2A63549  12.302  20.572   8.047 -0.3637  0.0977 -0.1642
34797POPC   C3A63550  12.657  20.399   7.810  0.4563 -0.2227 -0.0062
34797POPC   C4A63551  13.026  20.066   7.840 -0.0191 -0.0718 -0.0376
34797POPC   C1B63552  11.798  21.153   8.099 -0.5005 -0.1279 -0.3549
34797POPC   C2B63553  12.124  20.923   8.335  0.0232 -0.0087  0.0393
34797POPC   C3B63554  12.465  20.675   8.517  0.2677 -0.0200  0.2704
34797POPC   C4B63555  12.514  20.224   8.370 -0.2626 -0.2624 -0.1712
34798POPC   NC363556  13.168  29.539   5.027  0.5244  0.1386  0.1996
34798POPC   PO463557  13.115  29.170   4.848  0.2122 -0.0954 -0.3269
34798POPC   GL163558  12.944  29.190   5.200  0.2072 -0.3584 -0.0831
34798POPC   GL263559  13.179  29.106   5.337 -0.1220 -0.0442  0.0196
34798POPC   C1A63560  12.641  29.430   5.458  0.1996  0.0633 -0.1327
34798POPC   D2A63561  12.270  29.530   5.703  0.1476  0.0783  0.1192
34798POPC   C3A63562  12.219  29.549   6.118  0.1085 -0.1186 -0.4016
34798POPC   C4A63563  12.142  29.515   6.565  0.2396  0.0933 -0.0445
34798POPC   C1B63564  13.047  29.387   5.705 -0.0078 -0.0142  0.0020
34798POPC   C2B63565  12.701  29.659   5.900 -0.1457 -0.0574  0.0717
34798POPC   C3B63566  12.527  29.932   6.234 -0.5229  0.0097 -0.3589
34798POPC   C4B63567  12.662  30.222   6.577 -0.2449 -0.0331  0.0942
34799POPC   NC363568   0.763  29.681   3.625  0.0291 -0.0232 -0.3125
34799POPC   PO463569   0.724  29.409   3.944  0.2507 -0.0648  0.0772
34799POPC   GL163570   0.658  29.549   4.262 -0.2249  0.2249 -0.0281
34799POPC   GL263571   0.743  29.327   4.483  0.0508  0.0578 -0.0918
34799POPC   C1A63572   0.293  29.709   4.548  0.0813 -0.3766  0.0732
34799POPC   D2A63573  -0.017  29.870   4.875 -0.2586  0.0647 -0.0922
34799POPC   C3A63574   0.082  29.922   5.306  0.0641  0.2126 -0.1525
34799POPC   C4A63575   0.402  30.211   5.541  0.3011  0.0211  0.0909
34799POPC   C1B63576   0.635  29.655   4.868 -0.0916  0.3265 -0.0460
34799POPC   C2B63577   0.579  29.828   5.269  0.0897 -0.0162 -0.1331
34799POPC   C3B63578   0.407  29.742   5.733 -0.0492 -0.0336 -0.2342
34799POPC   C4B63579   0.536  29.971   6.081  0.1423  0.0612  0.0117
34800POPC   NC363580   8.302  21.782   8.873 -0.0948  0.1513  0.0465
34800POPC   PO463581   8.246  21.440   8.677  0.2118 -0.1458  0.0349
34800POPC   GL163582   8.018  21.403   9.001  0.2887 -0.2997 -0.3108
34800POPC   GL263583   7.954  21.662   9.161 -0.0256 -0.1231  0.0154
34800POPC   C1A63584   7.913  21.207   9.427 -0.2606 -0.2225 -0.0162
34800POPC   D2A63585   7.720  20.980   9.823 -0.0730  0.0896  0.0434
34800POPC   C3A63586   7.745  20.535   9.792 -0.0366  0.1400  0.1574
34800POPC   C4A63587   7.712  20.147   9.558 -0.0156 -0.1485 -0.1327
34800POPC   C1B63588   7.561  21.377   9.064  0.0128  0.0452  0.0586
34800POPC   C2B63589   7.180  21.104   9.121 -0.2394 -0.0842 -0.4821
34800POPC   C3B63590   6.941  20.906   9.347  0.3804 -0.0276 -0.3086
34800POPC   C4B63591   6.897  20.425   9.494  0.0251  0.2465  0.2562
34801POPC   NC363592   7.444  24.122   7.271  0.0528  0.3135 -0.0068
34801POPC   PO463593   7.385  24.429   7.098 -0.0418  0.2792  0.0017
34801POPC   GL163594   7.319  24.681   7.453 -0.0409  0.0528  0.0267
34801POPC   GL263595   7.340  24.478   7.639  0.3472  0.2648 -0.0358
34801POPC   C1A63596   6.993  24.952   7.594 -0.0328 -0.0459  0.0217
34801POPC   D2A63597   6.838  25.164   7.983  0.0206  0.2898  0.1716
34801POPC   C3A63598   7.247  25.304   8.168 -0.0974  0.0206  0.0650
34801POPC   C4A63599   7.705  25.321   8.203 -0.1367  0.0884 -0.0518
34801POPC   C1B63600   7.112  24.405   8.007  0.1116  0.1606  0.2284
34801POPC   C2B63601   6.706  24.402   8.273  0.0849 -0.3926 -0.1481
34801POPC   C3B63602   6.389  24.449   8.642  0.0695 -0.0956  0.3412
34801POPC   C4B63603   5.962  24.541   8.739  0.1504 -0.0039 -0.4321
34802POPC   NC363604  32.574  28.290   3.775 -0.1848  0.3750  0.0169
34802POPC   PO463605  32.749  28.309   4.143  0.1356 -0.2045 -0.2974
34802POPC   GL163606  32.683  28.558   4.492 -0.1145 -0.1313  0.0642
34802POPC   GL263607  32.454  28.681   4.449  0.1846  0.0586 -0.0398
34802POPC   C1A63608  32.904  28.616   4.899 -0.3656 -0.2289  0.0437
34802POPC   D2A63609  33.076  28.419   5.306 -0.0568  0.1805  0.4967
34802POPC   C3A63610  33.510  28.244   5.157  0.2053 -0.3897 -0.0864
34802POPC   C4A63611  33.894  28.099   5.410 -0.0166 -0.0171  0.1824
34802POPC   C1B63612  32.478  28.886   4.812  0.1585  0.2916  0.0427
34802POPC   C2B63613  32.661  29.052   5.153  0.0325 -0.0548  0.1080
34802POPC   C3B63614  32.909  28.869   5.480  0.0708  0.2166 -0.0162
34802POPC   C4B63615  33.000  28.597   5.788 -0.4946 -0.0732 -0.2272
34803POPC   NC363616   3.896  20.327   5.123  0.1358 -0.0514 -0.1362
34803POPC   PO463617   3.564  20.469   5.283 -0.0560 -0.1866 -0.0193
34803POPC   GL163618   3.490  20.200   5.659  0.0120  0.0986  0.0537
34803POPC   GL263619   3.407  20.436   5.838  0.1503  0.3230  0.0512
34803POPC   C1A63620   3.261  19.936   5.930 -0.1560  0.0713  0.0167
34803POPC   D2A63621   3.467  19.663   6.237  0.0390 -0.2418  0.0071
34803POPC   C3A63622   3.645  19.935   6.522 -0.0742  0.0123  0.0636
34803POPC   C4A63623   3.736  20.172   6.884 -0.3420 -0.1061 -0.1227
34803POPC   C1B63624   3.410  20.349   6.330 -0.3021  0.1294  0.3547
34803POPC   C2B63625   3.295  20.479   6.741 -0.2624 -0.1044 -0.1452
34803POPC   C3B63626   2.917  20.590   7.041 -0.3136 -0.0258  0.0778
34803POPC   C4B63627   2.517  20.512   7.212  0.1766 -0.0009 -0.2619
34804POPC   NC363628  12.630  23.846   6.754 -0.1052 -0.2356  0.0273
34804POPC   PO463629  12.386  23.571   7.024  0.2296  0.0674 -0.0086
34804POPC   GL163630  12.570  23.775   7.304  0.2619 -0.1547  0.6208
34804POPC   GL263631  12.355  23.819   7.495  0.0405  0.0794 -0.3340
34804POPC   C1A63632  12.714  23.704   7.786  0.1566  0.0157 -0.2220
34804POPC   D2A63633  13.012  23.668   8.112 -0.1813  0.0411 -0.2929
34804POPC   C3A63634  12.982  23.753   8.605 -0.0087 -0.3735  0.0191
34804POPC   C4A63635  12.852  23.681   9.042  0.1158 -0.2686 -0.2599
34804POPC   C1B63636  12.602  24.166   7.675  0.1325  0.1632  0.3296
34804POPC   C2B63637  13.032  24.075   7.819  0.0492 -0.2187  0.0662
34804POPC   C3B63638  13.260  24.061   8.254 -0.1870 -0.2532 -0.0843
34804POPC   C4B63639  13.665  24.289   8.409 -0.3729  0.0295  0.4680
34805POPC   NC363640  11.640  31.812   4.507  0.0156 -0.0063 -0.0701
34805POPC   PO463641  11.367  31.603   4.688  0.1391  0.1488 -0.0624
34805POPC   GL163642  11.376  31.634   5.052 -0.2761  0.0513  0.0051
34805POPC   GL263643  11.689  31.523   5.133 -0.0817  0.0715  0.0682
34805POPC   C1A63644  11.257  31.573   5.452  0.0172 -0.0375 -0.3508
34805POPC   D2A63645  11.134  31.757   5.894 -0.0329 -0.2951  0.0117
34805POPC   C3A63646  10.847  31.825   6.216 -0.1960  0.0777  0.3157
34805POPC   C4A63647  10.785  31.846   6.647 -0.0569 -0.0701 -0.3570
34805POPC   C1B63648  11.738  31.696   5.580  0.0303 -0.0869  0.0796
34805POPC   C2B63649  11.878  31.535   5.964  0.0267  0.0687 -0.2075
34805POPC   C3B63650  11.807  31.762   6.357  0.5915  0.1807  0.0559
34805POPC   C4B63651  11.645  31.490   6.683  0.0070  0.2459  0.0782
34806POPC   NC363652  14.487  24.564   5.086 -0.2421 -0.2811  0.3605
34806POPC   PO463653  14.592  24.235   5.266  0.2019  0.0794 -0.1155
34806POPC   GL163654  14.702  24.191   5.653  0.4845  0.1257  0.0777
34806POPC   GL263655  14.949  24.251   5.634 -0.1299 -0.1522  0.2343
34806POPC   C1A63656  14.694  24.546   5.962  0.0458 -0.0024  0.2273
34806POPC   D2A63657  14.376  24.804   6.188 -0.0073  0.1122  0.0309
34806POPC   C3A63658  14.371  24.721   6.665 -0.2582  0.0893 -0.3114
34806POPC   C4A63659  13.954  24.812   6.862  0.1395 -0.0197 -0.4329
34806POPC   C1B63660  15.169  24.258   6.008  0.2643  0.0165  0.0483
34806POPC   C2B63661  15.183  23.964   6.373 -0.1134 -0.0526  0.2423
34806POPC   C3B63662  15.423  23.682   6.649 -0.2295  0.3290  0.1112
34806POPC   C4B63663  15.765  23.673   6.889 -0.0757 -0.2805 -0.0719
34807POPC   NC363664   1.276  21.197   4.652 -0.2113  0.0011 -0.1508
34807POPC   PO463665   1.427  21.507   4.877  0.2685  0.2814 -0.2934
34807POPC   GL163666   1.305  21.369   5.278  0.1680  0.1695 -0.0363
34807POPC   GL263667   1.532  21.535   5.362 -0.0680  0.1939 -0.2429
34807POPC   C1A63668   1.032  21.699   5.541 -0.2427 -0.2253 -0.1329
34807POPC   D2A63669   0.845  21.901   5.936  0.2900  0.1349  0.2709
34807POPC   C3A63670   0.741  21.457   6.099 -0.0655 -0.0417 -0.1176
34807POPC   C4A63671   0.737  21.194   6.472  0.1006 -0.0707 -0.3388
34807POPC   C1B63672   1.619  21.311   5.706 -0.0528 -0.0248 -0.0070
34807POPC   C2B63673   1.845  21.435   6.094 -0.4120  0.1354 -0.0329
34807POPC   C3B63674   2.078  21.415   6.495 -0.1082 -0.3575  0.3324
34807POPC   C4B63675   2.168  21.314   6.977 -0.0614  0.2289 -0.1775
34808POPC   NC363676   3.237  26.659   4.282 -0.2316  0.0502  0.1270
34808POPC   PO463677   3.102  26.887   4.596  0.0010 -0.0923  0.2662
34808POPC   GL163678   3.019  26.798   4.867 -0.0245  0.1242  0.2424
34808POPC   GL263679   2.853  26.950   5.062  0.2364  0.2350 -0.0211
34808POPC   C1A63680   3.267  26.714   5.267 -0.1531  0.1250  0.0337
34808POPC   D2A63681   3.367  26.569   5.686  0.2637 -0.0538  0.1286
34808POPC   C3A63682   3.058  26.699   6.040  0.0581  0.1673 -0.0673
34808POPC   C4A63683   2.840  27.148   6.059 -0.2021 -0.1159 -0.0251
34808POPC   C1B63684   2.650  27.255   5.395 -0.1687 -0.1158 -0.0867
34808POPC   C2B63685   2.448  27.426   5.802 -0.2042  0.0650 -0.0524
34808POPC   C3B63686   2.481  27.587   6.211 -0.2322  0.1268 -0.0113
34808POPC   C4B63687   2.554  27.770   6.618 -0.5217  0.1733  0.3754
34809POPC   NC363688  11.145  21.980   9.627  0.1066 -0.3204 -0.1692
34809POPC   PO463689  11.063  21.876   9.982  0.1173 -0.0036  0.1399
34809POPC   GL163690  11.454  21.850   9.996 -0.2913  0.3777 -0.3030
34809POPC   GL263691  11.465  21.546   9.946 -0.0062 -0.0317 -0.2918
34809POPC   C1A63692  11.875  22.027   9.980 -0.0660  0.1744  0.0049
34809POPC   D2A63693  12.232  22.273   9.865 -0.3460  0.0132  0.1196
34809POPC   C3A63694  12.613  22.026   9.717 -0.0131 -0.0645  0.1509
34809POPC   C4A63695  13.066  21.880   9.597  0.0343  0.0339  0.0058
34809POPC   C1B63696  11.582  21.320  10.340 -0.0947 -0.1552  0.2814
34809POPC   C2B63697  11.829  21.445  10.751  0.1857  0.0723  0.1960
34809POPC   C3B63698  12.060  21.181  11.059 -0.3248 -0.1084 -0.0302
34809POPC   C4B63699  12.340  20.864  10.827 -0.0354  0.1436 -0.1856
34810POPC   NC363700  10.596  24.772   7.812 -0.3254 -0.1247 -0.1344
34810POPC   PO463701  10.716  24.961   7.483  0.2811  0.3225 -0.1513
34810POPC   GL163702  10.759  25.256   7.745  0.0596 -0.1612 -0.1218
34810POPC   GL263703  11.063  25.361   7.733 -0.4451 -0.0396 -0.2301
34810POPC   C1A63704  10.479  25.562   7.872 -0.2381  0.2044  0.0071
34810POPC   D2A63705  10.162  25.852   7.975  0.1037 -0.1295  0.0284
34810POPC   C3A63706  10.146  25.932   8.456 -0.0083  0.0351  0.0084
34810POPC   C4A63707  10.152  26.253   8.785 -0.1131 -0.2986  0.0992
34810POPC   C1B63708  10.975  25.581   8.067 -0.0838 -0.0147  0.2136
34810POPC   C2B63709  10.654  25.792   8.276 -0.0948 -0.1560  0.0003
34810POPC   C3B63710  10.731  26.081   8.651 -0.0876 -0.2115  0.0129
34810POPC   C4B63711  11.011  26.253   9.014 -0.2297 -0.1470  0.1622
34811POPC   NC363712  13.698   0.214   4.661  0.2497  0.0994 -0.3239
34811POPC   PO463713  13.931   0.493   4.752 -0.1726  0.0806  0.0311
34811POPC   GL163714  13.847   0.337   5.179  0.1392  0.1085 -0.4667
34811POPC   GL263715  13.841   0.077   5.149 -0.0168  0.0294  0.0715
34811POPC   C1A63716  13.521   0.351   5.483 -0.1023  0.0104 -0.2915
34811POPC   D2A63717  13.340   0.492   5.893  0.0026 -0.2585  0.2197
34811POPC   C3A63718  13.248   0.404   6.331  0.2363  0.1333 -0.0691
34811POPC   C4A63719  12.811   0.435   6.593 -0.2549 -0.1214  0.0833
34811POPC   C1B63720  13.772  -0.078   5.627  0.0034  0.1173  0.2278
34811POPC   C2B63721  13.621   0.079   6.026  0.0895  0.1638 -0.1293
34811POPC   C3B63722  13.443  -0.144   6.430  0.2512 -0.1049  0.0238
34811POPC   C4B63723  13.045  -0.021   6.598  0.2950 -0.2123 -0.0494
34812POPC   NC363724  17.724   0.174   3.812  0.0137 -0.1037  0.0724
34812POPC   PO463725  17.623  -0.176   3.897 -0.0392  0.1042 -0.1065
34812POPC   GL163726  17.646  -0.179   4.276 -0.3000 -0.0404 -0.1082
34812POPC   GL263727  17.370  -0.125   4.484 -0.0672  0.1687  0.0703
34812POPC   C1A63728  17.847  -0.092   4.659 -0.4290 -0.2112  0.1600
34812POPC   D2A63729  18.053   0.250   4.870  0.1415 -0.0714  0.0672
34812POPC   C3A63730  17.918   0.335   5.325  0.0544  0.0436  0.0305
34812POPC   C4A63731  17.920   0.343   5.771  0.0318 -0.2535  0.1564
34812POPC   C1B63732  17.369  -0.327   4.968  0.1449  0.1313  0.0015
34812POPC   C2B63733  17.496  -0.457   5.368 -0.3855 -0.2749 -0.0527
34812POPC   C3B63734  17.857  -0.394   5.648  0.2584 -0.0963 -0.2491
34812POPC   C4B63735  18.022  -0.628   5.997 -0.0034  0.2357  0.0157
34813POPC   NC363736   3.611  21.656   4.908 -0.0846  0.1572  0.0363
34813POPC   PO463737   3.519  21.436   5.210  0.0509 -0.0022 -0.2712
34813POPC   GL163738   3.589  21.547   5.650  0.0725  0.0085 -0.4082
34813POPC   GL263739   3.673  21.260   5.732 -0.2075 -0.0420  0.2181
34813POPC   C1A63740   3.686  21.585   6.101  0.1342  0.1137  0.1197
34813POPC   D2A63741   3.513  21.772   6.488 -0.0451 -0.0034 -0.0115
34813POPC   C3A63742   3.543  21.593   6.915 -0.1778 -0.0354 -0.0282
34813POPC   C4A63743   3.234  21.455   7.246  0.1528 -0.0545 -0.0046
34813POPC   C1B63744   3.275  21.372   6.015  0.0681 -0.1020  0.1302
34813POPC   C2B63745   2.913  21.237   6.298  0.1784 -0.0653  0.0632
34813POPC   C3B63746   2.551  21.103   6.519  0.0558  0.0166 -0.2997
34813POPC   C4B63747   2.515  20.928   6.921  0.0132 -0.0565 -0.0165
34814POPC   NC363748  11.188  25.136   7.316  0.0618 -0.2139 -0.1395
34814POPC   PO463749  11.407  25.284   6.988  0.1448  0.3835  0.1874
34814POPC   GL163750  11.282  25.572   7.290  0.0541 -0.0148 -0.1799
34814POPC   GL263751  11.229  25.831   7.133 -0.0435  0.1476  0.0070
34814POPC   C1A63752  11.273  25.962   7.626 -0.0903 -0.2192 -0.0351
34814POPC   D2A63753  11.149  26.119   8.060  0.1048  0.2584 -0.1207
34814POPC   C3A63754  11.268  26.535   8.205 -0.0058  0.3018 -0.0060
34814POPC   C4A63755  11.144  26.984   8.273 -0.3947 -0.0240 -0.1133
34814POPC   C1B63756  10.887  25.741   7.483 -0.3124 -0.0751 -0.0786
34814POPC   C2B63757  10.686  26.007   7.858 -0.0666  0.0201  0.2057
34814POPC   C3B63758  10.650  26.288   8.183  0.2960  0.0059 -0.0971
34814POPC   C4B63759  10.868  26.494   8.500 -0.1656 -0.0348  0.2018
34815POPC   NC363760  13.998  27.807   5.043 -0.1317 -0.1705 -0.0103
34815POPC   PO463761  14.343  27.631   5.041  0.1803  0.4975 -0.0575
34815POPC   GL163762  14.375  27.868   5.349 -0.1189  0.0793  0.4482
34815POPC   GL263763  14.260  27.947   5.480  0.0643 -0.1875 -0.1046
34815POPC   C1A63764  14.774  28.095   5.500  0.4911 -0.2216  0.4648
34815POPC   D2A63765  15.146  27.919   5.723 -0.1016  0.1742  0.0553
34815POPC   C3A63766  15.320  27.748   6.133 -0.0840  0.1158  0.0646
34815POPC   C4A63767  15.419  27.797   6.533 -0.2940 -0.1100  0.1165
34815POPC   C1B63768  14.232  28.183   5.919  0.0589 -0.0676 -0.2213
34815POPC   C2B63769  14.203  28.568   6.297  0.2387  0.2972 -0.0287
34815POPC   C3B63770  14.132  28.949   6.564  0.1323 -0.0249  0.0421
34815POPC   C4B63771  13.910  29.297   6.492  0.1832  0.1304 -0.2601
34816POPC   NC363772   8.899  28.036   5.034  0.3155 -0.0527  0.1583
34816POPC   PO463773   8.674  28.106   5.326  0.1085 -0.1782 -0.2600
34816POPC   GL163774   8.458  28.465   5.535 -0.0332 -0.3493  0.2620
34816POPC   GL263775   8.186  28.317   5.453  0.2661 -0.0501  0.1309
34816POPC   C1A63776   8.393  28.913   5.469 -0.0958  0.1553 -0.0720
34816POPC   D2A63777   8.344  29.328   5.383  0.2341  0.0072 -0.4031
34816POPC   C3A63778   8.443  29.658   5.700 -0.0455 -0.0207  0.0187
34816POPC   C4A63779   8.741  30.052   5.603 -0.0451  0.0966 -0.4427
34816POPC   C1B63780   8.152  28.468   5.908  0.4404 -0.4243  0.0161
34816POPC   C2B63781   8.000  28.577   6.284  0.0250  0.1721  0.0044
34816POPC   C3B63782   7.643  28.361   6.435  0.1182 -0.0410 -0.3735
34816POPC   C4B63783   7.254  28.435   6.750  0.1853 -0.0056 -0.2782
34817POPC   NC363784   8.728  26.688   6.309  0.0671 -0.0898  0.1291
34817POPC   PO463785   8.669  26.316   6.423 -0.4297 -0.1497  0.3151
34817POPC   GL163786   8.471  26.364   6.774  0.0063 -0.1727 -0.0441
34817POPC   GL263787   8.215  26.398   6.836  0.1118  0.0833 -0.0868
34817POPC   C1A63788   8.664  26.463   7.176  0.0913  0.3886  0.0290
34817POPC   D2A63789   8.769  26.719   7.556 -0.0882  0.2635 -0.0748
34817POPC   C3A63790   9.076  26.610   7.834  0.0731  0.1789  0.0764
34817POPC   C4A63791   9.207  26.764   8.241 -0.0428  0.1941 -0.4824
34817POPC   C1B63792   8.241  26.744   7.126  0.0251 -0.2202 -0.2720
34817POPC   C2B63793   7.990  26.582   7.502  0.0017 -0.1699  0.0155
34817POPC   C3B63794   7.940  26.602   8.016 -0.2669 -0.0042  0.3921
34817POPC   C4B63795   7.991  26.767   8.478 -0.1544 -0.1257 -0.0207
34818POPC   NC363796  10.844  26.010   6.558  0.1288  0.2190  0.0137
34818POPC   PO463797  11.247  26.003   6.630 -0.1336 -0.4084  0.1554
34818POPC   GL163798  11.500  26.132   6.858 -0.1533 -0.0960  0.0610
34818POPC   GL263799  11.695  26.360   6.889 -0.0238 -0.0280  0.0497
34818POPC   C1A63800  11.389  26.282   7.290  0.0197 -0.0819  0.0812
34818POPC   D2A63801  11.374  26.581   7.666  0.0886 -0.2583 -0.2999
34818POPC   C3A63802  11.728  26.676   7.983 -0.0730 -0.1356 -0.0352
34818POPC   C4A63803  12.034  26.805   8.348 -0.0150  0.3095  0.0366
34818POPC   C1B63804  11.864  26.459   7.263 -0.0069  0.0735 -0.2339
34818POPC   C2B63805  12.227  26.754   7.474  0.1496  0.1222  0.0198
34818POPC   C3B63806  12.607  26.749   7.753 -0.1509 -0.1067 -0.2786
34818POPC   C4B63807  12.841  26.944   8.177 -0.0635 -0.1388  0.0899
34819POPC   NC363808  15.449  25.462   4.613  0.2937 -0.1617 -0.4257
34819POPC   PO463809  15.482  25.492   5.000  0.2222  0.0513  0.0383
34819POPC   GL163810  15.642  25.473   5.381 -0.0826 -0.3205 -0.2608
34819POPC   GL263811  15.902  25.592   5.269  0.1224 -0.0853 -0.1637
34819POPC   C1A63812  15.592  25.616   5.790 -0.2123 -0.1154  0.0058
34819POPC   D2A63813  15.555  25.717   6.233 -0.0190 -0.0900 -0.1036
34819POPC   C3A63814  15.702  25.423   6.510  0.2884  0.4331  0.1216
34819POPC   C4A63815  16.077  25.301   6.779  0.1529 -0.2149  0.0924
34819POPC   C1B63816  16.233  25.667   5.542 -0.0285 -0.0802  0.0672
34819POPC   C2B63817  16.502  25.526   5.890  0.1632  0.0243  0.3337
34819POPC   C3B63818  16.800  25.594   6.215  0.2987 -0.3076 -0.0772
34819POPC   C4B63819  17.053  25.580   6.576 -0.1329  0.3252 -0.1715
34820POPC   NC363820   9.300  19.936   7.296 -0.0011 -0.0127  0.2998
34820POPC   PO463821   8.964  20.191   7.393 -0.1145  0.0386 -0.0451
34820POPC   GL163822   9.024  19.845   7.698  0.1328  0.3923 -0.2413
34820POPC   GL263823   9.099  19.842   7.943 -0.2230  0.0770  0.1336
34820POPC   C1A63824   8.635  19.689   7.927  0.0197 -0.2231 -0.1047
34820POPC   D2A63825   8.274  19.510   7.642  0.4361  0.0144 -0.1742
34820POPC   C3A63826   8.001  19.120   7.726 -0.0080  0.1053 -0.0580
34820POPC   C4A63827   7.935  18.694   7.564  0.3770  0.1349  0.1765
34820POPC   C1B63828   9.063  19.378   8.061  0.1722  0.1152  0.0978
34820POPC   C2B63829   9.067  19.043   7.724 -0.0243  0.0426 -0.0213
34820POPC   C3B63830   9.313  18.659   7.626 -0.1614  0.1520 -0.1851
34820POPC   C4B63831   9.350  18.206   7.666  0.2782  0.4955  0.1311
34821POPC   NC363832  11.249  21.716  10.404  0.1765  0.1131  0.0572
34821POPC   PO463833  11.006  21.901  10.673  0.2218 -0.2392  0.0903
34821POPC   GL163834  10.943  21.410  10.858 -0.1914  0.0661  0.2366
34821POPC   GL263835  11.078  21.323  10.616  0.2257 -0.0855  0.0435
34821POPC   C1A63836  10.943  21.094  11.139 -0.1946 -0.0393  0.2144
34821POPC   D2A63837  11.084  20.873  11.496  0.1043  0.0019 -0.3647
34821POPC   C3A63838  11.396  21.046  11.776 -0.1668 -0.2763  0.0585
34821POPC   C4A63839  11.659  21.410  11.808  0.3570 -0.0233 -0.1906
34821POPC   C1B63840  11.407  21.092  10.816 -0.1054 -0.1121 -0.2931
34821POPC   C2B63841  11.517  20.934  11.291 -0.1064 -0.1852  0.0658
34821POPC   C3B63842  11.876  21.017  11.554 -0.2182  0.0487 -0.3877
34821POPC   C4B63843  12.320  20.847  11.687 -0.0014 -0.0100  0.3597
34822POPC   NC363844  15.654  31.479   4.173  0.0167  0.0305  0.1356
34822POPC   PO463845  16.036  31.625   4.241  0.3000 -0.1973  0.1460
34822POPC   GL163846  16.053  31.747   4.707  0.1109 -0.1608  0.2115
34822POPC   GL263847  15.752  31.730   4.663 -0.0794 -0.0518  0.1498
34822POPC   C1A63848  15.932  31.850   5.155 -0.0902  0.0078 -0.0853
34822POPC   D2A63849  16.085  31.710   5.523 -0.0581 -0.1460 -0.1968
34822POPC   C3A63850  16.457  31.877   5.703 -0.2752 -0.3051  0.0931
34822POPC   C4A63851  16.567  31.683   6.043  0.2607 -0.1543 -0.0656
34822POPC   C1B63852  15.627  31.474   4.988  0.1136 -0.0201 -0.1482
34822POPC   C2B63853  15.627  31.404   5.443  0.0049 -0.1609 -0.1859
34822POPC   C3B63854  15.685  31.218   5.919 -0.3420  0.0734  0.0145
34822POPC   C4B63855  15.457  31.318   6.291  0.0511  0.1284 -0.1489
34823POPC   NC363856   5.642   0.106   5.115  0.0050 -0.0285 -0.0959
34823POPC   PO463857   5.401  -0.039   4.858  0.1483 -0.2640  0.0148
34823POPC   GL163858   5.368  -0.317   5.165  0.4026 -0.0002 -0.2056
34823POPC   GL263859   5.203  -0.157   5.323 -0.2624 -0.0993  0.0741
34823POPC   C1A63860   5.612  -0.555   5.482 -0.0271  0.4588 -0.0890
34823POPC   D2A63861   5.729  -0.798   5.800 -0.2649  0.0193 -0.2362
34823POPC   C3A63862   6.136  -1.006   5.779 -0.1304 -0.0549  0.0702
34823POPC   C4A63863   6.560  -0.775   5.581 -0.0648 -0.1207  0.1250
34823POPC   C1B63864   4.979  -0.396   5.649  0.3092 -0.0127 -0.0121
34823POPC   C2B63865   5.030  -0.679   5.953  0.0879  0.1052 -0.1387
34823POPC   C3B63866   4.981  -1.111   6.152 -0.0288  0.1987  0.0718
34823POPC   C4B63867   4.984  -1.516   6.324 -0.2746  0.3467  0.0476
34824POPC   NC363868   8.590  21.799  10.603  0.0743  0.1584 -0.1505
34824POPC   PO463869   8.438  21.911  10.254 -0.1485  0.1416 -0.1318
34824POPC   GL163870   8.221  21.598  10.449  0.0627 -0.0710  0.0712
34824POPC   GL263871   8.072  21.644  10.664 -0.1034 -0.0171 -0.1211
34824POPC   C1A63872   7.761  21.454  10.360  0.1778 -0.2098  0.0403
34824POPC   D2A63873   7.505  21.112  10.267 -0.2739 -0.0709  0.3427
34824POPC   C3A63874   7.401  20.699  10.107 -0.2330 -0.0607  0.2345
34824POPC   C4A63875   7.560  20.270  10.206 -0.0288  0.2774  0.4137
34824POPC   C1B63876   7.646  21.562  10.802  0.2025 -0.0874 -0.0826
34824POPC   C2B63877   7.326  21.289  10.711  0.0648  0.0031 -0.1953
34824POPC   C3B63878   7.246  20.856  10.732  0.3045 -0.0704 -0.4925
34824POPC   C4B63879   6.939  20.515  10.884 -0.1054  0.0707 -0.0825
34825POPC   NC363880   3.037  25.372   4.604 -0.1402 -0.0719 -0.0858
34825POPC   PO463881   2.828  25.101   4.759  0.0733 -0.1121  0.0100
34825POPC   GL163882   2.722  25.281   5.163 -0.2637 -0.2302 -0.2906
34825POPC   GL263883   2.699  25.031   5.244  0.2554  0.4231  0.2674
34825POPC   C1A63884   2.964  25.697   5.166 -0.1518 -0.1564 -0.0739
34825POPC   D2A63885   2.837  26.008   5.461  0.1341 -0.2513  0.3394
34825POPC   C3A63886   2.901  26.203   5.912 -0.0775  0.0174  0.0883
34825POPC   C4A63887   2.950  26.119   6.338  0.2641  0.0796 -0.3784
34825POPC   C1B63888   2.909  25.084   5.638 -0.0868 -0.0178 -0.2441
34825POPC   C2B63889   3.028  24.861   6.046 -0.2999 -0.0253 -0.0336
34825POPC   C3B63890   2.986  24.977   6.526 -0.1497 -0.1566  0.1054
34825POPC   C4B63891   3.038  25.370   6.806  0.0419  0.3017  0.1750
34826POPC   NC363892   9.046  29.636   4.583 -0.0232  0.0286  0.4366
34826POPC   PO463893   9.184  29.348   4.859 -0.0073 -0.1443 -0.2551
34826POPC   GL163894   9.162  29.412   5.244 -0.0219  0.0811  0.2504
34826POPC   GL263895   9.354  29.299   5.463 -0.7200 -0.1315 -0.0603
34826POPC   C1A63896   8.840  29.372   5.526 -0.0621 -0.3401 -0.0543
34826POPC   D2A63897   8.655  29.277   5.933  0.0301  0.3171  0.0631
34826POPC   C3A63898   8.372  29.520   6.245 -0.2119  0.0301 -0.1489
34826POPC   C4A63899   8.048  29.471   6.492 -0.3423 -0.1580 -0.1424
34826POPC   C1B63900   9.329  29.393   5.934  0.1818 -0.1729  0.1791
34826POPC   C2B63901   9.131  29.255   6.343 -0.1115  0.0341  0.2559
34826POPC   C3B63902   8.942  29.224   6.819  0.1001 -0.0118  0.5247
34826POPC   C4B63903   9.096  29.245   7.251 -0.2530  0.1515  0.2305
34827POPC   NC363904  13.712  32.161   4.556  0.2650 -0.1009 -0.1467
34827POPC   PO463905  13.383  31.986   4.520  0.0672  0.0410 -0.1048
34827POPC   GL163906  13.426  31.997   4.915 -0.0545 -0.0520  0.1780
34827POPC   GL263907  13.582  31.681   4.931 -0.0582 -0.0605 -0.2515
34827POPC   C1A63908  13.217  31.921   5.330  0.0167 -0.0142  0.0661
34827POPC   D2A63909  13.294  31.667   5.765  0.1191 -0.3014 -0.0063
34827POPC   C3A63910  13.052  31.649   6.139  0.2355 -0.0227 -0.2264
34827POPC   C4A63911  12.730  31.561   6.448  0.0919 -0.0281 -0.1472
34827POPC   C1B63912  13.658  31.491   5.363 -0.0713 -0.4009  0.3492
34827POPC   C2B63913  13.893  31.312   5.669 -0.2816 -0.1411 -0.0993
34827POPC   C3B63914  13.977  31.098   6.040  0.0981 -0.0263  0.0016
34827POPC   C4B63915  14.182  30.794   6.261  0.0233 -0.2013 -0.0425
34828POPC   NC363916   5.897  21.340   6.302 -0.0306  0.0773 -0.1054
34828POPC   PO463917   5.962  21.501   6.637 -0.5005  0.4203 -0.0691
34828POPC   GL163918   5.851  21.269   6.977 -0.0902 -0.3907 -0.1340
34828POPC   GL263919   5.949  21.318   7.239  0.0564  0.0366 -0.1661
34828POPC   C1A63920   5.709  20.865   6.973  0.0491 -0.0401 -0.1233
34828POPC   D2A63921   5.434  20.519   6.944  0.0466 -0.0397 -0.0018
34828POPC   C3A63922   5.245  20.249   6.590 -0.1431  0.1413  0.1583
34828POPC   C4A63923   4.976  19.939   6.363 -0.3295 -0.2424  0.3235
34828POPC   C1B63924   5.562  21.248   7.473  0.0557  0.0111 -0.0463
34828POPC   C2B63925   5.099  21.049   7.538 -0.5810  0.3954 -0.1982
34828POPC   C3B63926   4.859  20.644   7.755 -0.3347 -0.2493  0.0197
34828POPC   C4B63927   4.659  20.264   7.782 -0.1359  0.1061 -0.2471
34829POPC   NC363928  14.984  19.355   4.476 -0.0179 -0.0671  0.2541
34829POPC   PO463929  15.259  19.464   4.766 -0.0215  0.0334  0.3223
34829POPC   GL163930  15.390  19.386   5.112  0.0084  0.4508 -0.0364
34829POPC   GL263931  15.625  19.425   5.275  0.0998 -0.1622  0.0347
34829POPC   C1A63932  15.167  19.135   5.496 -0.0716  0.1321  0.4000
34829POPC   D2A63933  15.333  19.036   5.913  0.0405 -0.1498  0.0718
34829POPC   C3A63934  15.245  18.609   6.095 -0.3752 -0.3876  0.0117
34829POPC   C4A63935  14.987  18.386   6.355 -0.0421 -0.0703  0.1424
34829POPC   C1B63936  15.714  19.376   5.720 -0.1404 -0.0321 -0.2322
34829POPC   C2B63937  15.827  19.068   6.034  0.0998  0.3522  0.0101
34829POPC   C3B63938  15.660  18.842   6.438 -0.2698  0.0002  0.0537
34829POPC   C4B63939  15.282  18.861   6.624  0.2327  0.2823  0.0056
34830POPC   NC363940  13.801  30.796   4.228  0.0778  0.0708  0.0106
34830POPC   PO463941  13.556  31.078   4.293  0.2877 -0.0399  0.1523
34830POPC   GL163942  13.577  31.273   4.613 -0.3840  0.0306 -0.1115
34830POPC   GL263943  13.343  31.275   4.790 -0.1721  0.0612 -0.0991
34830POPC   C1A63944  13.846  31.261   5.019 -0.0514  0.4135 -0.2291
34830POPC   D2A63945  14.009  30.951   5.327 -0.3955  0.1434  0.2543
34830POPC   C3A63946  14.033  30.703   5.707 -0.0264  0.1195  0.1600
34830POPC   C4A63947  13.957  30.308   5.916 -0.1989 -0.0195  0.0928
34830POPC   C1B63948  13.155  31.359   5.213  0.1299 -0.1066 -0.3217
34830POPC   C2B63949  13.141  31.162   5.617 -0.2477  0.2099  0.2715
34830POPC   C3B63950  13.443  31.234   6.008  0.1060  0.1083 -0.0471
34830POPC   C4B63951  13.756  31.425   6.306  0.2600  0.0934  0.0385
34831POPC   NC363952   5.331  21.259   6.130 -0.2847 -0.0448  0.2865
34831POPC   PO463953   5.617  20.946   6.171  0.1650  0.0970 -0.0222
34831POPC   GL163954   5.205  20.842   6.496  0.0105  0.1393  0.1293
34831POPC   GL263955   5.114  21.079   6.535 -0.0358  0.1502 -0.1134
34831POPC   C1A63956   4.956  20.558   6.750 -0.2922 -0.1553 -0.0254
34831POPC   D2A63957   5.043  20.195   7.073 -0.0042  0.0377  0.0418
34831POPC   C3A63958   5.132  20.256   7.492  0.0573 -0.0038  0.0366
34831POPC   C4A63959   5.190  20.027   7.842 -0.1743 -0.0709 -0.0804
34831POPC   C1B63960   4.713  21.075   6.809  0.3132 -0.1703 -0.1628
34831POPC   C2B63961   4.459  20.939   7.126 -0.2226  0.0829  0.3460
34831POPC   C3B63962   4.199  21.164   7.441 -0.3319 -0.1250  0.2500
34831POPC   C4B63963   4.045  21.027   7.881  0.2494  0.0721 -0.0943
34832POPC   NC363964   5.070  26.441   4.633  0.1183 -0.0526  0.1449
34832POPC   PO463965   4.813  26.117   4.712 -0.1978  0.1898  0.2010
34832POPC   GL163966   4.698  26.278   5.091  0.1300 -0.0081 -0.0491
34832POPC   GL263967   4.888  26.379   5.264  0.2639  0.1573  0.0234
34832POPC   C1A63968   4.495  26.672   5.251  0.1815 -0.0420 -0.1396
34832POPC   D2A63969   4.458  26.996   5.589  0.1697 -0.3491 -0.0875
34832POPC   C3A63970   4.007  27.175   5.641 -0.0063 -0.0361  0.0387
34832POPC   C4A63971   3.834  27.362   6.027  0.1349 -0.0391 -0.0675
34832POPC   C1B63972   4.749  26.417   5.682 -0.1950 -0.1080 -0.1922
34832POPC   C2B63973   4.732  26.271   6.149  0.0084  0.0244 -0.1016
34832POPC   C3B63974   4.688  26.305   6.552  0.2686  0.2995 -0.0783
34832POPC   C4B63975   4.537  26.587   6.920  0.0901  0.0798  0.0900
34833POPC   NC363976  13.605  19.318   5.518 -0.1687  0.1493  0.0732
34833POPC   PO463977  13.350  19.609   5.549 -0.3140 -0.0087 -0.0222
34833POPC   GL163978  13.578  19.522   5.925 -0.1080 -0.1289  0.0167
34833POPC   GL263979  13.823  19.676   6.012 -0.1757 -0.4648 -0.2257
34833POPC   C1A63980  13.641  19.331   6.357  0.3160  0.3732 -0.2103
34833POPC   D2A63981  13.858  19.311   6.821 -0.0349  0.0030  0.3534
34833POPC   C3A63982  13.644  19.119   7.177  0.1476  0.1195  0.0372
34833POPC   C4A63983  13.551  18.758   7.350 -0.2196  0.1822  0.3593
34833POPC   C1B63984  14.131  19.695   6.368  0.0847 -0.2598  0.2539
34833POPC   C2B63985  14.308  19.578   6.847 -0.1542 -0.0517  0.0781
34833POPC   C3B63986  14.687  19.429   7.069 -0.0913 -0.0842  0.0591
34833POPC   C4B63987  15.092  19.133   7.170 -0.0675 -0.1005 -0.1540
34834POPC   NC363988  11.247  23.365   8.385  0.3067  0.0195 -0.0375
34834POPC   PO463989  11.053  23.071   8.511  0.0256  0.1707 -0.3294
34834POPC   GL163990  11.269  23.319   8.858 -0.2428  0.3721 -0.1484
34834POPC   GL263991  11.202  23.612   8.926  0.2080  0.0974 -0.0306
34834POPC   C1A63992  11.425  23.319   9.309 -0.1326 -0.1971  0.1395
34834POPC   D2A63993  11.532  23.247   9.766  0.2124 -0.2120  0.0305
34834POPC   C3A63994  11.958  23.088   9.933  0.0476  0.0337 -0.0446
34834POPC   C4A63995  12.423  22.911   9.979 -0.3150 -0.3258  0.1127
34834POPC   C1B63996  11.254  24.030   8.919 -0.2498  0.1528 -0.1273
34834POPC   C2B63997  11.445  24.420   9.037  0.1993  0.0079  0.0904
34834POPC   C3B63998  11.455  24.807   9.203  0.3048 -0.0512 -0.0312
34834POPC   C4B63999  11.550  25.296   9.220  0.5751 -0.0411  0.1628
34835POPC   NC364000   7.078  27.558   5.378  0.1011 -0.1607 -0.3249
34835POPC   PO464001   6.707  27.636   5.424  0.1828 -0.1413  0.0626
34835POPC   GL164002   6.901  27.972   5.404 -0.0787  0.5085 -0.2359
34835POPC   GL264003   6.831  28.013   5.751 -0.2194  0.0650  0.2687
34835POPC   C1A64004   7.050  28.411   5.531  0.2798 -0.0972  0.4384
34835POPC   D2A64005   6.844  28.769   5.286 -0.1148  0.2194 -0.2491
34835POPC   C3A64006   6.453  28.924   5.485 -0.1590 -0.1290  0.0974
34835POPC   C4A64007   6.213  28.923   5.859  0.3031  0.1792 -0.0392
34835POPC   C1B64008   6.808  28.039   6.141 -0.1970  0.0470 -0.1924
34835POPC   C2B64009   6.807  28.193   6.590  0.1593 -0.1130  0.4505
34835POPC   C3B64010   6.695  28.158   7.003  0.0449 -0.1378 -0.1071
34835POPC   C4B64011   6.862  28.082   7.438 -0.2579 -0.1194 -0.0221
34836POPC   NC364012  31.503  28.015   4.800  0.3375  0.0599 -0.0501
34836POPC   PO464013  31.620  28.253   4.522 -0.0708 -0.0620  0.1448
34836POPC   GL164014  31.944  28.436   4.795 -0.0408 -0.3049 -0.2166
34836POPC   GL264015  32.003  28.757   4.784 -0.0937  0.0802 -0.3550
34836POPC   C1A64016  32.273  28.566   5.147 -0.3237 -0.2610 -0.0416
34836POPC   D2A64017  32.581  28.476   5.501 -0.2061  0.0625  0.0689
34836POPC   C3A64018  32.747  28.095   5.616 -0.2281 -0.0374 -0.0130
34836POPC   C4A64019  32.776  27.852   5.987  0.0587 -0.1230  0.2062
34836POPC   C1B64020  31.976  28.932   5.204  0.0703 -0.0069  0.3660
34836POPC   C2B64021  32.319  28.981   5.515  0.0499 -0.0810  0.3242
34836POPC   C3B64022  32.560  28.990   5.899  0.1193 -0.0190 -0.2203
34836POPC   C4B64023  32.498  29.279   6.341 -0.1056  0.0583  0.1748
34837POPC   NC364024  10.339  22.784  12.563 -0.0073 -0.0319 -0.1471
34837POPC   PO464025  10.412  22.832  12.158  0.1930 -0.1001  0.2857
34837POPC   GL164026  10.439  23.184  12.325  0.0665 -0.2585  0.4218
34837POPC   GL264027  10.679  23.328  12.400  0.1638  0.0358 -0.0886
34837POPC   C1A64028  10.452  23.547  12.019 -0.2246 -0.0425 -0.0231
34837POPC   D2A64029  10.524  23.996  11.909 -0.0964 -0.1208  0.0909
34837POPC   C3A64030  10.424  24.271  12.274  0.5299  0.4020 -0.0254
34837POPC   C4A64031  10.467  24.603  12.551  0.1114  0.3380  0.2719
34837POPC   C1B64032  10.728  23.796  12.377 -0.1206  0.3651  0.0492
34837POPC   C2B64033  10.905  24.217  12.355 -0.3238 -0.1237 -0.0090
34837POPC   C3B64034  10.838  24.606  12.171 -0.1728 -0.0352 -0.0219
34837POPC   C4B64035  10.393  24.770  12.119 -0.0457  0.1101 -0.0727
34838POPC   NC364036   9.309  24.421   8.170 -0.3218 -0.3834  0.1965
34838POPC   PO464037   9.501  24.196   8.424 -0.0257 -0.0863 -0.0201
34838POPC   GL164038   9.528  24.492   8.710  0.1295 -0.1126  0.2079
34838POPC   GL264039   9.527  24.358   9.044  0.0457  0.1489  0.0416
34838POPC   C1A64040   9.262  24.819   9.003 -0.1473  0.2259 -0.0574
34838POPC   D2A64041   9.120  25.280   8.994 -0.1271  0.3591 -0.0871
34838POPC   C3A64042   8.689  25.286   8.881  0.0396 -0.0280  0.0233
34838POPC   C4A64043   8.347  25.596   8.748 -0.1611 -0.0619  0.0987
34838POPC   C1B64044   9.700  24.729   9.310 -0.1566  0.3279  0.2736
34838POPC   C2B64045   9.791  25.147   9.473  0.1917 -0.0047 -0.2208
34838POPC   C3B64046   9.962  25.580   9.559 -0.1274 -0.3468  0.3768
34838POPC   C4B64047  10.183  25.903   9.747 -0.2979  0.1365  0.2345
34839POPC   NC364048   3.570  25.584   4.923  0.0930  0.2267 -0.1515
34839POPC   PO464049   3.558  25.188   4.879  0.0974 -0.0254  0.1773
34839POPC   GL164050   3.433  25.160   5.196 -0.2101 -0.0094 -0.0074
34839POPC   GL264051   3.149  25.239   5.172 -0.3691 -0.1043 -0.2168
34839POPC   C1A64052   3.647  25.503   5.447  0.2729  0.1987 -0.1326
34839POPC   D2A64053   3.779  25.901   5.306  0.0461 -0.1100 -0.2422
34839POPC   C3A64054   3.796  26.159   5.660  0.4101  0.1446 -0.0359
34839POPC   C4A64055   3.961  26.047   6.097  0.0854  0.0727  0.5447
34839POPC   C1B64056   3.176  25.504   5.556 -0.1718  0.3733  0.2253
34839POPC   C2B64057   2.951  25.638   5.893  0.2125 -0.0394 -0.0278
34839POPC   C3B64058   2.739  25.556   6.327 -0.1319  0.0643  0.0151
34839POPC   C4B64059   2.733  25.785   6.750 -0.0450 -0.0241  0.1019
34840POPC   NC364060   7.251  17.597   5.169 -0.0029  0.1417 -0.0109
34840POPC   PO464061   7.635  17.514   5.195 -0.1517 -0.3445  0.2352
34840POPC   GL164062   7.694  17.333   5.562 -0.4263  0.1564  0.1678
34840POPC   GL264063   7.613  17.543   5.724  0.1590 -0.0595  0.1546
34840POPC   C1A64064   7.772  16.937   5.827  0.0657  0.3114 -0.0385
34840POPC   D2A64065   7.987  16.691   6.162  0.0007 -0.1298  0.0090
34840POPC   C3A64066   8.009  16.549   6.615 -0.0559  0.0860  0.1819
34840POPC   C4A64067   7.975  16.657   7.052  0.0517 -0.1631 -0.2398
34840POPC   C1B64068   7.626  17.476   6.188  0.1640  0.0205 -0.1427
34840POPC   C2B64069   7.833  17.403   6.573 -0.0262 -0.2908  0.0502
34840POPC   C3B64070   7.877  17.254   7.032 -0.0050 -0.3194  0.3191
34840POPC   C4B64071   7.955  16.980   7.414  0.0274  0.0070  0.1985
34841POPC   NC364072   4.792  30.812   4.337  0.2456 -0.0174 -0.0874
34841POPC   PO464073   4.938  30.571   4.585 -0.1111  0.3032 -0.1333
34841POPC   GL164074   4.699  30.551   4.923  0.0455  0.4919  0.0298
34841POPC   GL264075   4.667  30.260   4.935 -0.0075  0.3207  0.2262
34841POPC   C1A64076   4.785  30.611   5.374 -0.0483 -0.2211  0.0873
34841POPC   D2A64077   4.767  30.409   5.805  0.1638 -0.1741  0.2048
34841POPC   C3A64078   4.857  30.695   6.177  0.1071  0.2870  0.1175
34841POPC   C4A64079   4.579  30.948   6.427 -0.2057 -0.1644  0.1325
34841POPC   C1B64080   4.319  30.301   5.338  0.1157  0.0238 -0.1110
34841POPC   C2B64081   4.107  30.502   5.730  0.1331  0.0762  0.1995
34841POPC   C3B64082   4.006  30.743   6.096  0.2788 -0.1828 -0.2144
34841POPC   C4B64083   4.077  31.212   6.297 -0.0134 -0.0424 -0.0721
34842POPC   NC364084   9.518  28.473   5.362  0.0190  0.0443 -0.3713
34842POPC   PO464085   9.138  28.376   5.377 -0.1580 -0.1329  0.2860
34842POPC   GL164086   9.078  28.362   5.707  0.0012  0.4585  0.0247
34842POPC   GL264087   9.208  28.491   5.892  0.2781  0.0824  0.0671
34842POPC   C1A64088   8.728  28.690   5.808 -0.0039 -0.0488  0.0873
34842POPC   D2A64089   8.337  28.913   5.952  0.0723 -0.2954  0.1679
34842POPC   C3A64090   8.120  29.288   5.864 -0.0288 -0.0051 -0.3232
34842POPC   C4A64091   7.669  29.410   5.907 -0.2078 -0.0724  0.1051
34842POPC   C1B64092   9.300  28.427   6.311 -0.0120  0.3497  0.1091
34842POPC   C2B64093   9.441  28.661   6.726 -0.0018 -0.2411 -0.0545
34842POPC   C3B64094   9.444  28.905   7.144  0.0466  0.0034  0.0494
34842POPC   C4B64095   9.269  28.835   7.543 -0.0585  0.4400  0.2725
34843POPC   NC364096   1.337  17.454   4.699  0.4559  0.0475 -0.0120
34843POPC   PO464097   1.650  17.570   4.859 -0.2153 -0.1658  0.1608
34843POPC   GL164098   1.510  17.375   5.175 -0.0302  0.1927 -0.3058
34843POPC   GL264099   1.718  17.154   5.234  0.0408  0.1680 -0.1414
34843POPC   C1A64100   1.364  17.325   5.645  0.0136  0.0726  0.2779
34843POPC   D2A64101   1.275  17.371   6.106  0.0546 -0.2242  0.0728
34843POPC   C3A64102   1.197  17.834   6.279 -0.0074  0.2441 -0.0254
34843POPC   C4A64103   1.527  18.167   6.138 -0.0448 -0.0379  0.0298
34843POPC   C1B64104   1.867  17.359   5.661  0.0885  0.2789 -0.0882
34843POPC   C2B64105   1.982  17.159   6.126  0.1948  0.3470  0.2950
34843POPC   C3B64106   1.948  16.853   6.507 -0.1092 -0.1294  0.0991
34843POPC   C4B64107   1.663  16.584   6.797 -0.2483 -0.1795  0.3436
34844POPC   NC364108   9.427  25.674   6.517  0.1422  0.0043  0.2843
34844POPC   PO464109   9.302  25.909   6.797  0.0597  0.1809  0.1768
34844POPC   GL164110   9.268  26.191   7.154 -0.2217  0.3907 -0.2080
34844POPC   GL264111   9.462  26.010   7.298  0.2723  0.4263  0.0530
34844POPC   C1A64112   9.159  26.599   7.267  0.1001 -0.1661 -0.0622
34844POPC   D2A64113   9.279  26.983   7.503 -0.1062 -0.1804 -0.0310
34844POPC   C3A64114   9.465  27.068   7.966 -0.1789 -0.1009  0.3953
34844POPC   C4A64115   9.651  27.040   8.426  0.3111  0.0886  0.0346
34844POPC   C1B64116   9.473  26.332   7.631 -0.0175 -0.0545  0.0881
34844POPC   C2B64117   9.705  26.709   7.790  0.4796  0.0590  0.2923
34844POPC   C3B64118  10.090  26.831   8.045  0.0419  0.0592  0.3194
34844POPC   C4B64119  10.341  27.200   7.984  0.3338  0.0866  0.1730
34845POPC   NC364120   8.774  21.265   8.662  0.2147 -0.1320  0.2209
34845POPC   PO464121   8.623  21.119   8.327 -0.0207  0.1062  0.0551
34845POPC   GL164122   8.412  20.783   8.480 -0.0316  0.3645  0.1435
34845POPC   GL264123   8.459  20.909   8.734 -0.0750  0.1319  0.2762
34845POPC   C1A64124   7.999  20.606   8.406  0.3080  0.3297  0.0824
34845POPC   D2A64125   7.600  20.384   8.645  0.1376  0.2928 -0.0509
34845POPC   C3A64126   7.417  19.976   8.836 -0.2446 -0.2396 -0.0747
34845POPC   C4A64127   7.055  19.830   8.992 -0.2302  0.0099 -0.0501
34845POPC   C1B64128   8.481  20.520   8.993 -0.0432 -0.2280 -0.0077
34845POPC   C2B64129   8.340  20.075   9.048  0.0450  0.0068  0.2107
34845POPC   C3B64130   8.447  19.679   8.813 -0.1788 -0.0623 -0.0415
34845POPC   C4B64131   8.853  19.450   8.751  0.0520 -0.2364  0.1139
34846POPC   NC364132   9.789  18.957   5.844  0.0293 -0.1747 -0.0182
34846POPC   PO464133   9.444  18.814   5.917 -0.0646  0.1066 -0.2050
34846POPC   GL164134   9.583  18.704   6.315 -0.0181  0.3883 -0.0512
34846POPC   GL264135   9.506  18.529   6.456 -0.1449  0.3742 -0.1243
34846POPC   C1A64136   9.959  18.669   6.575  0.1839  0.1545  0.2615
34846POPC   D2A64137  10.021  18.310   6.832  0.0512 -0.0257  0.1437
34846POPC   C3A64138  10.194  18.056   6.467 -0.1334 -0.3355  0.1051
34846POPC   C4A64139  10.669  17.950   6.335 -0.1081  0.1599  0.3776
34846POPC   C1B64140   9.133  18.317   6.620 -0.0419  0.2017 -0.0409
34846POPC   C2B64141   8.993  18.044   6.934  0.1737  0.4624  0.0240
34846POPC   C3B64142   8.984  17.876   7.357  0.2607 -0.1986 -0.1588
34846POPC   C4B64143   8.882  17.463   7.703  0.0171 -0.0886  0.4825
34847POPC   NC364144   7.923  31.435   4.513 -0.1118  0.1373 -0.1909
34847POPC   PO464145   8.201  31.665   4.751 -0.0030  0.3277  0.1030
34847POPC   GL164146   8.303  31.823   5.054 -0.4584  0.1304 -0.1141
34847POPC   GL264147   8.545  31.700   5.126 -0.0215 -0.3196  0.0671
34847POPC   C1A64148   8.099  31.637   5.428  0.1021 -0.2284 -0.1570
34847POPC   D2A64149   8.038  31.705   5.851 -0.0150 -0.1039  0.0108
34847POPC   C3A64150   8.171  31.303   6.077 -0.2172 -0.0717  0.0237
34847POPC   C4A64151   8.360  30.922   6.053 -0.1495  0.1332 -0.2926
34847POPC   C1B64152   8.599  31.583   5.560 -0.0944  0.1307  0.0943
34847POPC   C2B64153   8.652  31.347   5.915 -0.0772 -0.2469 -0.0408
34847POPC   C3B64154   8.794  31.147   6.326 -0.1918 -0.0147  0.2017
34847POPC   C4B64155   8.703  31.105   6.772  0.0189 -0.3576  0.0853
34848POPC   NC364156  10.399  23.928   8.312  0.0300  0.2350  0.0587
34848POPC   PO464157  10.288  24.236   8.536 -0.0997  0.3285 -0.1027
34848POPC   GL164158  10.609  24.382   8.742 -0.4318  0.0191 -0.0727
34848POPC   GL264159  10.486  24.505   8.926 -0.0323  0.0284 -0.0769
34848POPC   C1A64160  10.927  24.624   9.019  0.1609  0.0586 -0.1055
34848POPC   D2A64161  11.027  24.684   9.490  0.0099 -0.0716 -0.1866
34848POPC   C3A64162  11.220  25.083   9.729 -0.0574 -0.1034  0.3912
34848POPC   C4A64163  11.356  25.518   9.731  0.1497  0.1273  0.3709
34848POPC   C1B64164  10.036  24.770   8.932  0.1448  0.0575 -0.1609
34848POPC   C2B64165   9.680  25.095   9.012  0.2276 -0.0889  0.2407
34848POPC   C3B64166   9.555  25.537   9.234  0.1672  0.1842  0.0532
34848POPC   C4B64167   9.542  25.958   9.509 -0.0930 -0.3831  0.2859
34849POPC   NC364168   6.544  32.732   4.715 -0.1986  0.0788  0.1935
34849POPC   PO464169   6.885  32.834   4.880  0.2781  0.1026 -0.0182
34849POPC   GL164170   6.780  32.640   5.292 -0.0631  0.1636  0.3052
34849POPC   GL264171   6.915  32.613   5.437 -0.0303 -0.1254 -0.0764
34849POPC   C1A64172   6.398  32.774   5.585 -0.0817 -0.2106  0.2777
34849POPC   D2A64173   6.289  32.776   6.049  0.0650 -0.0287 -0.1519
34849POPC   C3A64174   6.090  32.563   6.430 -0.3080  0.4083  0.0470
34849POPC   C4A64175   5.696  32.329   6.594  0.1415 -0.2704 -0.0441
34849POPC   C1B64176   6.667  32.441   5.873  0.0263 -0.2134 -0.0572
34849POPC   C2B64177   6.338  32.310   6.088  0.1613 -0.1585  0.1357
34849POPC   C3B64178   5.976  32.048   6.256 -0.1716  0.0216 -0.1267
34849POPC   C4B64179   5.913  31.640   6.220 -0.1046  0.0824  0.3649
34850POPC   NC364180   7.429  24.990   5.943 -0.3489 -0.4109  0.0427
34850POPC   PO464181   7.214  24.804   6.232 -0.0480 -0.1332  0.0363
34850POPC   GL164182   7.150  25.184   6.355  0.0353 -0.3338 -0.0932
34850POPC   GL264183   6.957  25.047   6.584 -0.1386 -0.0105  0.1192
34850POPC   C1A64184   7.025  25.639   6.436 -0.1587 -0.0688  0.0208
34850POPC   D2A64185   6.709  25.937   6.336  0.1936 -0.0862  0.0544
34850POPC   C3A64186   6.612  26.268   6.656  0.0075  0.0952 -0.0745
34850POPC   C4A64187   6.223  26.560   6.757 -0.0987 -0.0061 -0.0718
34850POPC   C1B64188   6.731  25.204   6.845 -0.1335  0.1614 -0.0981
34850POPC   C2B64189   6.486  25.392   7.139  0.4259 -0.3090 -0.0200
34850POPC   C3B64190   6.229  25.494   7.515  0.1891 -0.1086 -0.0055
34850POPC   C4B64191   6.008  25.460   7.961 -0.0487 -0.2827 -0.0393
34851POPC   NC364192   9.181  32.039   4.901  0.0229  0.4622 -0.0777
34851POPC   PO464193   9.404  31.763   4.976 -0.1076  0.0693 -0.2061
34851POPC   GL164194   9.416  32.077   5.280  0.1966 -0.2539 -0.2293
34851POPC   GL264195   9.506  31.798   5.455 -0.2226 -0.2219 -0.4475
34851POPC   C1A64196   9.272  32.132   5.737 -0.0530 -0.0582  0.3161
34851POPC   D2A64197   8.947  31.803   5.844  0.0221 -0.0880  0.0408
34851POPC   C3A64198   8.941  31.686   6.261  0.0631  0.0075 -0.0824
34851POPC   C4A64199   8.847  31.765   6.724  0.0709  0.1851  0.0559
34851POPC   C1B64200   9.804  31.880   5.869 -0.1405  0.2324 -0.1146
34851POPC   C2B64201   9.953  31.674   6.260  0.2778  0.0695  0.3158
34851POPC   C3B64202  10.266  31.851   6.582  0.1198 -0.3351  0.1989
34851POPC   C4B64203  10.378  32.142   6.962 -0.2561  0.0590 -0.3817
34852POPC   NC364204   5.815  24.838   5.316 -0.0648 -0.0964  0.0512
34852POPC   PO464205   6.015  25.143   5.407 -0.0731  0.1868  0.0188
34852POPC   GL164206   5.927  25.201   5.835 -0.1870 -0.1076  0.1864
34852POPC   GL264207   5.781  24.944   5.813  0.1738 -0.1557 -0.3996
34852POPC   C1A64208   6.146  25.466   6.084  0.0687 -0.0360  0.0412
34852POPC   D2A64209   6.201  25.874   6.135  0.1007 -0.0829 -0.0530
34852POPC   C3A64210   6.142  26.048   6.606  0.0091 -0.1546 -0.1214
34852POPC   C4A64211   6.076  26.100   7.058 -0.2041 -0.1229 -0.0179
34852POPC   C1B64212   5.537  24.984   6.268  0.3539  0.0937  0.2224
34852POPC   C2B64213   5.164  25.003   6.556  0.1196 -0.1728  0.0470
34852POPC   C3B64214   5.107  25.330   6.809 -0.1686  0.1781 -0.0995
34852POPC   C4B64215   4.848  25.612   6.872 -0.2194 -0.0379 -0.1133
34853POPC   NC364216  11.587  26.241   6.312 -0.0085 -0.4490 -0.1966
34853POPC   PO464217  11.283  26.372   6.141  0.4298  0.1319  0.0422
34853POPC   GL164218  11.413  26.702   6.350  0.0953 -0.0303  0.1169
34853POPC   GL264219  11.369  26.605   6.600 -0.5037 -0.0543 -0.0681
34853POPC   C1A64220  11.771  26.812   6.640  0.0538 -0.1982  0.1341
34853POPC   D2A64221  12.089  26.911   7.005 -0.0157  0.1555  0.2314
34853POPC   C3A64222  12.524  26.869   6.894  0.0166 -0.0990  0.0997
34853POPC   C4A64223  12.454  26.678   6.499  0.0490 -0.1521  0.3500
34853POPC   C1B64224  11.430  26.803   7.036 -0.0628 -0.3296 -0.0165
34853POPC   C2B64225  11.711  26.958   7.377  0.1807  0.0038 -0.0996
34853POPC   C3B64226  12.025  27.235   7.354  0.0052 -0.0116 -0.0610
34853POPC   C4B64227  12.348  27.189   7.705  0.0471  0.0478  0.2430
34854POPC   NC364228   8.416  22.486  10.936  0.3792 -0.0711  0.0399
34854POPC   PO464229   8.664  22.223  10.852 -0.2023 -0.0566 -0.1936
34854POPC   GL164230   8.495  22.149  11.209 -0.0481  0.5480 -0.1068
34854POPC   GL264231   8.285  21.989  11.021 -0.0198  0.1429  0.0129
34854POPC   C1A64232   8.103  22.349  11.382 -0.2212  0.2453  0.0251
34854POPC   D2A64233   7.802  22.061  11.600  0.1900 -0.0985  0.0076
34854POPC   C3A64234   7.986  21.738  11.873  0.2120  0.0893  0.0435
34854POPC   C4A64235   8.057  21.425  12.178  0.1780  0.1243  0.2437
34854POPC   C1B64236   7.847  21.993  11.063 -0.0727 -0.0530  0.4433
34854POPC   C2B64237   7.488  22.028  10.765  0.0310 -0.0574 -0.1514
34854POPC   C3B64238   7.050  21.931  10.798  0.5302  0.3126 -0.2197
34854POPC   C4B64239   6.646  21.760  10.628  0.1104 -0.1402 -0.1667
34855POPC   NC364240  32.694  29.576   3.428  0.2440  0.1237  0.1005
34855POPC   PO464241  32.644  29.830   3.756 -0.0142  0.2126  0.1460
34855POPC   GL164242  32.522  29.882   4.072  0.1797 -0.2139 -0.3696
34855POPC   GL264243  32.842  30.003   4.233 -0.2764 -0.1502  0.4357
34855POPC   C1A64244  32.535  29.708   4.457 -0.1031 -0.0142 -0.2262
34855POPC   D2A64245  32.727  29.407   4.778 -0.2369  0.3502  0.1960
34855POPC   C3A64246  32.617  29.564   5.224 -0.2913  0.1119  0.1805
34855POPC   C4A64247  32.535  29.883   5.556  0.1546  0.0200  0.0962
34855POPC   C1B64248  32.669  30.287   4.624  0.1148  0.1182 -0.0520
34855POPC   C2B64249  32.491  30.273   5.053 -0.4052 -0.1626 -0.1101
34855POPC   C3B64250  32.146  30.047   5.253 -0.2055 -0.0746  0.3038
34855POPC   C4B64251  31.924  29.907   5.657 -0.0412 -0.0334 -0.0245
34856POPC   NC364252  10.191  17.688   5.069  0.1380  0.0351 -0.0637
34856POPC   PO464253  10.285  18.029   5.131  0.1503  0.1974  0.0357
34856POPC   GL164254  10.479  18.032   5.486  0.0361 -0.1793 -0.3900
34856POPC   GL264255  10.421  17.717   5.576 -0.0326 -0.3010 -0.2935
34856POPC   C1A64256  10.240  18.160   5.889 -0.1982  0.2793  0.0889
34856POPC   D2A64257   9.871  18.387   6.050  0.0302 -0.1261  0.0742
34856POPC   C3A64258   9.748  18.024   6.333  0.1692  0.0931  0.3520
34856POPC   C4A64259   9.745  17.750   6.701 -0.2795  0.2317  0.2046
34856POPC   C1B64260  10.728  17.613   5.879 -0.1740  0.0648  0.2078
34856POPC   C2B64261  10.659  17.368   6.197  0.1510 -0.0331  0.3665
34856POPC   C3B64262  10.924  17.187   6.540 -0.0184  0.0123 -0.0869
34856POPC   C4B64263  11.215  16.805   6.679  0.1306 -0.0394  0.1710
34857POPC   NC364264   3.580  19.587   5.093 -0.3403  0.2513 -0.2310
34857POPC   PO464265   3.792  19.864   5.256 -0.2677 -0.2130  0.3621
34857POPC   GL164266   3.770  19.644   5.555 -0.1365  0.0734  0.2556
34857POPC   GL264267   3.442  19.643   5.561 -0.2531  0.1094  0.4189
34857POPC   C1A64268   3.944  19.717   5.965  0.3820 -0.2128 -0.0325
34857POPC   D2A64269   3.914  20.150   6.107 -0.2629 -0.2366 -0.3903
34857POPC   C3A64270   4.152  20.179   6.547 -0.0277  0.0173  0.2124
34857POPC   C4A64271   4.256  20.003   6.946  0.1699 -0.3332 -0.1752
34857POPC   C1B64272   3.221  19.412   5.850 -0.2744  0.0776 -0.1935
34857POPC   C2B64273   3.004  19.336   6.262 -0.0402 -0.1681 -0.3636
34857POPC   C3B64274   2.824  19.276   6.704  0.1857  0.2431 -0.2394
34857POPC   C4B64275   2.666  19.009   7.079 -0.1877  0.0680 -0.1510
34858POPC   NC364276   5.125  24.513   5.419 -0.0494  0.0820  0.3144
34858POPC   PO464277   5.473  24.655   5.566 -0.1997  0.1070 -0.2804
34858POPC   GL164278   5.237  24.541   5.943 -0.2317  0.0452  0.3939
34858POPC   GL264279   5.486  24.551   6.058  0.2217 -0.0184 -0.4383
34858POPC   C1A64280   5.313  24.113   6.122  0.1957 -0.1558  0.0725
34858POPC   D2A64281   5.447  23.929   6.525 -0.2834  0.0832  0.0446
34858POPC   C3A64282   5.470  24.242   6.900 -0.0101  0.0048  0.3562
34858POPC   C4A64283   5.141  24.292   7.276  0.1254 -0.2324  0.0256
34858POPC   C1B64284   5.337  24.499   6.429 -0.0223 -0.0604  0.0999
34858POPC   C2B64285   5.058  24.490   6.778  0.3371 -0.2620 -0.0062
34858POPC   C3B64286   4.924  24.722   7.140 -0.0222 -0.0175  0.0349
34858POPC   C4B64287   4.734  24.924   7.513 -0.1218  0.3166  0.0227
34859POPC   NC364288  14.463  31.477   3.806 -0.0228 -0.0552 -0.2102
34859POPC   PO464289  14.550  31.440   4.219 -0.1300  0.1044  0.1218
34859POPC   GL164290  14.601  31.197   4.462  0.1381 -0.1173 -0.0668
34859POPC   GL264291  14.919  31.183   4.449  0.0360  0.2144  0.0309
34859POPC   C1A64292  14.275  31.123   4.879  0.0810  0.3542 -0.0702
34859POPC   D2A64293  14.278  31.356   5.311 -0.2880 -0.1097  0.1518
34859POPC   C3A64294  14.360  31.116   5.723  0.0678  0.1093 -0.0170
34859POPC   C4A64295  14.540  31.169   6.152  0.1093 -0.1281 -0.0499
34859POPC   C1B64296  15.091  31.383   4.856  0.1289  0.0960 -0.1558
34859POPC   C2B64297  15.158  31.336   5.307  0.1903 -0.0868 -0.0801
34859POPC   C3B64298  15.189  31.405   5.740 -0.0606 -0.0657 -0.0701
34859POPC   C4B64299  14.969  31.293   6.144  0.0184 -0.0676  0.3139
34860POPC   NC364300   0.097   1.040   4.102 -0.2022  0.2278 -0.2865
34860POPC   PO464301   0.448   1.018   4.349  0.0299 -0.0093  0.2139
34860POPC   GL164302   0.583   0.992   4.722 -0.1131  0.1088  0.3474
34860POPC   GL264303   0.520   1.248   4.853  0.1249  0.0947  0.0496
34860POPC   C1A64304   0.879   0.655   4.864 -0.1680  0.2483  0.1291
34860POPC   D2A64305   1.018   0.232   4.827  0.0103 -0.3282  0.2421
34860POPC   C3A64306   0.771  -0.084   5.054  0.0407  0.0846 -0.3476
34860POPC   C4A64307   0.517  -0.088   5.459  0.0265  0.3357 -0.3165
34860POPC   C1B64308   0.454   1.147   5.317 -0.2437 -0.1477  0.0908
34860POPC   C2B64309   0.325   1.002   5.780  0.2826 -0.0473  0.1348
34860POPC   C3B64310   0.134   0.763   6.167 -0.0736  0.1251  0.0973
34860POPC   C4B64311  -0.159   0.378   6.270  0.2473 -0.0988 -0.1639
34861POPC   NC364312  11.156  24.068   7.436  0.0279 -0.0700 -0.2355
34861POPC   PO464313  10.886  24.351   7.327  0.0454 -0.1315  0.4636
34861POPC   GL164314  10.921  24.473   7.719 -0.0457 -0.2701  0.3182
34861POPC   GL264315  11.154  24.659   7.634 -0.1822 -0.3032 -0.0293
34861POPC   C1A64316  11.041  24.715   8.131 -0.0778  0.1111 -0.1244
34861POPC   D2A64317  11.286  25.124   8.192  0.1448  0.2235  0.1157
34861POPC   C3A64318  11.542  25.205   8.583 -0.1187 -0.1692 -0.0511
34861POPC   C4A64319  12.004  25.288   8.766 -0.1300 -0.1165 -0.0052
34861POPC   C1B64320  11.457  24.990   7.761  0.0259  0.0274 -0.2297
34861POPC   C2B64321  11.733  25.257   8.066  0.0686  0.0779 -0.2686
34861POPC   C3B64322  12.108  25.493   8.267  0.1542  0.0204 -0.0391
34861POPC   C4B64323  12.521  25.648   8.482 -0.0201  0.0318 -0.0629
34862POPC   NC364324   3.299  24.145   4.942  0.2153  0.2848  0.1855
34862POPC   PO464325   3.149  24.165   5.271 -0.0089 -0.0557  0.1283
34862POPC   GL164326   3.186  23.902   5.558 -0.3546 -0.1008 -0.2041
34862POPC   GL264327   2.977  23.834   5.712 -0.1316 -0.1027  0.2042
34862POPC   C1A64328   3.404  23.975   5.970 -0.1856 -0.1836 -0.0743
34862POPC   D2A64329   3.221  23.936   6.417 -0.1241 -0.3307 -0.2944
34862POPC   C3A64330   3.215  24.313   6.684 -0.1883 -0.0238  0.2854
34862POPC   C4A64331   2.978  24.635   6.948 -0.1599  0.2492 -0.1732
34862POPC   C1B64332   2.788  23.935   6.087  0.0191  0.0327  0.1966
34862POPC   C2B64333   2.719  24.025   6.541  0.3081  0.3675  0.0347
34862POPC   C3B64334   2.813  24.131   6.951  0.1089 -0.1401  0.1719
34862POPC   C4B64335   3.101  24.108   7.293 -0.0516  0.0303  0.0521
34863POPC   NC364336  14.920  16.980   4.588 -0.0008  0.1209 -0.0631
34863POPC   PO464337  14.979  16.718   4.290 -0.1339  0.1314  0.0528
34863POPC   GL164338  15.036  16.563   4.673  0.0649  0.2372 -0.2109
34863POPC   GL264339  15.011  16.281   4.549  0.0013  0.0024  0.1239
34863POPC   C1A64340  15.256  16.664   5.077 -0.1998 -0.0856 -0.0856
34863POPC   D2A64341  15.259  16.765   5.494 -0.0574 -0.0946  0.0035
34863POPC   C3A64342  15.492  16.588   5.788  0.1506 -0.0963  0.2870
34863POPC   C4A64343  15.590  16.611   6.233 -0.0077  0.0108 -0.0306
34863POPC   C1B64344  14.940  16.290   5.036 -0.0015 -0.0105 -0.0961
34863POPC   C2B64345  15.204  16.295   5.445  0.0448  0.1829 -0.1818
34863POPC   C3B64346  15.294  16.079   5.861  0.1015  0.0656  0.2532
34863POPC   C4B64347  15.489  15.716   5.977 -0.0256  0.3067  0.0162
34864POPC   NC364348   7.630  21.024   8.247 -0.1471  0.1053 -0.2241
34864POPC   PO464349   7.766  21.361   8.340 -0.3343 -0.1122 -0.2348
34864POPC   GL164350   7.570  21.187   8.682 -0.3145 -0.0310  0.0488
34864POPC   GL264351   7.306  21.284   8.548  0.2540  0.1105 -0.0089
34864POPC   C1A64352   7.636  20.843   8.926  0.1750  0.3130  0.2353
34864POPC   D2A64353   7.705  20.663   9.316 -0.0422 -0.0922  0.0903
34864POPC   C3A64354   7.340  20.685   9.569  0.2108  0.0461 -0.0331
34864POPC   C4A64355   6.975  20.749   9.844  0.1719 -0.2175  0.0113
34864POPC   C1B64356   6.839  21.291   8.627 -0.2414  0.1131 -0.0959
34864POPC   C2B64357   6.624  20.952   8.895  0.1168 -0.2262  0.1047
34864POPC   C3B64358   6.486  20.672   9.279  0.0649 -0.0520  0.0887
34864POPC   C4B64359   6.095  20.601   9.514  0.2446  0.0681  0.0475
34865POPC   NC364360  10.417  26.748   6.771  0.1754  0.0776  0.0799
34865POPC   PO464361  10.502  26.374   6.762  0.0829 -0.0358  0.1535
34865POPC   GL164362  10.781  26.542   6.989  0.0634  0.1205  0.2189
34865POPC   GL264363  11.058  26.379   6.958  0.3280 -0.1401  0.2972
34865POPC   C1A64364  10.972  26.862   7.284  0.1660 -0.0668  0.0958
34865POPC   D2A64365  11.017  26.974   7.748 -0.0377  0.2827 -0.0782
34865POPC   C3A64366  11.425  27.090   7.892  0.4395  0.0125  0.1759
34865POPC   C4A64367  11.878  27.101   7.864  0.0376  0.0379  0.1205
34865POPC   C1B64368  10.911  26.286   7.382 -0.0203 -0.0020 -0.4161
34865POPC   C2B64369  10.906  26.466   7.804 -0.4628  0.3290  0.0992
34865POPC   C3B64370  10.644  26.800   8.012 -0.0103  0.1142  0.0856
34865POPC   C4B64371  10.525  26.832   8.459 -0.1139 -0.2723  0.2647
34866POPC   NC364372  11.384   0.044   5.233 -0.2251  0.1555 -0.2948
34866POPC   PO464373  11.580  -0.094   4.952  0.3270 -0.2940 -0.1635
34866POPC   GL164374  11.637  -0.401   5.169 -0.0936 -0.2580 -0.1966
34866POPC   GL264375  11.463  -0.525   5.347 -0.0334  0.2542  0.1192
34866POPC   C1A64376  11.914  -0.638   5.522 -0.2541 -0.3995 -0.2063
34866POPC   D2A64377  11.924  -0.810   5.906 -0.2273  0.0027 -0.0045
34866POPC   C3A64378  11.954  -0.581   6.348 -0.1496  0.2127 -0.0314
34866POPC   C4A64379  12.063  -0.406   6.789 -0.2871 -0.1332  0.0499
34866POPC   C1B64380  11.473  -0.731   5.762  0.0943 -0.0161 -0.0956
34866POPC   C2B64381  11.440  -0.783   6.192  0.0861  0.1992  0.1709
34866POPC   C3B64382  11.350  -0.975   6.560 -0.0262 -0.1158  0.2748
34866POPC   C4B64383  11.139  -1.246   6.856  0.1290 -0.0774 -0.1571
34867POPC   NC364384   2.022  32.232   3.793 -0.2298 -0.1864 -0.2452
34867POPC   PO464385   2.082  32.038   4.105  0.0678 -0.0834 -0.2364
34867POPC   GL164386   2.158  31.860   4.459 -0.0936 -0.0216  0.0292
34867POPC   GL264387   2.458  32.024   4.546  0.0426  0.1530 -0.0433
34867POPC   C1A64388   1.785  31.910   4.782  0.0117  0.0877  0.1240
34867POPC   D2A64389   1.480  31.972   5.095 -0.1007 -0.2898  0.1630
34867POPC   C3A64390   1.468  31.696   5.405 -0.0235 -0.0706 -0.1879
34867POPC   C4A64391   1.364  31.227   5.454  0.1961  0.3725  0.2240
34867POPC   C1B64392   2.624  32.349   4.809  0.4220 -0.1760  0.2410
34867POPC   C2B64393   2.721  32.575   5.212  0.1828  0.3767  0.0405
34867POPC   C3B64394   2.698  32.663   5.652  0.2018 -0.3893 -0.2283
34867POPC   C4B64395   2.819  32.372   5.970 -0.0955 -0.0532  0.1452
34868POPC   NC364396   2.985  27.382   4.614 -0.2156  0.1403 -0.2792
34868POPC   PO464397   2.700  27.561   4.382 -0.0801  0.1229  0.0969
34868POPC   GL164398   2.453  27.780   4.589  0.1438  0.1463  0.0882
34868POPC   GL264399   2.634  27.962   4.693 -0.2093  0.2472  0.0343
34868POPC   C1A64400   2.109  27.788   4.936  0.2471 -0.0321  0.0299
34868POPC   D2A64401   1.662  27.991   5.096  0.1000 -0.0533  0.1037
34868POPC   C3A64402   1.886  28.317   4.989 -0.1644  0.0001 -0.0324
34868POPC   C4A64403   2.008  28.766   4.935 -0.3817 -0.0300  0.0517
34868POPC   C1B64404   2.494  28.042   5.153 -0.2117  0.0534 -0.1952
34868POPC   C2B64405   2.455  28.169   5.582  0.2631 -0.0496  0.1122
34868POPC   C3B64406   2.286  28.016   5.959 -0.4003 -0.0170 -0.1367
34868POPC   C4B64407   1.963  28.022   6.230  0.0848  0.3882 -0.2079
34869POPC   NC364408  11.187  22.580   8.396 -0.3315  0.0101  0.2176
34869POPC   PO464409  11.536  22.421   8.522  0.2813 -0.2420 -0.2529
34869POPC   GL164410  11.908  22.523   8.605  0.0643  0.0390  0.1531
34869POPC   GL264411  11.971  22.309   8.715  0.2471 -0.2551 -0.3223
34869POPC   C1A64412  12.163  22.932   8.652 -0.1286 -0.6038 -0.2057
34869POPC   D2A64413  12.493  23.257   8.744 -0.1558  0.1393 -0.0054
34869POPC   C3A64414  12.634  23.215   9.204  0.0744  0.2118 -0.0881
34869POPC   C4A64415  12.786  22.838   9.423  0.0683 -0.0619 -0.1806
34869POPC   C1B64416  12.441  22.365   8.702 -0.1170 -0.1568  0.0333
34869POPC   C2B64417  12.785  22.301   9.036  0.0051  0.2683 -0.0450
34869POPC   C3B64418  13.105  22.348   9.329  0.0798  0.1951  0.1225
34869POPC   C4B64419  13.262  22.770   9.533  0.1495 -0.2267  0.1484
34870POPC   NC364420  15.606  30.730   4.220  0.2626  0.0837 -0.0067
34870POPC   PO464421  15.974  30.795   4.391  0.1995  0.0369 -0.0841
34870POPC   GL164422  16.138  31.055   4.645  0.1149  0.0178 -0.1005
34870POPC   GL264423  16.183  31.295   4.664 -0.0068  0.1154 -0.0058
34870POPC   C1A64424  16.346  30.977   5.042  0.0997 -0.1573 -0.0660
34870POPC   D2A64425  16.674  31.032   5.429  0.1137  0.1293 -0.4241
34870POPC   C3A64426  16.609  31.311   5.674 -0.1003  0.1603  0.4329
34870POPC   C4A64427  16.913  31.666   5.707 -0.0895 -0.0185  0.2020
34870POPC   C1B64428  16.108  31.417   5.089  0.2402 -0.0792 -0.1007
34870POPC   C2B64429  16.060  31.119   5.457 -0.0881  0.0490 -0.1893
34870POPC   C3B64430  16.314  30.929   5.793  0.2506  0.1511 -0.1568
34870POPC   C4B64431  16.735  30.741   5.875  0.0950 -0.2401 -0.0085
34871POPC   NC364432  15.288  27.962   4.703  0.2919 -0.1439 -0.1933
34871POPC   PO464433  14.920  28.127   4.675  0.2341  0.0288  0.0399
34871POPC   GL164434  14.894  28.266   4.993 -0.1494  0.2478 -0.0276
34871POPC   GL264435  15.140  28.424   4.976  0.0974  0.0531  0.1905
34871POPC   C1A64436  14.669  28.607   5.253 -0.2521  0.0173  0.0299
34871POPC   D2A64437  14.453  29.043   5.123  0.3579 -0.0547  0.1261
34871POPC   C3A64438  14.676  29.409   5.028  0.2438 -0.0491  0.0405
34871POPC   C4A64439  14.856  29.852   4.960  0.2032  0.4283 -0.1360
34871POPC   C1B64440  15.189  28.385   5.388 -0.2412 -0.0188  0.1871
34871POPC   C2B64441  15.023  28.566   5.795 -0.1143  0.1070 -0.0165
34871POPC   C3B64442  14.955  29.011   5.960  0.0220 -0.1138 -0.0516
34871POPC   C4B64443  15.126  29.233   6.270 -0.0840  0.2662  0.1779
34872POPC   NC364444   6.698  23.531   6.981 -0.2782 -0.1794 -0.1104
34872POPC   PO464445   6.569  23.183   7.097  0.1119 -0.0125 -0.1143
34872POPC   GL164446   6.622  23.236   7.456  0.0405 -0.2854 -0.2296
34872POPC   GL264447   6.461  23.058   7.630 -0.2110  0.2095 -0.3498
34872POPC   C1A64448   6.475  23.565   7.770  0.4219  0.2322 -0.1493
34872POPC   D2A64449   6.070  23.870   7.752 -0.3374 -0.1360 -0.0842
34872POPC   C3A64450   5.918  24.257   7.907  0.1227 -0.1766  0.0752
34872POPC   C4A64451   5.917  24.402   8.294 -0.0175  0.0287 -0.1375
34872POPC   C1B64452   6.102  23.203   7.843  0.2501 -0.0810  0.0195
34872POPC   C2B64453   5.913  23.091   8.301 -0.3000  0.2077  0.0924
34872POPC   C3B64454   5.956  23.027   8.737 -0.3434 -0.1682 -0.1236
34872POPC   C4B64455   5.801  22.714   9.041 -0.1622  0.3595 -0.1161
34873POPC   NC364456  32.155  17.387   4.353  0.1430 -0.1425 -0.3458
34873POPC   PO464457  32.180  17.057   4.495  0.0220 -0.1001  0.0122
34873POPC   GL164458  32.073  17.229   4.849 -0.5220 -0.1124  0.1058
34873POPC   GL264459  32.339  17.066   5.013  0.4647 -0.2009 -0.4295
34873POPC   C1A64460  32.201  17.494   5.221  0.0555 -0.0052  0.2195
34873POPC   D2A64461  32.254  17.644   5.604 -0.1640 -0.0453  0.1019
34873POPC   C3A64462  32.153  17.572   6.022  0.1325 -0.0407  0.1460
34873POPC   C4A64463  32.451  17.649   6.381  0.1128 -0.0222  0.1007
34873POPC   C1B64464  32.732  16.817   5.112 -0.0954 -0.0710  0.1281
34873POPC   C2B64465  33.066  16.937   5.412  0.1049  0.0205 -0.0578
34873POPC   C3B64466  33.389  16.875   5.759  0.0201 -0.0368 -0.1916
34873POPC   C4B64467  33.714  16.700   6.064 -0.0640 -0.0437  0.4313
34874POPC   NC364468  11.123  29.025   5.001 -0.0974  0.0370 -0.1316
34874POPC   PO464469  10.860  29.153   5.283 -0.0249 -0.0106  0.0490
34874POPC   GL164470  11.109  29.241   5.569  0.0395  0.1448  0.0521
34874POPC   GL264471  11.358  29.124   5.470 -0.2947  0.0012  0.0130
34874POPC   C1A64472  11.364  29.331   5.938 -0.2347 -0.1764  0.0001
34874POPC   D2A64473  11.695  29.565   6.193  0.0490  0.0542 -0.2990
34874POPC   C3A64474  11.648  29.558   6.661 -0.0968 -0.1299 -0.1304
34874POPC   C4A64475  11.504  29.560   7.103  0.1303 -0.2077  0.3119
34874POPC   C1B64476  11.513  29.557   5.524 -0.0897 -0.1164  0.0209
34874POPC   C2B64477  11.847  29.828   5.569  0.1167  0.1180  0.0779
34874POPC   C3B64478  12.223  30.071   5.721 -0.0943 -0.0793  0.1798
34874POPC   C4B64479  12.665  30.311   5.817 -0.0573  0.0498  0.2083
34875POPC   NC364480  16.565  20.901   5.130 -0.2279 -0.0407 -0.1182
34875POPC   PO464481  16.700  20.541   5.102 -0.0362 -0.0832 -0.1353
34875POPC   GL164482  16.629  20.592   5.471 -0.1600  0.2074  0.3559
34875POPC   GL264483  16.523  20.320   5.492  0.0061 -0.3104 -0.3608
34875POPC   C1A64484  16.960  20.627   5.759 -0.2101 -0.0898 -0.4417
34875POPC   D2A64485  17.022  20.462   6.165 -0.0562 -0.2025  0.1103
34875POPC   C3A64486  16.916  20.568   6.567  0.1582 -0.1353 -0.0130
34875POPC   C4A64487  16.812  20.623   7.042 -0.4463 -0.0295  0.0667
34875POPC   C1B64488  16.449  20.455   5.943  0.2276 -0.1533  0.0243
34875POPC   C2B64489  16.645  20.219   6.325  0.1098 -0.0951  0.3188
34875POPC   C3B64490  16.871  20.105   6.675 -0.0924 -0.0234 -0.0696
34875POPC   C4B64491  17.147  19.976   7.013  0.1946  0.1785  0.1501
34876POPC   NC364492  10.083  28.038   5.714  0.0438  0.2594 -0.1634
34876POPC   PO464493   9.972  28.405   5.613 -0.2376  0.4710  0.1542
34876POPC   GL164494  10.216  28.683   5.759  0.2858  0.2042  0.3752
34876POPC   GL264495  10.097  28.974   5.854  0.1521 -0.0241  0.1575
34876POPC   C1A64496  10.539  28.735   6.057  0.2157  0.0710  0.0566
34876POPC   D2A64497  10.549  29.159   6.234  0.2240 -0.0316  0.2839
34876POPC   C3A64498  10.577  29.296   6.661 -0.0887 -0.1785 -0.0864
34876POPC   C4A64499  10.630  29.420   7.073  0.0910  0.0338 -0.1150
34876POPC   C1B64500  10.080  28.951   6.323  0.0270  0.1426  0.1737
34876POPC   C2B64501  10.054  28.997   6.813  0.2913  0.2008  0.0759
34876POPC   C3B64502   9.916  29.087   7.214 -0.2889 -0.1167 -0.2150
34876POPC   C4B64503   9.591  29.285   7.466  0.0046 -0.1192 -0.1374
34877POPC   NC364504  16.046  24.863   4.766  0.1528  0.1621 -0.0744
34877POPC   PO464505  15.881  25.233   4.815 -0.0519 -0.2345 -0.1418
34877POPC   GL164506  16.140  25.149   5.129  0.2560 -0.2586 -0.0782
34877POPC   GL264507  16.043  24.951   5.271  0.1712 -0.0128 -0.1798
34877POPC   C1A64508  16.499  25.227   5.474 -0.0013 -0.0197 -0.0854
34877POPC   D2A64509  16.804  25.115   5.809  0.1001  0.1916 -0.1975
34877POPC   C3A64510  16.787  25.083   6.250  0.3132  0.2803  0.2585
34877POPC   C4A64511  16.779  24.981   6.704  0.0437  0.0974 -0.5750
34877POPC   C1B64512  15.990  25.223   5.638  0.3450  0.3547  0.0060
34877POPC   C2B64513  16.026  25.460   6.049  0.0777  0.1272  0.0899
34877POPC   C3B64514  16.071  25.759   6.388 -0.0202 -0.1174 -0.0450
34877POPC   C4B64515  16.172  25.785   6.846 -0.1104  0.0144 -0.3198
34878POPC   NC364516   2.938  20.083   4.653  0.1869 -0.2061 -0.1239
34878POPC   PO464517   2.831  20.178   5.019 -0.2847  0.1560  0.2109
34878POPC   GL164518   2.933  20.289   5.436 -0.0284 -0.4529 -0.1738
34878POPC   GL264519   3.170  20.069   5.389  0.1244 -0.0838  0.4158
34878POPC   C1A64520   2.883  20.280   5.897 -0.1268 -0.2118  0.1193
34878POPC   D2A64521   2.982  20.083   6.314 -0.2035 -0.5798  0.4352
34878POPC   C3A64522   3.107  19.751   6.607  0.2720  0.2619  0.0901
34878POPC   C4A64523   3.366  19.458   6.643  0.1348  0.1755 -0.3294
34878POPC   C1B64524   2.920  19.755   5.639 -0.0061 -0.0628 -0.2273
34878POPC   C2B64525   2.640  19.687   6.056  0.2357  0.2548 -0.1335
34878POPC   C3B64526   2.518  19.729   6.499 -0.4352  0.0380 -0.3809
34878POPC   C4B64527   2.340  19.726   6.895 -0.2836 -0.0262  0.2860
34879POPC   NC364528   2.625  18.897   4.187 -0.0883  0.0790  0.0392
34879POPC   PO464529   2.496  18.855   4.605 -0.0300 -0.3533  0.1199
34879POPC   GL164530   2.435  18.876   4.962 -0.0753 -0.2062  0.1504
34879POPC   GL264531   2.342  18.579   5.090  0.0383 -0.0260 -0.0021
34879POPC   C1A64532   2.408  19.001   5.398 -0.1453  0.0151 -0.2883
34879POPC   D2A64533   2.291  18.897   5.826 -0.2755 -0.0180  0.1511
34879POPC   C3A64534   2.339  18.752   6.233 -0.2159  0.2852 -0.0648
34879POPC   C4A64535   2.600  18.799   6.641 -0.0829  0.0543  0.2367
34879POPC   C1B64536   2.008  18.638   5.469 -0.2307  0.0159  0.2523
34879POPC   C2B64537   1.753  18.597   5.865 -0.3514  0.1776  0.0881
34879POPC   C3B64538   1.435  18.716   6.199  0.0731 -0.1431 -0.3746
34879POPC   C4B64539   1.010  18.967   6.340  0.0654 -0.1701 -0.0766
34880POPC   NC364540  10.449  18.891   5.436  0.1818  0.0366 -0.2274
34880POPC   PO464541  10.833  18.946   5.587  0.1652 -0.0937 -0.0392
34880POPC   GL164542  10.847  18.620   5.828 -0.3851 -0.3610  0.0234
34880POPC   GL264543  10.649  18.478   5.696 -0.4040 -0.0584 -0.0548
34880POPC   C1A64544  10.538  18.492   6.213  0.1906  0.0716 -0.1112
34880POPC   D2A64545  10.391  18.483   6.656  0.0694  0.2906 -0.0551
34880POPC   C3A64546  10.475  18.108   6.996  0.0825  0.1928 -0.3526
34880POPC   C4A64547  10.198  17.706   7.027  0.0978 -0.1830  0.3190
34880POPC   C1B64548  10.870  18.104   5.902  0.0259 -0.3541 -0.2620
34880POPC   C2B64549  11.222  18.003   6.133  0.0440  0.1794 -0.0886
34880POPC   C3B64550  11.156  17.685   6.502 -0.0872  0.1612 -0.1018
34880POPC   C4B64551  11.235  17.675   6.989 -0.0172 -0.2943 -0.0703
34881POPC   NC364552  11.905  23.566   7.301 -0.3243 -0.0459 -0.3757
34881POPC   PO464553  12.071  23.213   7.225 -0.0548 -0.0989 -0.4343
34881POPC   GL164554  12.252  23.074   7.568 -0.1944  0.2196 -0.0487
34881POPC   GL264555  12.363  23.274   7.759 -0.0164 -0.2459 -0.0851
34881POPC   C1A64556  12.430  22.710   7.806  0.0898  0.0567 -0.0947
34881POPC   D2A64557  12.740  22.398   7.943  0.1710 -0.0649  0.1979
34881POPC   C3A64558  13.073  22.334   8.187 -0.1309  0.0936  0.1682
34881POPC   C4A64559  13.431  22.263   8.469 -0.3517 -0.3163 -0.0917
34881POPC   C1B64560  12.663  23.237   8.016  0.0965 -0.1559 -0.3495
34881POPC   C2B64561  12.955  23.271   8.390  0.0238  0.0679  0.0939
34881POPC   C3B64562  13.103  23.288   8.789  0.0366  0.0381 -0.1272
34881POPC   C4B64563  13.206  23.216   9.185 -0.1551 -0.0428  0.0487
34882POPC   NC364564   3.767  26.645   4.437  0.2018 -0.0190 -0.1226
34882POPC   PO464565   3.945  26.464   4.740  0.0175  0.0820  0.0541
34882POPC   GL164566   4.131  26.484   5.055 -0.1759 -0.1938 -0.1069
34882POPC   GL264567   4.251  26.206   5.121  0.2462 -0.2192  0.2873
34882POPC   C1A64568   4.007  26.648   5.498  0.0940  0.1057 -0.0463
34882POPC   D2A64569   3.771  26.783   5.872 -0.1694  0.0394  0.1692
34882POPC   C3A64570   3.835  26.563   6.254  0.2878 -0.0829 -0.1174
34882POPC   C4A64571   3.794  26.514   6.714  0.0057 -0.0028 -0.1485
34882POPC   C1B64572   4.308  26.273   5.543  0.1012 -0.1132  0.2884
34882POPC   C2B64573   4.269  26.569   5.899  0.2791  0.2996  0.1057
34882POPC   C3B64574   4.195  26.973   6.085  0.0508  0.0043 -0.0533
34882POPC   C4B64575   4.305  27.381   6.266  0.1549 -0.0332  0.1254
34883POPC   NC364576  11.019  22.907  11.297  0.1201 -0.3296 -0.3525
34883POPC   PO464577  10.722  23.145  11.338  0.1851  0.1930  0.3853
34883POPC   GL164578  10.754  23.515  11.509 -0.3397 -0.3505 -0.1002
34883POPC   GL264579  10.896  23.723  11.349 -0.1213 -0.0875  0.3928
34883POPC   C1A64580  10.963  23.656  11.883  0.0709 -0.0960 -0.1050
34883POPC   D2A64581  11.181  23.491  12.242  0.0112 -0.0194 -0.0052
34883POPC   C3A64582  11.657  23.543  12.328  0.1186 -0.2186  0.1061
34883POPC   C4A64583  11.994  23.817  12.409  0.1657 -0.2489  0.0535
34883POPC   C1B64584  11.086  24.046  11.447  0.0014 -0.2573 -0.2182
34883POPC   C2B64585  11.291  24.307  11.182 -0.1417  0.0538 -0.0263
34883POPC   C3B64586  11.331  24.672  10.991  0.1583  0.1984  0.4190
34883POPC   C4B64587  11.458  24.881  10.577 -0.1524 -0.0077 -0.3679
34884POPC   NC364588   3.079  22.324   4.832 -0.2481 -0.0227 -0.0018
34884POPC   PO464589   3.195  22.306   5.204 -0.1010 -0.1735  0.0235
34884POPC   GL164590   3.292  22.416   5.598 -0.0708  0.2337 -0.0785
34884POPC   GL264591   3.109  22.309   5.783  0.2405 -0.4453 -0.2441
34884POPC   C1A64592   3.358  22.846   5.816 -0.1906  0.1308 -0.0466
34884POPC   D2A64593   3.333  22.989   6.254  0.0427  0.0805 -0.0517
34884POPC   C3A64594   3.395  23.088   6.730 -0.4016 -0.1128  0.0576
34884POPC   C4A64595   3.610  22.952   7.140 -0.1566 -0.0005 -0.0226
34884POPC   C1B64596   3.042  22.511   6.200  0.1566 -0.0399 -0.0574
34884POPC   C2B64597   3.083  22.718   6.602 -0.1547  0.1602  0.2799
34884POPC   C3B64598   2.951  22.869   6.966 -0.0677 -0.3866 -0.1718
34884POPC   C4B64599   2.626  23.223   7.116  0.1320  0.3346  0.0084
34885POPC   NC364600   3.330  32.813   4.418 -0.2548  0.0132 -0.3343
34885POPC   PO464601   3.712  32.737   4.544  0.2914  0.1702 -0.1613
34885POPC   GL164602   3.847  32.726   5.000  0.2789 -0.2524  0.0528
34885POPC   GL264603   4.005  32.962   5.009 -0.0669 -0.4002 -0.1883
34885POPC   C1A64604   3.619  32.656   5.406  0.2036 -0.1484  0.1393
34885POPC   D2A64605   3.404  32.282   5.683  0.0561 -0.1002  0.1841
34885POPC   C3A64606   3.354  32.502   6.097 -0.2284  0.0098  0.3178
34885POPC   C4A64607   3.475  32.962   6.243 -0.2684  0.2817 -0.1283
34885POPC   C1B64608   4.191  33.181   5.381  0.0912 -0.1524 -0.0814
34885POPC   C2B64609   4.276  33.114   5.828  0.0282  0.2203 -0.1119
34885POPC   C3B64610   4.549  32.983   6.199  0.0004  0.3945  0.3215
34885POPC   C4B64611   4.828  32.971   6.532  0.0670 -0.1218 -0.0561
34886POPC   NC364612   6.428  17.761   5.381  0.0730 -0.1933  0.0282
34886POPC   PO464613   6.811  17.812   5.378 -0.0024  0.3485 -0.2581
34886POPC   GL164614   6.670  17.586   5.741 -0.0399 -0.2335  0.0503
34886POPC   GL264615   6.420  17.612   5.877 -0.4950  0.5115  0.2479
34886POPC   C1A64616   6.764  17.188   5.983 -0.0632  0.0557 -0.1048
34886POPC   D2A64617   6.542  16.994   6.353 -0.2122  0.0458 -0.1835
34886POPC   C3A64618   6.275  16.654   6.465 -0.0680  0.0524 -0.0090
34886POPC   C4A64619   6.133  16.309   6.227  0.0900  0.0039  0.1922
34886POPC   C1B64620   6.432  17.529   6.331  0.3105  0.0572  0.1337
34886POPC   C2B64621   6.437  17.317   6.752  0.0166  0.0694 -0.1418
34886POPC   C3B64622   6.295  17.223   7.207 -0.0331  0.0266  0.1154
34886POPC   C4B64623   5.954  17.382   7.519  0.3753  0.1171  0.1395
34887POPC   NC364624  14.273  30.198   4.353  0.1341 -0.0356  0.3692
34887POPC   PO464625  14.468  30.440   4.090  0.0892 -0.0819 -0.0947
34887POPC   GL164626  14.689  30.511   4.416 -0.1905  0.0747 -0.0819
34887POPC   GL264627  14.686  30.294   4.677 -0.0836  0.2187  0.1828
34887POPC   C1A64628  14.723  30.807   4.781 -0.0305 -0.1819 -0.1388
34887POPC   D2A64629  14.735  31.097   5.174  0.0554  0.0807  0.1745
34887POPC   C3A64630  14.855  30.975   5.623 -0.1750 -0.0159 -0.0597
34887POPC   C4A64631  15.065  30.789   5.962  0.4019 -0.1986 -0.1616
34887POPC   C1B64632  14.770  30.331   5.072 -0.3946 -0.2272 -0.1542
34887POPC   C2B64633  15.074  30.101   5.396  0.3178 -0.3741 -0.1276
34887POPC   C3B64634  15.037  30.034   5.859  0.1230  0.1108  0.2667
34887POPC   C4B64635  14.656  30.245   6.107 -0.0194 -0.2153  0.1179
34888POPC   NC364636   0.279  23.228   5.078  0.4195  0.0576  0.0876
34888POPC   PO464637   0.364  23.570   4.969  0.0226  0.2769 -0.0472
34888POPC   GL164638   0.344  23.590   5.463  0.1555 -0.3051 -0.0279
34888POPC   GL264639   0.115  23.706   5.638  0.1047 -0.1571 -0.2307
34888POPC   C1A64640   0.616  23.835   5.778 -0.2878  0.1809 -0.1187
34888POPC   D2A64641   0.896  23.596   6.014 -0.2508 -0.2288 -0.1374
34888POPC   C3A64642   0.715  23.341   6.333  0.1238 -0.0303 -0.3073
34888POPC   C4A64643   0.740  22.985   6.560 -0.0085 -0.0566  0.0368
34888POPC   C1B64644   0.236  23.804   6.104  0.1097  0.2126 -0.1172
34888POPC   C2B64645   0.186  24.144   6.402  0.1320  0.1338 -0.1450
34888POPC   C3B64646   0.510  24.386   6.548 -0.0822 -0.1118  0.1247
34888POPC   C4B64647   0.903  24.657   6.714 -0.0319  0.0964  0.0076
34889POPC   NC364648   8.614  30.611   4.670  0.4143  0.3196  0.0702
34889POPC   PO464649   9.010  30.644   4.613 -0.3352 -0.4950 -0.1461
34889POPC   GL164650   9.021  30.894   4.923 -0.2326  0.0974  0.3229
34889POPC   GL264651   8.969  30.687   5.151 -0.2243 -0.0715 -0.0012
34889POPC   C1A64652   8.786  31.218   5.211 -0.1234 -0.1021 -0.0112
34889POPC   D2A64653   9.078  31.396   5.600 -0.0782  0.0777 -0.0630
34889POPC   C3A64654   9.168  31.140   5.969  0.0683  0.0947 -0.0975
34889POPC   C4A64655   9.265  31.047   6.356  0.0620 -0.1942 -0.1082
34889POPC   C1B64656   9.072  30.470   5.536 -0.1048  0.4362 -0.0881
34889POPC   C2B64657   9.101  30.189   5.907 -0.2345 -0.2575 -0.0725
34889POPC   C3B64658   8.943  30.053   6.324 -0.0931 -0.1719 -0.1302
34889POPC   C4B64659   8.614  30.001   6.699 -0.2506  0.1266  0.3194
34890POPC   NC364660   6.753  24.641   6.235 -0.0728  0.2753  0.0069
34890POPC   PO464661   6.687  24.269   6.253  0.1390  0.0740  0.2135
34890POPC   GL164662   6.427  24.355   6.650 -0.2089 -0.0405 -0.2819
34890POPC   GL264663   6.402  24.640   6.642 -0.0881  0.0112 -0.0149
34890POPC   C1A64664   6.499  24.343   7.129  0.0219 -0.1366  0.1502
34890POPC   D2A64665   6.635  24.031   7.443 -0.3401  0.0060  0.0424
34890POPC   C3A64666   6.475  24.247   7.821  0.1574  0.1466  0.1204
34890POPC   C4A64667   6.275  24.077   8.253  0.4917 -0.0176 -0.1925
34890POPC   C1B64668   6.151  24.700   7.064  0.2092  0.4822  0.0862
34890POPC   C2B64669   5.746  24.678   7.287 -0.2414 -0.2443  0.3165
34890POPC   C3B64670   5.524  24.631   7.637  0.1965  0.2726 -0.1839
34890POPC   C4B64671   5.405  24.804   8.089 -0.2457  0.3773 -0.2176
34891POPC   NC364672   9.916  21.547   9.723  0.0593  0.0434 -0.0651
34891POPC   PO464673  10.202  21.700   9.530 -0.3982 -0.2125  0.0547
34891POPC   GL164674  10.512  21.443   9.678  0.4133  0.2320  0.0170
34891POPC   GL264675  10.392  21.240   9.842  0.0707 -0.1156 -0.0753
34891POPC   C1A64676  10.727  21.041   9.595 -0.0299  0.1571  0.1051
34891POPC   D2A64677  11.116  20.883   9.806 -0.1525  0.0272 -0.1703
34891POPC   C3A64678  11.213  20.945  10.267 -0.0325 -0.0816  0.3010
34891POPC   C4A64679  11.595  20.795  10.505  0.4308 -0.1357  0.0620
34891POPC   C1B64680  10.176  20.827   9.841 -0.1285 -0.0211 -0.0255
34891POPC   C2B64681  10.433  20.484   9.816 -0.0410  0.0720 -0.1403
34891POPC   C3B64682  10.625  20.090   9.594  0.1153 -0.1948 -0.2867
34891POPC   C4B64683  10.640  19.721   9.423 -0.4429  0.2115  0.0782
34892POPC   NC364684   8.997  18.588   6.036  0.0743 -0.3431  0.2644
34892POPC   PO464685   9.237  18.261   5.938  0.1213  0.2466  0.0813
34892POPC   GL164686   9.344  17.911   6.177 -0.1638 -0.0942 -0.0050
34892POPC   GL264687   9.125  17.794   6.107  0.0780  0.1962  0.0696
34892POPC   C1A64688   9.244  17.760   6.580  0.2023  0.2370 -0.0560
34892POPC   D2A64689   9.349  17.650   6.980 -0.0868  0.1531 -0.1244
34892POPC   C3A64690   9.566  17.284   7.159 -0.0094  0.2315 -0.0485
34892POPC   C4A64691   9.787  17.011   7.441  0.0578  0.0764  0.1659
34892POPC   C1B64692   8.953  17.373   6.222 -0.0866 -0.0280 -0.1423
34892POPC   C2B64693   8.728  17.151   6.494 -0.0992 -0.5786 -0.0078
34892POPC   C3B64694   8.798  16.846   6.870 -0.0561  0.0782 -0.1625
34892POPC   C4B64695   8.806  16.498   7.156 -0.0087  0.0679  0.0060
34893POPC   NC364696   3.381  29.575   3.817 -0.1773 -0.2094  0.1405
34893POPC   PO464697   3.413  29.989   3.842 -0.0433  0.2379 -0.0160
34893POPC   GL164698   3.183  29.923   4.120  0.1340 -0.2928  0.1611
34893POPC   GL264699   3.329  29.710   4.289  0.1334  0.1156  0.0073
34893POPC   C1A64700   3.289  30.188   4.470 -0.1010 -0.4156 -0.1707
34893POPC   D2A64701   3.510  30.263   4.828 -0.0082  0.0190 -0.0912
34893POPC   C3A64702   3.297  30.537   5.168 -0.0536  0.3124  0.0611
34893POPC   C4A64703   3.066  30.835   5.424 -0.0624 -0.0986  0.2889
34893POPC   C1B64704   3.202  29.596   4.743  0.0745  0.1788  0.1401
34893POPC   C2B64705   2.975  29.706   5.141 -0.0847 -0.2126  0.1193
34893POPC   C3B64706   2.861  29.747   5.560  0.2157  0.2256  0.1281
34893POPC   C4B64707   2.557  29.682   5.930 -0.1575 -0.0594 -0.0125
34894POPC   NC364708  16.939  28.328   4.396  0.2316 -0.3139  0.0284
34894POPC   PO464709  16.733  28.627   4.216  0.0635 -0.0661  0.1776
34894POPC   GL164710  16.836  28.705   4.630  0.2191 -0.2737 -0.0346
34894POPC   GL264711  17.187  28.830   4.560  0.5142  0.0381 -0.0951
34894POPC   C1A64712  16.782  28.401   4.960  0.0742 -0.1367  0.0932
34894POPC   D2A64713  16.477  28.227   5.190 -0.2549 -0.2155  0.0977
34894POPC   C3A64714  16.630  28.479   5.556  0.2087 -0.0445 -0.2298
34894POPC   C4A64715  17.038  28.468   5.800  0.0049  0.1262 -0.0630
34894POPC   C1B64716  16.995  28.994   4.937  0.1073 -0.1469 -0.0234
34894POPC   C2B64717  16.961  29.217   5.327  0.0678 -0.0389  0.0561
34894POPC   C3B64718  16.803  29.487   5.644  0.0621  0.0324 -0.2144
34894POPC   C4B64719  16.764  29.691   6.004  0.0705 -0.0681 -0.4264
34895POPC   NC364720   5.523  18.256   5.291 -0.3211 -0.0611 -0.1195
34895POPC   PO464721   5.116  18.302   5.311 -0.0886 -0.1043  0.1482
34895POPC   GL164722   5.022  18.220   5.722 -0.1561  0.2910  0.0667
34895POPC   GL264723   4.786  18.128   5.626  0.3022  0.1995 -0.1656
34895POPC   C1A64724   5.182  17.936   6.016 -0.0315 -0.1225 -0.0108
34895POPC   D2A64725   5.298  17.822   6.453  0.1190 -0.1397 -0.1209
34895POPC   C3A64726   5.373  17.390   6.578  0.1616  0.0770  0.0941
34895POPC   C4A64727   5.428  16.993   6.756 -0.1292  0.0052  0.0270
34895POPC   C1B64728   4.679  17.764   5.894 -0.0291 -0.2333 -0.2269
34895POPC   C2B64729   4.554  17.465   6.228  0.2397  0.2717  0.0007
34895POPC   C3B64730   4.411  17.048   6.377  0.0765 -0.2510  0.1673
34895POPC   C4B64731   4.236  16.904   6.733 -0.1589  0.0690  0.0902
34896POPC   NC364732   5.231  19.517   6.039 -0.1105 -0.2259  0.2976
34896POPC   PO464733   5.633  19.627   6.004  0.1544  0.2495  0.1290
34896POPC   GL164734   5.532  19.560   6.384 -0.1178  0.1700  0.0975
34896POPC   GL264735   5.521  19.265   6.415  0.1275  0.0982 -0.1472
34896POPC   C1A64736   5.326  19.746   6.738  0.0997 -0.0106 -0.1735
34896POPC   D2A64737   5.147  19.538   7.113 -0.2262 -0.1336  0.0540
34896POPC   C3A64738   4.844  19.266   7.388  0.0160  0.0696  0.0958
34896POPC   C4A64739   4.518  19.267   7.689 -0.3357  0.0442 -0.1676
34896POPC   C1B64740   5.106  19.253   6.671  0.0603 -0.0060  0.1456
34896POPC   C2B64741   4.716  19.257   6.917  0.1580  0.2160  0.2141
34896POPC   C3B64742   4.447  19.034   7.232 -0.0221 -0.3869 -0.3166
34896POPC   C4B64743   4.395  18.640   7.514 -0.3451 -0.1189  0.1804
34897POPC   NC364744  12.579  20.732   6.393 -0.0436  0.1981  0.2158
34897POPC   PO464745  12.485  20.389   6.421  0.0240  0.1809 -0.1099
34897POPC   GL164746  12.725  20.367   6.641 -0.1154 -0.0419 -0.0867
34897POPC   GL264747  12.614  20.115   6.846 -0.0780 -0.1642 -0.2994
34897POPC   C1A64748  13.133  20.503   6.844 -0.2519 -0.2782  0.0598
34897POPC   D2A64749  13.435  20.605   7.212 -0.0293 -0.0077  0.2817
34897POPC   C3A64750  13.556  20.220   7.424 -0.0639 -0.0064  0.0082
34897POPC   C4A64751  13.358  19.840   7.606  0.1462  0.4527  0.1126
34897POPC   C1B64752  12.616  19.673   6.894 -0.2718 -0.0614 -0.3510
34897POPC   C2B64753  12.867  19.262   7.023  0.0261  0.0123 -0.1941
34897POPC   C3B64754  13.150  19.059   7.300  0.2208 -0.3066  0.1014
34897POPC   C4B64755  13.417  19.110   7.640  0.2238  0.0093 -0.0660
34898POPC   NC364756  13.107  26.304   5.767  0.0027 -0.0495  0.1780
34898POPC   PO464757  12.877  26.610   5.721 -0.1469 -0.0002  0.0180
34898POPC   GL164758  13.190  26.873   5.915 -0.0742 -0.1618 -0.3030
34898POPC   GL264759  13.285  27.074   5.740  0.0142 -0.0147 -0.2075
34898POPC   C1A64760  13.457  27.031   6.265 -0.0737  0.0452 -0.1352
34898POPC   D2A64761  13.626  27.296   6.509 -0.1675  0.2958  0.1589
34898POPC   C3A64762  13.419  27.511   6.890 -0.1652 -0.1120  0.0840
34898POPC   C4A64763  13.255  27.386   7.273  0.2368 -0.2490  0.1104
34898POPC   C1B64764  13.469  27.496   5.911 -0.0388 -0.0854  0.0589
34898POPC   C2B64765  13.757  27.682   6.219  0.1156  0.5153  0.0094
34898POPC   C3B64766  13.873  27.802   6.669 -0.0440  0.2377 -0.1729
34898POPC   C4B64767  13.730  28.013   7.043  0.1067 -0.2489  0.0076
34899POPC   NC364768   9.580  26.498   6.350  0.0297 -0.0446 -0.0629
34899POPC   PO464769   9.735  26.820   6.423 -0.0650 -0.0098  0.0840
34899POPC   GL164770   9.632  27.138   6.744  0.1002  0.2381  0.0337
34899POPC   GL264771   9.599  27.445   6.776 -0.2090  0.0554  0.0985
34899POPC   C1A64772   9.672  27.062   7.229  0.2960 -0.0237 -0.0572
34899POPC   D2A64773   9.802  27.246   7.657  0.3478 -0.1320  0.0561
34899POPC   C3A64774   9.901  27.417   8.116  0.1960 -0.0984 -0.3122
34899POPC   C4A64775  10.229  27.223   8.437  0.1340  0.0479  0.1810
34899POPC   C1B64776   9.654  27.733   7.102 -0.1049 -0.0039 -0.2225
34899POPC   C2B64777   9.858  28.141   7.220  0.1717 -0.3616 -0.2469
34899POPC   C3B64778  10.047  28.188   7.691 -0.0418  0.1834  0.1149
34899POPC   C4B64779  10.150  27.954   8.135 -0.1895 -0.2024 -0.2248
34900POPC   NC364780   7.883  32.049   5.065  0.0280 -0.3278 -0.1133
34900POPC   PO464781   8.205  32.274   5.010  0.1843  0.2649  0.4890
34900POPC   GL164782   8.406  32.303   5.336  0.2674  0.1190  0.1400
34900POPC   GL264783   8.506  32.073   5.453 -0.2897 -0.1973  0.4684
34900POPC   C1A64784   8.339  32.462   5.724  0.1172 -0.0243  0.0180
34900POPC   D2A64785   8.383  32.679   6.135 -0.0711 -0.1218  0.1130
34900POPC   C3A64786   8.777  32.705   6.296  0.0364  0.4017  0.2729
34900POPC   C4A64787   9.015  32.633   6.747  0.2811  0.0218  0.3325
34900POPC   C1B64788   8.469  31.901   5.939  0.0298  0.1170  0.2624
34900POPC   C2B64789   8.415  31.617   6.329  0.1078  0.2823 -0.2154
34900POPC   C3B64790   8.270  31.225   6.582  0.0247  0.0328  0.1207
34900POPC   C4B64791   8.260  30.950   6.956  0.0455 -0.4959 -0.0931
34901POPC   NC364792  10.090  23.184  11.923  0.0417  0.1705  0.1042
34901POPC   PO464793   9.875  23.066  12.220 -0.0382 -0.0744 -0.0093
34901POPC   GL164794   9.863  23.403  12.238 -0.5280 -0.3532 -0.2119
34901POPC   GL264795   9.887  23.595  12.451  0.1435 -0.0704 -0.1020
34901POPC   C1A64796   9.653  23.798  12.053 -0.2463 -0.1353  0.5748
34901POPC   D2A64797   9.624  24.080  11.732 -0.3310 -0.4276 -0.1456
34901POPC   C3A64798   9.239  24.364  11.731  0.1663 -0.1335 -0.2839
34901POPC   C4A64799   9.090  24.660  12.051 -0.1409  0.2146 -0.2021
34901POPC   C1B64800  10.049  23.922  12.236  0.2119 -0.5515  0.0319
34901POPC   C2B64801  10.064  24.242  11.920 -0.0478 -0.2938  0.0379
34901POPC   C3B64802   9.933  24.726  11.854  0.3610 -0.3622 -0.0549
34901POPC   C4B64803   9.990  25.174  11.769  0.0321 -0.1109 -0.0333
34902POPC   NC364804   9.995  30.998   4.842  0.0312  0.2211  0.0444
34902POPC   PO464805   9.916  30.607   4.828 -0.1085  0.0826 -0.2159
34902POPC   GL164806   9.708  30.574   5.163 -0.0141 -0.1105 -0.3021
34902POPC   GL264807   9.475  30.760   5.163  0.0055 -0.0226 -0.4753
34902POPC   C1A64808   9.592  30.513   5.625  0.2952 -0.0125 -0.1541
34902POPC   D2A64809   9.321  30.683   5.926  0.2888  0.1452  0.0261
34902POPC   C3A64810   9.368  30.402   6.312 -0.2599  0.1499  0.0204
34902POPC   C4A64811   9.268  30.204   6.712 -0.1314  0.1866  0.2194
34902POPC   C1B64812   9.223  30.951   5.530  0.0985 -0.0160  0.1720
34902POPC   C2B64813   8.828  30.979   5.667  0.0546 -0.0223 -0.0775
34902POPC   C3B64814   8.385  31.094   5.550  0.0649 -0.1982 -0.0313
34902POPC   C4B64815   7.968  31.226   5.665 -0.1155  0.1468  0.1194
34903POPC   NC364816   9.325  27.156   6.380  0.3179 -0.0982  0.2261
34903POPC   PO464817   9.222  26.804   6.252 -0.1967 -0.0802  0.1414
34903POPC   GL164818   9.089  26.862   6.662  0.0347  0.1048  0.4701
34903POPC   GL264819   8.952  26.661   6.779 -0.1221  0.5370 -0.3640
34903POPC   C1A64820   9.198  27.139   7.008  0.1892  0.0121 -0.3173
34903POPC   D2A64821   9.357  27.441   7.358 -0.1786 -0.1335 -0.0480
34903POPC   C3A64822   9.369  27.536   7.823  0.0696 -0.2909  0.3560
34903POPC   C4A64823   9.137  27.542   8.223 -0.2096  0.0929 -0.0871
34903POPC   C1B64824   8.716  26.937   7.046 -0.0954  0.4107 -0.0106
34903POPC   C2B64825   8.484  27.113   7.425  0.2589  0.1125 -0.2932
34903POPC   C3B64826   8.110  27.095   7.603  0.1774 -0.0368  0.3114
34903POPC   C4B64827   7.733  27.229   7.823  0.3032 -0.1621  0.0663
34904POPC   NC364828  12.498  24.153   6.002  0.2054  0.0838 -0.1195
34904POPC   PO464829  12.652  23.838   6.197 -0.2564 -0.1820 -0.2074
34904POPC   GL164830  12.948  23.985   6.429  0.1847 -0.3524 -0.2478
34904POPC   GL264831  13.164  23.849   6.621 -0.0009 -0.2818 -0.0448
34904POPC   C1A64832  12.899  24.292   6.743  0.3444 -0.0280  0.0363
34904POPC   D2A64833  13.124  24.411   7.139 -0.0262  0.3143 -0.4296
34904POPC   C3A64834  12.941  24.494   7.520 -0.2395 -0.2730 -0.0489
34904POPC   C4A64835  12.915  24.520   8.023 -0.0960 -0.2780  0.4353
34904POPC   C1B64836  13.465  24.068   6.903 -0.2645 -0.2155  0.0331
34904POPC   C2B64837  13.713  24.419   7.173  0.3518 -0.1202  0.3441
34904POPC   C3B64838  13.853  24.768   7.454 -0.2048  0.0700  0.2899
34904POPC   C4B64839  13.717  25.222   7.554  0.1170  0.0178  0.0143
34905POPC   NC364840   2.125  16.433   4.491  0.1557  0.0136 -0.0083
34905POPC   PO464841   2.469  16.626   4.388 -0.0542 -0.1819 -0.0353
34905POPC   GL164842   2.515  16.704   4.780  0.0201 -0.3878  0.2690
34905POPC   GL264843   2.740  16.597   4.906  0.1577  0.0791  0.2700
34905POPC   C1A64844   2.505  16.967   5.210 -0.0577  0.3331  0.0439
34905POPC   D2A64845   2.318  17.133   5.592 -0.0972 -0.0309  0.0331
34905POPC   C3A64846   2.452  16.995   5.991  0.1315  0.0603 -0.0413
34905POPC   C4A64847   2.476  16.828   6.403  0.0302 -0.1456 -0.0657
34905POPC   C1B64848   2.972  16.371   5.331 -0.0629  0.2604  0.0394
34905POPC   C2B64849   3.018  16.014   5.621  0.1069  0.0915  0.2031
34905POPC   C3B64850   2.985  15.898   6.033  0.1808  0.1661  0.0795
34905POPC   C4B64851   2.781  15.975   6.426  0.2443 -0.1154 -0.0950
34906POPC   NC364852  16.616  32.279   4.191 -0.2219 -0.1227 -0.0227
34906POPC   PO464853  16.706  32.618   3.984  0.0198 -0.1725 -0.0890
34906POPC   GL164854  16.831  32.667   4.346 -0.1679  0.4312 -0.1498
34906POPC   GL264855  16.596  32.757   4.586  0.4224 -0.2678 -0.1443
34906POPC   C1A64856  17.073  32.361   4.608  0.0686 -0.1587  0.1761
34906POPC   D2A64857  17.415  32.036   4.741 -0.0117  0.1766 -0.0292
34906POPC   C3A64858  17.366  31.770   5.088 -0.0375  0.0591  0.2047
34906POPC   C4A64859  17.458  31.591   5.452 -0.1269  0.0789  0.0067
34906POPC   C1B64860  16.593  33.080   4.898  0.1500  0.0643 -0.2791
34906POPC   C2B64861  16.661  33.312   5.328 -0.0308 -0.0282 -0.1568
34906POPC   C3B64862  16.869  33.653   5.589 -0.0110 -0.1289 -0.0040
34906POPC   C4B64863  17.155  33.909   5.874  0.1206  0.3419  0.0980
34907POPC   NC364864   4.285  31.728   4.483  0.0720 -0.1608 -0.0364
34907POPC   PO464865   4.184  32.016   4.198  0.3454  0.0190  0.2360
34907POPC   GL164866   3.894  32.182   4.498  0.3876  0.2089  0.0558
34907POPC   GL264867   4.016  32.323   4.715  0.0668  0.1016  0.0157
34907POPC   C1A64868   3.648  31.969   4.791  0.0135  0.0429  0.1566
34907POPC   D2A64869   3.459  32.133   5.197 -0.1140 -0.0259 -0.1941
34907POPC   C3A64870   3.024  32.175   5.367  0.0086  0.1392 -0.3700
34907POPC   C4A64871   2.608  32.001   5.513 -0.0929 -0.0578 -0.0726
34907POPC   C1B64872   3.885  32.341   5.168  0.1593 -0.1344 -0.1124
34907POPC   C2B64873   3.934  32.231   5.601 -0.0289  0.3071  0.0581
34907POPC   C3B64874   4.288  32.164   5.888  0.2045 -0.0127 -0.4151
34907POPC   C4B64875   4.498  32.079   6.276  0.0757 -0.3166  0.1542
34908POPC   NC364876   9.011  24.000   8.532 -0.0081 -0.0140 -0.2432
34908POPC   PO464877   9.046  24.131   8.937  0.1530  0.0142 -0.2116
34908POPC   GL164878   9.171  24.293   9.297  0.2089 -0.0384 -0.1040
34908POPC   GL264879   8.844  24.338   9.332  0.0138  0.1655 -0.0935
34908POPC   C1A64880   9.140  24.721   9.529  0.2967  0.0220 -0.1574
34908POPC   D2A64881   9.170  25.137   9.444  0.1533 -0.1858  0.1018
34908POPC   C3A64882   9.454  25.304   9.831  0.0373 -0.0504  0.2542
34908POPC   C4A64883   9.367  25.511  10.230  0.0975  0.0754 -0.1601
34908POPC   C1B64884   8.710  24.503   9.737  0.2733  0.3038  0.4629
34908POPC   C2B64885   8.641  24.650  10.167  0.1375 -0.2365  0.1802
34908POPC   C3B64886   8.714  25.019  10.421  0.4086 -0.0876 -0.1851
34908POPC   C4B64887   8.791  25.468  10.337 -0.4142  0.2773 -0.2884
34909POPC   NC364888   7.930  22.341  10.126  0.3000 -0.0880 -0.2680
34909POPC   PO464889   8.136  22.154   9.881 -0.1211  0.0958 -0.1564
34909POPC   GL164890   7.953  21.806   9.971  0.2410  0.4758  0.3060
34909POPC   GL264891   7.937  21.499   9.811 -0.3117 -0.0359  0.1336
34909POPC   C1A64892   7.706  21.955  10.323  0.2892 -0.2606  0.0056
34909POPC   D2A64893   7.369  22.313  10.312 -0.4499  0.3020  0.2795
34909POPC   C3A64894   6.910  22.291  10.492 -0.0241  0.1311  0.2003
34909POPC   C4A64895   6.651  22.671  10.377  0.1459  0.0802 -0.1557
34909POPC   C1B64896   8.083  21.179  10.146 -0.1831  0.0592 -0.2368
34909POPC   C2B64897   7.974  21.040  10.540  0.1074 -0.1257 -0.0447
34909POPC   C3B64898   7.762  20.957  10.895 -0.5569  0.0940 -0.1238
34909POPC   C4B64899   7.727  20.816  11.332 -0.0884 -0.0660 -0.2458
34910POPC   NC364900   4.935  18.735   5.448 -0.1009  0.0311  0.1588
34910POPC   PO464901   5.330  18.799   5.357  0.3008  0.0882  0.0386
34910POPC   GL164902   5.222  18.659   5.784 -0.1881 -0.0506 -0.1150
34910POPC   GL264903   5.367  18.481   5.948  0.0494 -0.0236 -0.3281
34910POPC   C1A64904   4.894  18.503   6.095  0.2721  0.0829 -0.2927
34910POPC   D2A64905   4.874  18.117   6.339  0.3874  0.1748 -0.1439
34910POPC   C3A64906   4.821  17.785   6.635  0.0901  0.1635  0.2380
34910POPC   C4A64907   4.626  17.393   6.759 -0.3938 -0.1469 -0.2604
34910POPC   C1B64908   5.355  18.293   6.342 -0.2711 -0.0985 -0.0241
34910POPC   C2B64909   5.335  18.358   6.814 -0.1914  0.1531 -0.1356
34910POPC   C3B64910   5.189  18.267   7.219 -0.0184 -0.1297  0.2637
34910POPC   C4B64911   4.972  18.376   7.618 -0.2948  0.1127 -0.1178
34911POPC   NC364912   9.981  25.437   7.750 -0.3442  0.4233 -0.0437
34911POPC   PO464913   9.689  25.163   7.638  0.4301 -0.0757 -0.2051
34911POPC   GL164914   9.504  25.406   7.897 -0.2702  0.3615 -0.2110
34911POPC   GL264915   9.436  25.310   8.134 -0.2489  0.2567 -0.2267
34911POPC   C1A64916   9.829  25.540   8.245 -0.3129 -0.0693 -0.0506
34911POPC   D2A64917  10.278  25.394   8.379 -0.1599 -0.1547  0.2038
34911POPC   C3A64918  10.393  25.626   8.750  0.0722 -0.0818  0.2026
34911POPC   C4A64919  10.361  25.728   9.241 -0.3203  0.2567  0.0738
34911POPC   C1B64920   9.307  25.711   8.280  0.0836 -0.2107  0.4766
34911POPC   C2B64921   9.626  25.930   8.403  0.2386  0.1645 -0.0393
34911POPC   C3B64922   9.802  25.891   8.812 -0.2239  0.0443 -0.1278
34911POPC   C4B64923  10.006  26.075   9.194  0.1652 -0.2124  0.0213
34912POPC   NC364924   8.862  23.187   9.055  0.3015  0.0878  0.3288
34912POPC   PO464925   8.469  23.199   9.028  0.1400 -0.4778  0.1015
34912POPC   GL164926   8.209  23.525   9.282 -0.0687 -0.0675 -0.1660
34912POPC   GL264927   8.222  23.728   9.529 -0.0602 -0.1506  0.2360
34912POPC   C1A64928   7.808  23.500   9.524  0.2850  0.5947 -0.2929
34912POPC   D2A64929   7.461  23.655   9.724  0.0137 -0.1423 -0.0576
34912POPC   C3A64930   7.072  23.468   9.550 -0.0804 -0.2645  0.0675
34912POPC   C4A64931   6.643  23.539   9.399 -0.1129  0.1715  0.0859
34912POPC   C1B64932   7.812  23.982   9.486  0.0411  0.0947  0.5183
34912POPC   C2B64933   7.592  24.143   9.834  0.0970 -0.0505  0.2742
34912POPC   C3B64934   7.200  24.360   9.779 -0.2574  0.1560 -0.0820
34912POPC   C4B64935   6.899  24.405   9.424 -0.1377 -0.1150  0.0798
34913POPC   NC364936  12.523  18.860   5.155  0.1111  0.1150  0.2588
34913POPC   PO464937  12.477  18.443   5.095 -0.0454  0.0747  0.1152
34913POPC   GL164938  12.637  18.177   5.399  0.1377  0.1500  0.1353
34913POPC   GL264939  12.914  18.059   5.393  0.3097 -0.0894 -0.2270
34913POPC   C1A64940  12.379  18.087   5.716  0.1573 -0.0819  0.0888
34913POPC   D2A64941  12.433  18.082   6.155 -0.1276 -0.1500 -0.5011
34913POPC   C3A64942  12.696  18.272   6.485 -0.2114 -0.1441  0.0675
34913POPC   C4A64943  12.818  18.693   6.695  0.0751 -0.1680 -0.1518
34913POPC   C1B64944  12.897  17.893   5.808  0.0948  0.0191 -0.3181
34913POPC   C2B64945  13.008  17.808   6.248 -0.2243 -0.0529 -0.0049
34913POPC   C3B64946  12.986  17.905   6.744  0.0863  0.1390 -0.2623
34913POPC   C4B64947  13.214  17.758   7.148  0.3020  0.1761 -0.4729
34914POPC   NC364948   5.183  31.436   4.465 -0.1502 -0.1627  0.0805
34914POPC   PO464949   4.822  31.449   4.408  0.0282 -0.2879 -0.1077
34914POPC   GL164950   4.816  31.699   4.699  0.4099 -0.1541  0.0567
34914POPC   GL264951   4.560  31.663   4.919  0.0390 -0.0129  0.1624
34914POPC   C1A64952   5.054  31.917   5.026  0.0803  0.1549  0.1739
34914POPC   D2A64953   5.152  32.036   5.452  0.0259  0.1593 -0.0414
34914POPC   C3A64954   4.719  32.122   5.349 -0.1440 -0.0370  0.0639
34914POPC   C4A64955   4.340  32.269   5.325 -0.1034 -0.0313 -0.0322
34914POPC   C1B64956   4.753  31.624   5.304  0.1004  0.2530 -0.1371
34914POPC   C2B64957   4.927  31.428   5.688 -0.1446  0.1467  0.1131
34914POPC   C3B64958   5.286  31.245   5.926 -0.0243 -0.0632 -0.0513
34914POPC   C4B64959   5.461  31.413   6.319 -0.0164  0.0717 -0.2413
34915POPC   NC364960  11.558  18.564   5.369 -0.3941  0.1106 -0.0393
34915POPC   PO464961  11.529  18.157   5.326  0.3994 -0.1862 -0.1839
34915POPC   GL164962  11.777  18.112   5.602  0.0785 -0.3591  0.0153
34915POPC   GL264963  11.819  18.338   5.745 -0.0742  0.3201  0.2831
34915POPC   C1A64964  12.078  17.746   5.559  0.3880 -0.0593 -0.0873
34915POPC   D2A64965  12.221  17.302   5.546 -0.3158 -0.2910 -0.0483
34915POPC   C3A64966  12.549  17.137   5.784 -0.2383 -0.0517  0.0071
34915POPC   C4A64967  12.694  17.023   6.227  0.0705  0.2475 -0.1791
34915POPC   C1B64968  11.896  17.989   6.011  0.3008  0.2614  0.5084
34915POPC   C2B64969  11.697  17.724   6.404  0.2707 -0.2742 -0.0466
34915POPC   C3B64970  11.762  17.496   6.795 -0.1527  0.3044 -0.2367
34915POPC   C4B64971  11.617  17.358   7.251  0.2847 -0.0644  0.1270
34916POPC   NC364972   1.943  24.843   5.019  0.0728  0.1554  0.0847
34916POPC   PO464973   1.569  24.853   5.134 -0.0363  0.0591  0.0236
34916POPC   GL164974   1.521  24.907   5.554  0.1211  0.1971  0.2619
34916POPC   GL264975   1.780  24.830   5.640  0.0185  0.0142  0.0240
34916POPC   C1A64976   1.407  24.991   5.962 -0.3907  0.0826 -0.1648
34916POPC   D2A64977   1.405  25.154   6.425  0.0484 -0.2348  0.1364
34916POPC   C3A64978   1.421  24.770   6.705 -0.2344  0.1584 -0.2551
34916POPC   C4A64979   1.348  24.384   6.454  0.1125  0.2405 -0.0446
34916POPC   C1B64980   1.833  25.250   5.741 -0.1796  0.0618  0.1812
34916POPC   C2B64981   1.739  25.480   6.095  0.3628  0.2038  0.1948
34916POPC   C3B64982   1.833  25.870   6.455 -0.1572 -0.1920  0.0047
34916POPC   C4B64983   2.084  26.034   6.820 -0.0264  0.2740 -0.2283
34917POPC   NC364984   8.536  18.689   5.613 -0.1834  0.2506 -0.0119
34917POPC   PO464985   8.549  18.484   5.932 -0.1393 -0.2132 -0.0476
34917POPC   GL164986   8.754  18.279   6.254  0.2101 -0.1849  0.1915
34917POPC   GL264987   8.691  18.479   6.465  0.0648 -0.1510  0.2460
34917POPC   C1A64988   8.804  17.883   6.469  0.1293 -0.2102 -0.0026
34917POPC   D2A64989   8.750  17.554   6.864 -0.0105  0.1125  0.0619
34917POPC   C3A64990   8.582  17.551   7.257  0.1076 -0.3244 -0.1616
34917POPC   C4A64991   8.380  17.231   7.629  0.0122  0.2999  0.0228
34917POPC   C1B64992   8.665  18.440   6.901  0.2085 -0.2243 -0.1669
34917POPC   C2B64993   8.365  18.480   7.241 -0.1451  0.0783 -0.1332
34917POPC   C3B64994   8.472  18.556   7.729  0.0794  0.0020 -0.1336
34917POPC   C4B64995   8.450  18.471   8.165  0.1686 -0.0814 -0.3811
34918POPC   NC364996   3.174  23.201   5.031 -0.0312 -0.3485 -0.0320
34918POPC   PO464997   3.128  23.420   5.386 -0.0822 -0.3525 -0.1686
34918POPC   GL164998   2.986  23.304   5.724  0.3446  0.0594  0.1307
34918POPC   GL264999   2.885  23.081   5.784  0.2749 -0.0663 -0.1876
34918POPC   C1A65000   3.048  23.485   6.096 -0.1696 -0.1071 -0.0551
34918POPC   D2A65001   2.932  23.504   6.504  0.1301 -0.2796 -0.0302
34918POPC   C3A65002   3.120  23.417   6.992  0.0361  0.3027  0.1225
34918POPC   C4A65003   3.280  23.603   7.382 -0.3451  0.1615 -0.3477
34918POPC   C1B65004   2.814  22.994   6.215 -0.6071  0.4465 -0.1400
34918POPC   C2B65005   2.635  23.042   6.603 -0.2548 -0.0063 -0.0476
34918POPC   C3B65006   2.310  22.811   6.881 -0.0920 -0.1367  0.1729
34918POPC   C4B65007   2.544  22.598   7.242 -0.2481  0.0656 -0.2708
34919POPC   NC365008   3.956  22.353   5.265 -0.3106 -0.0683  0.0514
34919POPC   PO465009   4.303  22.543   5.277 -0.0136  0.1464  0.0193
34919POPC   GL165010   4.241  22.439   5.648  0.2368 -0.1767  0.2668
34919POPC   GL265011   4.013  22.633   5.696 -0.0533 -0.1501 -0.1367
34919POPC   C1A65012   4.071  22.300   6.049 -0.0081 -0.0148 -0.1657
34919POPC   D2A65013   3.803  22.147   6.450 -0.0992 -0.1897 -0.0434
34919POPC   C3A65014   3.579  22.106   6.852 -0.2056  0.0040 -0.1376
34919POPC   C4A65015   3.290  21.973   7.215 -0.0886 -0.2309  0.0954
34919POPC   C1B65016   3.831  22.938   6.031  0.1003  0.1530 -0.0332
34919POPC   C2B65017   3.781  23.067   6.427 -0.2335  0.1139  0.3006
34919POPC   C3B65018   3.941  23.158   6.866 -0.1052  0.0591  0.1761
34919POPC   C4B65019   4.276  23.292   7.039 -0.1647 -0.2590 -0.1218
34920POPC   NC365020   9.130  25.149   7.546 -0.0383  0.4423 -0.2326
34920POPC   PO465021   9.111  24.854   7.846  0.2800  0.1602 -0.2522
34920POPC   GL165022   9.069  24.776   8.191  0.2780  0.0768  0.0042
34920POPC   GL265023   8.922  24.954   8.297  0.2973  0.3288 -0.0700
34920POPC   C1A65024   9.290  25.047   8.565 -0.0677  0.0667 -0.0433
34920POPC   D2A65025   9.479  25.440   8.705 -0.2025 -0.2095  0.1692
34920POPC   C3A65026   9.209  25.762   8.833 -0.2761 -0.1866 -0.0335
34920POPC   C4A65027   8.783  25.822   8.928 -0.1539 -0.0342 -0.0383
34920POPC   C1B65028   8.991  25.398   8.457  0.2361 -0.0599  0.1096
34920POPC   C2B65029   8.766  25.751   8.456 -0.1258  0.0147  0.1197
34920POPC   C3B65030   8.424  26.008   8.305 -0.1024  0.0662 -0.1836
34920POPC   C4B65031   8.267  26.366   8.302  0.1995 -0.0860  0.2756
34921POPC   NC365032  11.115  26.968   6.082 -0.3362  0.2377  0.0062
34921POPC   PO465033  10.767  26.926   6.267 -0.4142  0.0480 -0.1250
34921POPC   GL165034  10.837  27.307   6.424 -0.2625  0.1463  0.0424
34921POPC   GL265035  10.686  27.375   6.593  0.3229 -0.0078 -0.0855
34921POPC   C1A65036  11.122  27.400   6.821  0.1013  0.1995  0.1185
34921POPC   D2A65037  11.099  27.665   7.149 -0.1805 -0.1236 -0.1073
34921POPC   C3A65038  10.930  27.794   7.500  0.0763 -0.3121 -0.0911
34921POPC   C4A65039  10.508  27.963   7.691  0.3146  0.0859  0.0152
34921POPC   C1B65040  10.636  27.249   6.996  0.2179  0.2886  0.0126
34921POPC   C2B65041  10.519  27.583   7.367 -0.0522 -0.1619  0.2616
34921POPC   C3B65042  10.187  27.620   7.737 -0.2939  0.0309 -0.1039
34921POPC   C4B65043   9.753  27.740   7.580 -0.1981  0.0472  0.4396
34922POPC   NC365044  12.377  30.782   4.200  0.3795 -0.3043  0.2366
34922POPC   PO465045  12.648  30.786   4.473 -0.3565 -0.2328  0.1658
34922POPC   GL165046  12.802  30.919   4.842 -0.2901 -0.0973 -0.2211
34922POPC   GL265047  13.013  30.784   5.024 -0.0321  0.1596 -0.1033
34922POPC   C1A65048  12.730  31.131   5.241 -0.0772 -0.3855 -0.2434
34922POPC   D2A65049  12.602  31.238   5.635  0.2267  0.0539  0.0438
34922POPC   C3A65050  12.842  31.137   6.000 -0.0106 -0.0028  0.0916
34922POPC   C4A65051  13.140  30.834   6.037  0.0515 -0.0696  0.0098
34922POPC   C1B65052  13.056  30.684   5.463  0.0009  0.3278 -0.4983
34922POPC   C2B65053  13.164  30.345   5.753  0.0979 -0.1478 -0.1274
34922POPC   C3B65054  13.035  30.303   6.174  0.0807  0.0930  0.0099
34922POPC   C4B65055  13.204  30.237   6.614 -0.1046 -0.2056 -0.2940
34923POPC   NC365056   7.328  23.584   7.935 -0.1073 -0.2130  0.1737
34923POPC   PO465057   7.461  23.727   7.587 -0.1036  0.1467 -0.1946
34923POPC   GL165058   7.329  24.062   7.850  0.2672 -0.0496 -0.1382
34923POPC   GL265059   7.068  24.050   7.712 -0.0813 -0.0700  0.4110
34923POPC   C1A65060   7.450  23.974   8.314  0.2215  0.1952 -0.0075
34923POPC   D2A65061   7.628  24.178   8.689 -0.0030 -0.2573  0.1289
34923POPC   C3A65062   7.333  24.372   9.036 -0.0017  0.0822 -0.0922
34923POPC   C4A65063   7.045  24.800   9.127  0.0178  0.0468  0.2485
34923POPC   C1B65064   6.889  23.821   8.073 -0.1996  0.1428 -0.0915
34923POPC   C2B65065   6.666  23.888   8.495  0.0881 -0.1853 -0.0838
34923POPC   C3B65066   6.295  23.945   8.789 -0.1375 -0.0025 -0.3201
34923POPC   C4B65067   6.046  24.136   9.077 -0.0021  0.1631 -0.1023
34924POPC   NC365068   9.436  30.312   4.850  0.0325 -0.1117 -0.0649
34924POPC   PO465069   9.300  29.910   4.918 -0.1274  0.0299 -0.0544
34924POPC   GL165070   9.406  30.003   5.272 -0.0679  0.0137  0.1733
34924POPC   GL265071   9.697  30.100   5.355  0.1800 -0.0133 -0.1208
34924POPC   C1A65072   9.174  29.771   5.620 -0.2065  0.1287  0.2793
34924POPC   D2A65073   8.932  29.734   5.959 -0.3229 -0.1341  0.0067
34924POPC   C3A65074   8.797  29.624   6.452  0.1552 -0.1032 -0.4741
34924POPC   C4A65075   8.481  29.452   6.755 -0.1081 -0.1016 -0.2042
34924POPC   C1B65076   9.608  30.080   5.855  0.2256 -0.1722 -0.2232
34924POPC   C2B65077   9.398  29.889   6.169 -0.0734  0.1205 -0.0176
34924POPC   C3B65078   9.252  29.673   6.555  0.0230  0.1718  0.0200
34924POPC   C4B65079   9.003  29.746   6.904 -0.1906 -0.0739 -0.0931
34925POPC   NC365080   0.832  28.076   4.008 -0.3230  0.0939  0.2336
34925POPC   PO465081   0.832  27.729   4.181  0.0618  0.3607 -0.3371
34925POPC   GL165082   0.779  27.783   4.510  0.2145  0.1523  0.3590
34925POPC   GL265083   0.850  28.047   4.629  0.2146  0.0101  0.0660
34925POPC   C1A65084   0.455  27.691   4.803  0.0645  0.0994 -0.3977
34925POPC   D2A65085   0.015  27.658   4.877  0.2347  0.0422  0.1094
34925POPC   C3A65086  -0.334  27.665   5.155 -0.1311  0.2453 -0.1066
34925POPC   C4A65087  -0.444  27.581   5.587 -0.0700  0.1592 -0.2088
34925POPC   C1B65088   1.191  28.091   4.912  0.2694  0.1383  0.2766
34925POPC   C2B65089   1.433  28.390   5.187  0.2715 -0.0370 -0.0274
34925POPC   C3B65090   1.697  28.761   5.317  0.0900  0.3873  0.1925
34925POPC   C4B65091   1.740  29.195   5.578  0.1419 -0.0009 -0.1972
34926POPC   NC365092   5.935  28.476   4.589  0.0174  0.0846 -0.1739
34926POPC   PO465093   6.146  28.757   4.743  0.2038  0.2177  0.0031
34926POPC   GL165094   6.150  28.957   5.048  0.0822 -0.2854  0.1622
34926POPC   GL265095   6.336  29.157   5.020  0.0187 -0.0831  0.2489
34926POPC   C1A65096   5.900  29.293   5.275 -0.1948 -0.0055  0.0987
34926POPC   D2A65097   5.429  29.385   5.425 -0.2040 -0.0312  0.0615
34926POPC   C3A65098   5.254  29.526   5.857  0.1103  0.3744  0.2262
34926POPC   C4A65099   5.492  29.594   6.231 -0.1792  0.2365  0.0490
34926POPC   C1B65100   6.449  29.459   5.320  0.0779  0.2720 -0.5427
34926POPC   C2B65101   6.222  29.671   5.728 -0.0780 -0.0647  0.1176
34926POPC   C3B65102   6.279  29.566   6.128  0.1701  0.4124 -0.0363
34926POPC   C4B65103   6.291  29.403   6.562 -0.0188 -0.1244 -0.0980
34927POPC   NC365104  12.584  26.332   6.150 -0.0374  0.0595  0.2129
34927POPC   PO465105  12.412  26.579   5.910 -0.1238  0.0566  0.3738
34927POPC   GL165106  12.664  26.772   6.157  0.1041  0.0551 -0.0731
34927POPC   GL265107  12.642  27.053   6.017 -0.1421  0.0378 -0.0001
34927POPC   C1A65108  12.842  27.037   6.498  0.0031  0.4829 -0.0795
34927POPC   D2A65109  12.930  27.243   6.862 -0.3714  0.0023 -0.1237
34927POPC   C3A65110  12.638  27.328   7.226 -0.0629 -0.1609  0.1653
34927POPC   C4A65111  12.348  27.637   7.319  0.0898  0.3449  0.2000
34927POPC   C1B65112  12.539  27.402   6.422 -0.0223  0.0708 -0.0185
34927POPC   C2B65113  12.401  27.567   6.801 -0.0291 -0.1989  0.0541
34927POPC   C3B65114  12.058  27.829   6.919 -0.0318 -0.0767 -0.0179
34927POPC   C4B65115  11.724  28.132   6.877  0.1063 -0.2788  0.1177
34928POPC   NC365116  10.972  21.392   8.946  0.2652  0.3304 -0.0579
34928POPC   PO465117  10.971  21.676   9.187  0.0647 -0.3019  0.1030
34928POPC   GL165118  11.331  21.732   9.260  0.2254 -0.1970 -0.0899
34928POPC   GL265119  11.511  21.531   9.129  0.1523  0.0338 -0.3160
34928POPC   C1A65120  11.652  21.789   9.548 -0.2376  0.3820 -0.1087
34928POPC   D2A65121  12.142  21.890   9.587  0.0037 -0.0478  0.1627
34928POPC   C3A65122  12.412  21.554   9.754  0.1798  0.0537  0.3255
34928POPC   C4A65123  12.508  21.503  10.220  0.1130 -0.1567 -0.3252
34928POPC   C1B65124  11.456  21.316   9.546 -0.1123  0.2600 -0.1046
34928POPC   C2B65125  11.593  21.016   9.929 -0.0908 -0.2524  0.0696
34928POPC   C3B65126  11.898  20.762  10.136  0.0817  0.0788  0.1295
34928POPC   C4B65127  12.192  20.416  10.222  0.2924 -0.4159  0.3607
34929POPC   NC365128   6.602  20.793   7.047 -0.1118  0.2760 -0.0594
34929POPC   PO465129   6.850  21.105   7.053  0.4191 -0.3186 -0.2894
34929POPC   GL165130   6.638  20.944   7.454 -0.1721  0.0890  0.0037
34929POPC   GL265131   6.468  21.166   7.440  0.0747  0.3417 -0.2073
34929POPC   C1A65132   6.570  20.985   7.902 -0.0124  0.2413 -0.0466
34929POPC   D2A65133   6.390  20.941   8.326  0.1091 -0.0424  0.1714
34929POPC   C3A65134   6.030  21.217   8.299  0.0850  0.0575 -0.2773
34929POPC   C4A65135   5.777  21.539   8.259  0.0526  0.0559  0.0018
34929POPC   C1B65136   6.113  21.124   7.732 -0.1995  0.0569  0.0896
34929POPC   C2B65137   5.716  21.032   7.903  0.0095  0.2345 -0.0660
34929POPC   C3B65138   5.510  21.145   8.302 -0.0318  0.0532 -0.2487
34929POPC   C4B65139   5.686  21.384   8.712 -0.0594 -0.0030 -0.3522
34930POPC   NC365140   9.303  21.376   9.601  0.1185  0.2701 -0.1332
34930POPC   PO465141   9.407  21.608   9.904  0.1386  0.0191 -0.0672
34930POPC   GL165142   9.557  21.273  10.023 -0.0869  0.2907 -0.4702
34930POPC   GL265143   9.830  21.206  10.052  0.4096  0.2795  0.0027
34930POPC   C1A65144   9.294  20.865  10.148 -0.0632  0.0609 -0.1082
34930POPC   D2A65145   9.142  20.644  10.486  0.0114 -0.2248 -0.0963
34930POPC   C3A65146   8.686  20.585  10.664 -0.1244  0.3395  0.3087
34930POPC   C4A65147   8.285  20.780  10.776 -0.2457  0.0731 -0.0971
34930POPC   C1B65148  10.101  20.964  10.296 -0.1326  0.4058 -0.2558
34930POPC   C2B65149  10.354  20.740  10.623  0.0639  0.0226  0.0311
34930POPC   C3B65150  10.557  20.448  10.862 -0.2556  0.0201 -0.0492
34930POPC   C4B65151  10.974  20.150  10.961 -0.2549 -0.4087 -0.0301
34931POPC   NC365152   8.500  19.069   6.881  0.1563  0.1529  0.1499
34931POPC   PO465153   8.525  19.450   7.009 -0.0342 -0.2301 -0.1732
34931POPC   GL165154   8.785  19.232   7.266 -0.2535  0.0773 -0.0475
34931POPC   GL265155   8.758  19.384   7.504 -0.0032  0.1424  0.1598
34931POPC   C1A65156   8.790  18.785   7.377 -0.0146 -0.2097  0.0313
34931POPC   D2A65157   8.916  18.380   7.522 -0.1324  0.1106 -0.2579
34931POPC   C3A65158   8.943  18.352   7.932 -0.0541 -0.1048 -0.0506
34931POPC   C4A65159   9.068  18.464   8.380 -0.2126 -0.2545  0.2232
34931POPC   C1B65160   9.272  19.465   7.575 -0.1008  0.1790  0.1079
34931POPC   C2B65161   9.536  19.539   7.973  0.0222 -0.0961 -0.2517
34931POPC   C3B65162   9.668  19.356   8.360 -0.0816  0.1913  0.0471
34931POPC   C4B65163   9.606  19.237   8.827  0.2659  0.0286  0.1509
34932POPC   NC365164   6.792  20.260   7.114  0.2545  0.0811 -0.1074
34932POPC   PO465165   6.857  20.556   7.358 -0.0050  0.1034  0.0259
34932POPC   GL165166   6.678  20.352   7.623  0.1604 -0.0384  0.1408
34932POPC   GL265167   6.691  20.044   7.596 -0.2245  0.0326 -0.0372
34932POPC   C1A65168   6.246  20.201   7.750 -0.0187  0.1037  0.0893
34932POPC   D2A65169   5.940  19.862   7.795 -0.0336  0.2041 -0.1909
34932POPC   C3A65170   6.007  19.508   8.159 -0.2827 -0.3535  0.2141
34932POPC   C4A65171   5.859  19.150   8.418  0.1712 -0.0529  0.1302
34932POPC   C1B65172   6.886  19.659   7.749 -0.1939  0.0469 -0.2920
34932POPC   C2B65173   6.819  19.367   8.076  0.3505 -0.2770 -0.1454
34932POPC   C3B65174   6.592  19.214   8.415 -0.1929  0.1864 -0.3345
34932POPC   C4B65175   6.246  19.212   8.746  0.0351 -0.0511  0.0537
34933POPC   NC365176  15.199  19.842   5.061 -0.1259  0.3147  0.1349
34933POPC   PO465177  15.306  20.210   5.017 -0.1594  0.0556 -0.0582
34933POPC   GL165178  15.139  20.359   5.339 -0.0799 -0.0711 -0.2559
34933POPC   GL265179  15.397  20.526   5.413 -0.0936  0.0086  0.0564
34933POPC   C1A65180  15.213  20.070   5.699  0.1110 -0.0511  0.0898
34933POPC   D2A65181  15.059  20.075   6.191  0.3074 -0.0736 -0.0688
34933POPC   C3A65182  15.130  19.770   6.499 -0.0300 -0.1440  0.2341
34933POPC   C4A65183  15.175  19.567   6.872 -0.0023  0.0598  0.2187
34933POPC   C1B65184  15.410  20.827   5.728 -0.1523 -0.2490  0.0776
34933POPC   C2B65185  15.486  20.859   6.181  0.0336 -0.0491  0.3364
34933POPC   C3B65186  15.354  20.791   6.617  0.1485  0.2563 -0.1372
34933POPC   C4B65187  15.311  20.640   7.066  0.1269  0.0157 -0.1053
34934POPC   NC365188  16.328  26.209   5.249 -0.3743  0.0808 -0.0217
34934POPC   PO465189  16.121  26.462   5.070 -0.2138 -0.2772  0.1382
34934POPC   GL165190  16.221  26.663   5.297 -0.0839  0.2032  0.3895
34934POPC   GL265191  16.489  26.786   5.344 -0.0420  0.0825 -0.1922
34934POPC   C1A65192  16.168  26.934   5.648 -0.2200 -0.2968  0.0231
34934POPC   D2A65193  16.426  27.225   5.930 -0.1655  0.0981 -0.0189
34934POPC   C3A65194  16.778  27.227   6.160  0.1912  0.2703  0.2643
34934POPC   C4A65195  16.893  26.967   6.534 -0.2720  0.5015  0.0008
34934POPC   C1B65196  16.563  26.703   5.829  0.2413  0.0698  0.0470
34934POPC   C2B65197  16.657  26.380   6.106  0.1787  0.2420 -0.1125
34934POPC   C3B65198  16.958  26.073   6.312 -0.1612  0.1803 -0.0916
34934POPC   C4B65199  17.302  26.163   6.621  0.3194  0.2622  0.0852
34935POPC   NC365200   6.231  16.928   4.785 -0.0013  0.1332  0.0297
34935POPC   PO465201   5.892  17.009   4.975  0.0038  0.0407 -0.1710
34935POPC   GL165202   5.531  16.869   5.020  0.3595  0.0463 -0.2025
34935POPC   GL265203   5.461  17.030   5.235  0.4101 -0.2553 -0.0110
34935POPC   C1A65204   5.444  16.533   5.401 -0.1628 -0.1913 -0.0830
34935POPC   D2A65205   5.284  16.195   5.711  0.2519  0.1764 -0.2848
34935POPC   C3A65206   5.055  16.277   6.144  0.0011 -0.1807  0.3764
34935POPC   C4A65207   4.734  16.348   6.472  0.1758 -0.2240  0.2278
34935POPC   C1B65208   5.242  17.046   5.656 -0.1594  0.1676 -0.3835
34935POPC   C2B65209   5.407  17.123   6.113  0.1014  0.2294  0.2046
34935POPC   C3B65210   5.662  16.818   6.287 -0.1786  0.0828 -0.2113
34935POPC   C4B65211   5.814  16.499   6.579  0.0176  0.1170 -0.1648
34936POPC   NC365212   0.265  28.518   4.424 -0.0543  0.0541 -0.1670
34936POPC   PO465213   0.601  28.459   4.305  0.2662  0.0032 -0.1954
34936POPC   GL165214   0.779  28.480   4.654  0.2348 -0.2237 -0.2309
34936POPC   GL265215   0.592  28.668   4.777  0.1207 -0.1966 -0.1696
34936POPC   C1A65216   1.029  28.585   4.980 -0.4132  0.1011 -0.0644
34936POPC   D2A65217   1.108  28.703   5.442 -0.1202  0.2440  0.3031
34936POPC   C3A65218   0.819  29.030   5.625 -0.2064  0.1596  0.4251
34936POPC   C4A65219   0.361  29.181   5.745  0.0226  0.0036 -0.3225
34936POPC   C1B65220   0.638  28.709   5.301 -0.0021 -0.3745  0.1375
34936POPC   C2B65221   0.656  28.586   5.722  0.0629  0.0963 -0.1505
34936POPC   C3B65222   0.972  28.225   5.891  0.3335 -0.0108  0.0087
34936POPC   C4B65223   1.080  27.753   5.807 -0.2416  0.1160  0.0903
34937POPC   NC365224  10.019  23.622  10.313 -0.1293 -0.0153  0.4603
34937POPC   PO465225   9.807  23.932  10.255  0.1052 -0.0320  0.1072
34937POPC   GL165226   9.534  24.184  10.447  0.1735 -0.3635  0.2461
34937POPC   GL265227   9.378  24.266  10.208 -0.0293  0.0990 -0.2978
34937POPC   C1A65228   9.466  24.599  10.565 -0.1475 -0.1492  0.0711
34937POPC   D2A65229   9.697  25.009  10.695 -0.1120 -0.4524 -0.0186
34937POPC   C3A65230   9.853  25.384  10.507  0.0315  0.2276 -0.1386
34937POPC   C4A65231  10.041  25.810  10.457 -0.0734 -0.2387 -0.1137
34937POPC   C1B65232   9.198  24.630  10.046  0.1370 -0.1193  0.1504
34937POPC   C2B65233   8.979  25.007   9.939 -0.0955 -0.0859  0.0087
34937POPC   C3B65234   8.764  25.430   9.868  0.1312  0.0865  0.0428
34937POPC   C4B65235   8.436  25.722  10.002  0.3115  0.1989  0.2848
34938POPC   NC365236   2.796  18.084   4.926 -0.1353  0.2580 -0.0724
34938POPC   PO465237   2.754  18.470   4.845 -0.1590  0.3898  0.0210
34938POPC   GL165238   2.759  18.472   5.232  0.1756 -0.0066 -0.0422
34938POPC   GL265239   3.049  18.461   5.254  0.0635 -0.1302  0.2974
34938POPC   C1A65240   2.778  18.766   5.555 -0.0169 -0.0912 -0.1539
34938POPC   D2A65241   2.864  18.809   5.947  0.3307 -0.3247  0.0067
34938POPC   C3A65242   3.278  18.969   6.046  0.0772  0.1962 -0.0985
34938POPC   C4A65243   3.668  19.283   5.946  0.3301 -0.2229  0.0470
34938POPC   C1B65244   2.964  18.259   5.660  0.1087  0.2374  0.2556
34938POPC   C2B65245   2.984  18.176   6.077 -0.1575  0.0384 -0.1202
34938POPC   C3B65246   3.016  18.005   6.529 -0.1870 -0.0448 -0.1148
34938POPC   C4B65247   2.791  17.612   6.700 -0.0503 -0.0179 -0.1706
34939POPC   NC365248  13.295  27.180   5.219  0.1109 -0.4175 -0.0631
34939POPC   PO465249  13.607  27.450   5.159 -0.0147 -0.0001 -0.1950
34939POPC   GL165250  13.741  27.541   5.488  0.0336  0.0695 -0.3028
34939POPC   GL265251  14.043  27.418   5.444  0.3115  0.1403  0.0146
34939POPC   C1A65252  14.033  27.706   5.835 -0.1036 -0.3739 -0.3518
34939POPC   D2A65253  14.202  27.584   6.226 -0.0090  0.0043 -0.0405
34939POPC   C3A65254  14.383  27.903   6.509 -0.0112  0.1370 -0.0306
34939POPC   C4A65255  14.560  28.257   6.593  0.1738 -0.0940  0.2821
34939POPC   C1B65256  14.375  27.357   5.768  0.1845 -0.1556 -0.0981
34939POPC   C2B65257  14.553  27.239   6.157  0.0127  0.2775  0.0456
34939POPC   C3B65258  14.676  26.953   6.511  0.0558  0.1674  0.0009
34939POPC   C4B65259  14.684  26.578   6.810 -0.1027  0.1621  0.1467
34940POPC   NC365260   3.738  28.796   4.047  0.1410  0.2636  0.2566
34940POPC   PO465261   3.982  28.971   4.275  0.1081 -0.2376 -0.0080
34940POPC   GL165262   3.904  29.072   4.690  0.1137 -0.0182  0.3592
34940POPC   GL265263   3.729  29.279   4.627  0.2094 -0.0452  0.1644
34940POPC   C1A65264   4.072  29.411   4.924  0.1641 -0.2024  0.1335
34940POPC   D2A65265   4.008  29.614   5.325 -0.2816 -0.0620  0.3044
34940POPC   C3A65266   4.307  29.878   5.565 -0.1247  0.5240 -0.0405
34940POPC   C4A65267   4.404  30.098   5.942 -0.0840  0.1096 -0.0919
34940POPC   C1B65268   3.690  29.722   4.724 -0.2011  0.1045 -0.1527
34940POPC   C2B65269   3.462  29.870   5.090  0.1524  0.1295  0.0898
34940POPC   C3B65270   3.326  30.086   5.503 -0.1385 -0.3484  0.4266
34940POPC   C4B65271   2.990  30.391   5.677  0.3492  0.0616 -0.1250
34941POPC   NC365272  14.639  25.453   5.542  0.0026 -0.1692  0.0462
34941POPC   PO465273  14.810  25.338   5.223 -0.4311 -0.4223 -0.0532
34941POPC   GL165274  15.120  25.302   5.284 -0.4176  0.2834  0.3505
34941POPC   GL265275  15.188  25.525   5.530  0.0553 -0.1463 -0.0643
34941POPC   C1A65276  15.451  25.098   5.616  0.1464 -0.0380  0.1159
34941POPC   D2A65277  15.654  25.142   6.020 -0.2347  0.1111  0.0545
34941POPC   C3A65278  15.830  24.939   6.355 -0.0661  0.2988  0.0809
34941POPC   C4A65279  15.781  24.772   6.781  0.1904  0.2887  0.1180
34941POPC   C1B65280  15.140  25.428   5.951  0.2092 -0.2780 -0.1006
34941POPC   C2B65281  15.199  25.444   6.400  0.0339 -0.0134  0.1509
34941POPC   C3B65282  15.077  25.708   6.792  0.1401 -0.2251 -0.2261
34941POPC   C4B65283  14.856  26.059   6.897 -0.3182  0.2839 -0.1080
34942POPC   NC365284  32.750  17.796   4.373  0.3289  0.0558 -0.0377
34942POPC   PO465285  32.428  17.979   4.495  0.1815  0.0633 -0.0948
34942POPC   GL165286  32.714  17.964   4.882 -0.1735 -0.3065  0.0516
34942POPC   GL265287  32.567  17.764   4.985  0.0242 -0.1373  0.4078
34942POPC   C1A65288  32.544  18.080   5.344  0.2099  0.0981 -0.1248
34942POPC   D2A65289  32.463  18.044   5.832 -0.0295 -0.2125 -0.0498
34942POPC   C3A65290  32.802  17.978   6.158  0.2347 -0.0017  0.3204
34942POPC   C4A65291  33.002  17.696   6.533  0.0010  0.3661  0.1302
34942POPC   C1B65292  32.730  17.611   5.368 -0.0161 -0.2826  0.2557
34942POPC   C2B65293  32.600  17.247   5.524  0.1420 -0.2156  0.1595
34942POPC   C3B65294  32.323  16.880   5.440 -0.1460 -0.2997 -0.1903
34942POPC   C4B65295  32.038  16.654   5.152 -0.2236  0.1084  0.0625
34943POPC   NC365296   1.402  23.049   5.315  0.0570  0.0068  0.0627
34943POPC   PO465297   1.011  22.991   5.220  0.0411 -0.0637  0.1787
34943POPC   GL165298   1.133  23.166   5.640  0.1688 -0.1125 -0.0750
34943POPC   GL265299   0.916  23.107   5.763  0.0161  0.0230 -0.1496
34943POPC   C1A65300   1.208  23.073   6.107 -0.0396 -0.1890  0.1877
34943POPC   D2A65301   1.498  22.958   6.453 -0.1129  0.2607 -0.0353
34943POPC   C3A65302   1.293  23.034   6.912 -0.0012  0.2958  0.0682
34943POPC   C4A65303   0.858  23.170   7.059 -0.1837 -0.0460 -0.0751
34943POPC   C1B65304   0.629  22.920   6.060  0.0915  0.0074 -0.1367
34943POPC   C2B65305   0.323  22.709   6.336  0.1617 -0.0439 -0.0138
34943POPC   C3B65306   0.338  22.739   6.813  0.0732 -0.0710 -0.0735
34943POPC   C4B65307   0.318  23.013   7.192 -0.0465 -0.0312 -0.1937
34944POPC   NC365308  13.975  20.697   5.094  0.0479 -0.1651  0.0449
34944POPC   PO465309  13.743  20.742   5.392 -0.1950  0.0662  0.0034
34944POPC   GL165310  13.975  20.597   5.740  0.1233 -0.3258  0.0762
34944POPC   GL265311  13.793  20.544   6.007 -0.0640  0.1683  0.2020
34944POPC   C1A65312  14.370  20.338   5.836 -0.0417 -0.1692  0.0237
34944POPC   D2A65313  14.752  20.199   5.576  0.1630 -0.0604  0.1742
34944POPC   C3A65314  14.799  19.797   5.857 -0.1435  0.0344 -0.0276
34944POPC   C4A65315  14.744  19.594   6.272  0.1968 -0.0348  0.2793
34944POPC   C1B65316  14.073  20.271   6.310 -0.1398  0.4441  0.0083
34944POPC   C2B65317  14.066  20.050   6.737 -0.1886  0.1450 -0.1516
34944POPC   C3B65318  14.282  19.952   7.182  0.2032 -0.1446 -0.0816
34944POPC   C4B65319  14.506  19.739   7.480  0.1553 -0.2548 -0.0258
34945POPC   NC365320  14.382   0.566   4.552  0.0494 -0.0818  0.0969
34945POPC   PO465321  14.373   0.910   4.714  0.0193 -0.2455 -0.2018
34945POPC   GL165322  14.402   0.854   5.068 -0.0691  0.1375 -0.2114
34945POPC   GL265323  14.249   0.538   5.150 -0.1381 -0.0132 -0.1603
34945POPC   C1A65324  14.762   0.867   5.334 -0.0027 -0.0400 -0.0735
34945POPC   D2A65325  14.914   1.008   5.740 -0.0607 -0.0001  0.0346
34945POPC   C3A65326  14.891   1.033   6.258  0.1000 -0.1275  0.0190
34945POPC   C4A65327  15.195   0.841   6.545 -0.1347 -0.0412 -0.2228
34945POPC   C1B65328  14.059   0.345   5.587  0.0110 -0.0887 -0.1402
34945POPC   C2B65329  14.229   0.369   5.966 -0.1038 -0.2273 -0.1521
34945POPC   C3B65330  14.169   0.523   6.372 -0.2652  0.2077  0.0738
34945POPC   C4B65331  14.000   0.602   6.758 -0.0665 -0.0199  0.1449
34946POPC   NC365332  12.566   0.227   4.361 -0.0946  0.2077 -0.1975
34946POPC   PO465333  12.642   0.155   4.732  0.2689 -0.0122  0.0240
34946POPC   GL165334  12.927   0.266   5.043  0.1493  0.3021 -0.1299
34946POPC   GL265335  12.731   0.347   5.216  0.2389  0.0889 -0.0007
34946POPC   C1A65336  12.916  -0.057   5.420  0.0838 -0.3160 -0.1425
34946POPC   D2A65337  12.906  -0.522   5.427  0.1221 -0.1617  0.5510
34946POPC   C3A65338  13.139  -0.578   5.868  0.1287  0.0647 -0.0917
34946POPC   C4A65339  13.542  -0.402   5.908  0.0700 -0.3079 -0.1271
34946POPC   C1B65340  12.889   0.404   5.620  0.1370 -0.0403  0.2298
34946POPC   C2B65341  12.795   0.367   6.039 -0.0288  0.0112  0.1108
34946POPC   C3B65342  12.494   0.168   6.355 -0.0564 -0.0736 -0.1939
34946POPC   C4B65343  12.332   0.054   6.779 -0.0812 -0.1644 -0.0943
34947POPC   NC365344   9.932  24.782   7.718 -0.0455 -0.1697 -0.1815
34947POPC   PO465345  10.233  24.982   7.505 -0.0727  0.1540  0.1903
34947POPC   GL165346  10.252  25.103   7.929  0.0642 -0.1081  0.4110
34947POPC   GL265347  10.090  25.019   8.097  0.1526 -0.0553  0.2657
34947POPC   C1A65348  10.706  25.156   8.155 -0.0462  0.2915  0.0328
34947POPC   D2A65349  10.923  25.279   8.513  0.0721  0.1411  0.1620
34947POPC   C3A65350  11.129  25.736   8.526 -0.0600  0.1595  0.2866
34947POPC   C4A65351  11.382  26.103   8.522  0.0953 -0.1000 -0.2431
34947POPC   C1B65352   9.799  25.082   8.443 -0.1060  0.1358  0.0533
34947POPC   C2B65353   9.990  25.293   8.748 -0.2299 -0.0004  0.0103
34947POPC   C3B65354  10.216  25.274   9.140 -0.1467  0.3486 -0.0940
34947POPC   C4B65355  10.437  25.358   9.538  0.2133  0.1423  0.2139
34948POPC   NC365356  10.720  17.759   5.104 -0.1448  0.1266 -0.0939
34948POPC   PO465357  11.022  17.542   5.171  0.2499  0.1559  0.1070
34948POPC   GL165358  11.432  17.637   5.332 -0.0297 -0.0444 -0.2959
34948POPC   GL265359  11.403  17.738   5.661  0.3342 -0.1111  0.0994
34948POPC   C1A65360  11.711  17.381   5.622 -0.0319 -0.0853  0.1078
34948POPC   D2A65361  11.933  17.498   5.972  0.0746  0.1501  0.2076
34948POPC   C3A65362  12.199  17.247   6.243 -0.2694  0.0835 -0.2618
34948POPC   C4A65363  12.174  17.245   6.714 -0.0349  0.2680  0.0151
34948POPC   C1B65364  11.387  17.482   6.068 -0.0857 -0.0337 -0.2511
34948POPC   C2B65365  11.378  17.236   6.469 -0.0222  0.0485 -0.1298
34948POPC   C3B65366  11.229  17.222   6.920  0.1143  0.1759  0.0228
34948POPC   C4B65367  10.966  17.186   7.266  0.1067  0.0008  0.0635
34949POPC   NC365368   5.847  23.351   6.492 -0.0931 -0.0939 -0.1976
34949POPC   PO465369   5.858  23.708   6.294 -0.0682  0.0527  0.1205
34949POPC   GL165370   5.974  23.917   6.660  0.0592 -0.0818 -0.2275
34949POPC   GL265371   5.851  23.727   6.842 -0.1775 -0.1719  0.1943
34949POPC   C1A65372   5.963  24.224   6.999  0.1384  0.0953 -0.1473
34949POPC   D2A65373   6.107  24.278   7.407 -0.0906 -0.1581 -0.0385
34949POPC   C3A65374   6.117  24.666   7.616  0.0810  0.3866 -0.2278
34949POPC   C4A65375   5.928  25.020   7.561  0.1732  0.0163 -0.0629
34949POPC   C1B65376   5.432  23.736   7.005  0.1984 -0.4020  0.1815
34949POPC   C2B65377   5.104  23.792   7.292  0.5042  0.2724 -0.1260
34949POPC   C3B65378   4.944  24.076   7.694 -0.4364  0.2513 -0.0123
34949POPC   C4B65379   4.980  24.552   7.776 -0.0041  0.1144 -0.0680
34950POPC   NC365380   9.118  27.380   5.519  0.0773  0.2523 -0.0540
34950POPC   PO465381   8.916  27.579   5.733 -0.4251 -0.2495  0.1790
34950POPC   GL165382   8.779  27.807   5.968 -0.2404 -0.2863 -0.0776
34950POPC   GL265383   8.591  28.078   5.830 -0.0072 -0.3760 -0.0985
34950POPC   C1A65384   8.947  28.034   6.338 -0.0087  0.2502  0.1239
34950POPC   D2A65385   8.808  28.192   6.763 -0.3790  0.0307 -0.2736
34950POPC   C3A65386   8.421  28.168   6.961  0.3176  0.1813 -0.1848
34950POPC   C4A65387   8.115  28.555   6.838 -0.1577 -0.0081  0.0572
34950POPC   C1B65388   8.514  28.330   6.185  0.3855 -0.0323  0.3479
34950POPC   C2B65389   8.479  28.554   6.552  0.0361 -0.1934 -0.0186
34950POPC   C3B65390   8.834  28.688   6.837 -0.1559  0.1876  0.1241
34950POPC   C4B65391   8.864  28.831   7.261  0.4339 -0.2228  0.4668
34951POPC   NC365392  10.386  21.851  11.752 -0.1649 -0.0151  0.1936
34951POPC   PO465393  10.748  21.704  11.685  0.1037 -0.0861 -0.0119
34951POPC   GL165394  11.062  21.393  11.630 -0.0250  0.1023  0.1860
34951POPC   GL265395  11.294  21.361  11.412 -0.2770  0.0337  0.1302
34951POPC   C1A65396  10.954  21.029  11.933 -0.0575 -0.0287  0.1022
34951POPC   D2A65397  10.871  20.701  12.267  0.0643 -0.2125  0.1222
34951POPC   C3A65398  10.708  20.537  12.669 -0.0811  0.0612 -0.0237
34951POPC   C4A65399  10.630  20.137  12.918 -0.2211  0.2024 -0.0404
34951POPC   C1B65400  11.703  21.417  11.234  0.0957 -0.1186  0.0575
34951POPC   C2B65401  12.021  21.696  11.106  0.2716 -0.2042 -0.1668
34951POPC   C3B65402  12.482  21.698  11.255  0.2681  0.0610  0.1019
34951POPC   C4B65403  12.753  21.801  11.605  0.0090 -0.1081  0.0564
34952POPC   NC365404   4.508  25.679   4.698  0.3141  0.0409 -0.1212
34952POPC   PO465405   4.559  25.838   5.075 -0.0798  0.0536  0.1474
34952POPC   GL165406   4.696  25.713   5.454 -0.1619 -0.0945  0.1025
34952POPC   GL265407   4.739  25.954   5.541 -0.0181 -0.0022 -0.0218
34952POPC   C1A65408   4.693  25.477   5.858 -0.2521 -0.1843 -0.2668
34952POPC   D2A65409   4.323  25.479   6.166 -0.1243  0.0478 -0.2395
34952POPC   C3A65410   4.282  25.529   6.663 -0.2561 -0.1310  0.1963
34952POPC   C4A65411   4.427  25.838   6.935 -0.1099 -0.2238 -0.0453
34952POPC   C1B65412   4.440  25.970   5.922  0.0441 -0.0282  0.0079
34952POPC   C2B65413   4.419  25.914   6.358  0.0193 -0.1595  0.0799
34952POPC   C3B65414   4.143  26.128   6.643 -0.2073  0.2411  0.0705
34952POPC   C4B65415   4.131  26.287   7.074 -0.3281  0.0626  0.1070
34953POPC   NC365416   3.874  27.413   4.337  0.1101 -0.4608 -0.0035
34953POPC   PO465417   4.022  27.064   4.325  0.1714 -0.1259  0.0419
34953POPC   GL165418   3.941  26.986   4.693 -0.0318  0.1755 -0.2392
34953POPC   GL265419   4.195  26.914   4.811 -0.0789  0.0346 -0.0566
34953POPC   C1A65420   3.831  26.985   5.160  0.0987  0.0063  0.0584
34953POPC   D2A65421   3.531  27.108   5.527 -0.0911  0.1396 -0.1711
34953POPC   C3A65422   3.084  27.059   5.593 -0.0729  0.0456 -0.1085
34953POPC   C4A65423   2.909  26.603   5.604  0.3817  0.3122  0.2154
34953POPC   C1B65424   4.315  27.134   5.179  0.1247 -0.2720 -0.0775
34953POPC   C2B65425   4.324  27.524   5.479  0.0602  0.0494 -0.2866
34953POPC   C3B65426   4.038  27.734   5.745  0.2665 -0.2510 -0.0385
34953POPC   C4B65427   3.978  27.896   6.152  0.1213 -0.0757  0.1375
34954POPC   NC365428   8.213  18.540   6.288 -0.0409  0.1185 -0.2128
34954POPC   PO465429   7.814  18.508   6.300 -0.0181  0.0385  0.2374
34954POPC   GL165430   7.511  18.229   6.427 -0.0115 -0.1767 -0.1503
34954POPC   GL265431   7.462  17.974   6.239 -0.3592  0.2885 -0.3813
34954POPC   C1A65432   7.428  18.203   6.879 -0.1994  0.0729  0.2241
34954POPC   D2A65433   7.181  18.558   7.168  0.3441  0.0984 -0.1724
34954POPC   C3A65434   6.910  18.389   7.469  0.1990  0.1441  0.1196
34954POPC   C4A65435   6.750  18.258   7.929 -0.1332  0.0126  0.1075
34954POPC   C1B65436   7.904  17.896   6.515  0.3271 -0.3095 -0.1459
34954POPC   C2B65437   8.063  17.674   6.922 -0.0871 -0.2452  0.2129
34954POPC   C3B65438   8.086  17.572   7.386  0.0524  0.3946 -0.3502
34954POPC   C4B65439   8.172  17.631   7.855 -0.1023 -0.0432  0.0318
34955POPC   NC365440   8.188  23.125   9.468 -0.1323 -0.4498 -0.1322
34955POPC   PO465441   8.449  23.255   9.711  0.3097  0.0195 -0.0208
34955POPC   GL165442   8.334  23.495   9.996  0.0259  0.0532 -0.0966
34955POPC   GL265443   8.320  23.399  10.309 -0.0870 -0.0129 -0.3021
34955POPC   C1A65444   8.052  23.861   9.965  0.1258 -0.0972  0.2486
34955POPC   D2A65445   7.879  24.186  10.227  0.0598 -0.0588 -0.1985
34955POPC   C3A65446   7.419  24.272  10.411 -0.0042  0.1211  0.3389
34955POPC   C4A65447   7.039  24.081  10.668  0.0811 -0.0607  0.1697
34955POPC   C1B65448   8.140  23.821  10.424  0.0830  0.3384 -0.1490
34955POPC   C2B65449   7.801  24.049  10.683  0.1066  0.1640  0.0883
34955POPC   C3B65450   7.390  23.856  10.834  0.1220 -0.4003 -0.3070
34955POPC   C4B65451   7.046  23.674  10.973 -0.2368  0.0049 -0.0970
34956POPC   NC365452  13.291  28.277   5.150 -0.0371  0.0110 -0.0667
34956POPC   PO465453  13.530  28.006   5.309  0.1941 -0.0312  0.3729
34956POPC   GL165454  13.332  28.047   5.663 -0.0452  0.4176 -0.1257
34956POPC   GL265455  13.592  28.000   5.867 -0.1528 -0.0955  0.0571
34956POPC   C1A65456  13.144  27.876   6.026 -0.3570 -0.2226  0.0226
34956POPC   D2A65457  12.822  27.851   6.377 -0.1741 -0.0235 -0.2687
34956POPC   C3A65458  12.940  27.710   6.839  0.1820  0.3551 -0.0640
34956POPC   C4A65459  12.918  27.727   7.345 -0.0445  0.0475  0.0343
34956POPC   C1B65460  13.828  28.165   6.246 -0.3322  0.1619 -0.0297
34956POPC   C2B65461  13.798  28.403   6.625 -0.1178  0.0204 -0.1417
34956POPC   C3B65462  13.949  28.735   6.955  0.1972 -0.2442 -0.4202
34956POPC   C4B65463  13.659  29.016   7.158  0.2621 -0.4687 -0.2052
34957POPC   NC365464  10.250  28.876   5.314 -0.1123  0.3588 -0.0495
34957POPC   PO465465  10.330  29.217   5.155  0.2115  0.2635  0.3018
34957POPC   GL165466  10.341  29.246   5.545  0.1173  0.3469  0.0777
34957POPC   GL265467  10.573  29.056   5.672 -0.0102  0.0588  0.0781
34957POPC   C1A65468  10.301  29.484   5.915 -0.5693 -0.0479 -0.4730
34957POPC   D2A65469  10.442  29.660   6.322  0.0363  0.3174  0.0868
34957POPC   C3A65470  10.406  30.064   6.463 -0.0977 -0.2661 -0.1284
34957POPC   C4A65471  10.344  30.440   6.696 -0.1418 -0.0085 -0.2669
34957POPC   C1B65472  10.810  29.442   5.917 -0.1309 -0.1399  0.0432
34957POPC   C2B65473  11.063  29.473   6.322  0.0627  0.0388  0.0325
34957POPC   C3B65474  11.096  29.420   6.792  0.2695  0.1769  0.3430
34957POPC   C4B65475  11.121  29.280   7.252  0.2971  0.2413 -0.1473
34958POPC   NC365476  10.667  23.159  11.811 -0.1487 -0.2678 -0.0282
34958POPC   PO465477  10.928  23.015  12.076 -0.3202  0.2485 -0.0414
34958POPC   GL165478  11.242  23.032  11.928 -0.1505 -0.0045 -0.2598
34958POPC   GL265479  11.215  23.219  11.750 -0.1780  0.0389  0.1609
34958POPC   C1A65480  11.696  23.096  12.037 -0.0860 -0.2875 -0.2127
34958POPC   D2A65481  12.104  22.998  12.024  0.0169 -0.0967  0.0633
34958POPC   C3A65482  12.389  22.850  12.404 -0.0670 -0.0801  0.0630
34958POPC   C4A65483  12.566  22.467  12.670 -0.2738 -0.1507 -0.1601
34958POPC   C1B65484  11.531  23.005  11.513  0.0748 -0.0097 -0.0274
34958POPC   C2B65485  11.962  23.182  11.556 -0.0167  0.1410  0.0436
34958POPC   C3B65486  12.394  23.354  11.537  0.2666 -0.0715 -0.0201
34958POPC   C4B65487  12.798  23.203  11.425  0.0915  0.2722  0.1179
34959POPC   NC365488  14.226  18.433   4.720  0.1817  0.3702 -0.1000
34959POPC   PO465489  14.540  18.226   4.633  0.1761  0.2709  0.1236
34959POPC   GL165490  14.549  18.139   4.945  0.2217 -0.1601  0.3304
34959POPC   GL265491  14.466  17.824   4.924 -0.1616  0.1240 -0.3446
34959POPC   C1A65492  14.694  18.109   5.353 -0.0367  0.1507  0.1110
34959POPC   D2A65493  14.843  17.912   5.733 -0.1037  0.3307  0.0389
34959POPC   C3A65494  14.821  17.984   6.125 -0.8284  0.0763 -0.0905
34959POPC   C4A65495  14.579  17.975   6.538 -0.0498 -0.3846 -0.1580
34959POPC   C1B65496  14.511  17.563   5.309 -0.0269  0.4143 -0.1434
34959POPC   C2B65497  14.424  17.206   5.613 -0.2433 -0.0255  0.1393
34959POPC   C3B65498  14.526  16.881   5.928  0.0068  0.2439 -0.1646
34959POPC   C4B65499  14.599  16.529   6.206 -0.0934  0.1174  0.4229
34960POPC   NC365500  15.175  24.709   5.209  0.1335 -0.1794  0.0939
34960POPC   PO465501  14.844  24.863   5.336 -0.2755  0.0054 -0.2135
34960POPC   GL165502  14.932  24.961   5.733  0.0665  0.1958 -0.1708
34960POPC   GL265503  14.728  25.062   5.783  0.0211  0.0633  0.0421
34960POPC   C1A65504  15.134  24.778   6.098  0.0559 -0.0477 -0.2900
34960POPC   D2A65505  15.378  24.970   6.517 -0.1907 -0.0091 -0.1470
34960POPC   C3A65506  15.384  25.301   6.875  0.0378 -0.1130  0.2215
34960POPC   C4A65507  15.754  25.521   7.034  0.0330  0.1127 -0.0820
34960POPC   C1B65508  14.809  25.060   6.222  0.0363 -0.0642  0.0745
34960POPC   C2B65509  14.887  25.025   6.695 -0.3071 -0.0304 -0.2022
34960POPC   C3B65510  14.865  25.129   7.127  0.0819 -0.3168  0.0958
34960POPC   C4B65511  14.754  25.241   7.558  0.2021 -0.1688  0.2533
34961POPC   NC365512   1.679  30.109   3.883  0.0145  0.0417 -0.1258
34961POPC   PO465513   1.500  30.437   3.843 -0.2411  0.0777  0.2551
34961POPC   GL165514   1.334  30.383   4.128  0.0650 -0.0064 -0.2620
34961POPC   GL265515   1.233  30.131   4.142 -0.1393 -0.0136  0.1869
34961POPC   C1A65516   1.148  30.479   4.558 -0.0762  0.0318  0.2987
34961POPC   D2A65517   0.892  30.797   4.710  0.1589  0.1150 -0.1390
34961POPC   C3A65518   1.101  31.175   4.975  0.0537 -0.2609  0.1085
34961POPC   C4A65519   1.436  31.485   4.901  0.2256  0.0732 -0.1711
34961POPC   C1B65520   1.458  30.012   4.488  0.2238  0.2188  0.2780
34961POPC   C2B65521   1.589  29.554   4.650 -0.1018  0.0742 -0.0474
34961POPC   C3B65522   1.857  29.108   4.633  0.0186 -0.2275 -0.2573
34961POPC   C4B65523   2.137  28.776   4.413 -0.1020 -0.2535 -0.1880
34962POPC   NC365524   1.861  29.053   4.072 -0.2385  0.0354  0.1336
34962POPC   PO465525   2.167  29.172   3.827 -0.0972 -0.0588  0.0886
34962POPC   GL165526   2.409  29.198   4.145  0.0799  0.0289  0.0351
34962POPC   GL265527   2.632  29.036   4.067 -0.1260 -0.2135 -0.3542
34962POPC   C1A65528   2.345  29.380   4.521  0.0042 -0.0646 -0.1279
34962POPC   D2A65529   2.644  29.499   4.801  0.0142 -0.1952 -0.2969
34962POPC   C3A65530   2.672  29.343   5.264 -0.0461 -0.2165 -0.0124
34962POPC   C4A65531   2.594  29.239   5.744  0.2185  0.1290  0.2244
34962POPC   C1B65532   2.646  28.948   4.495 -0.0404 -0.0063  0.0161
34962POPC   C2B65533   2.482  28.930   4.912  0.2618 -0.2439 -0.1072
34962POPC   C3B65534   2.247  28.984   5.373  0.4465 -0.0565  0.4086
34962POPC   C4B65535   2.020  28.799   5.807 -0.2496  0.0296  0.3808
34963POPC   NC365536  10.493   0.508   5.235  0.0434 -0.0693  0.2665
34963POPC   PO465537  10.651   0.739   5.524 -0.1699 -0.1583 -0.0023
34963POPC   GL165538  10.957   0.581   5.754  0.1406 -0.1221  0.2208
34963POPC   GL265539  11.074   0.875   5.773  0.1497  0.0510 -0.0208
34963POPC   C1A65540  11.247   0.189   5.746 -0.1223 -0.1710  0.1474
34963POPC   D2A65541  11.446   0.088   6.107 -0.0453 -0.2832 -0.2516
34963POPC   C3A65542  11.233  -0.143   6.450  0.3228 -0.0974 -0.0558
34963POPC   C4A65543  10.982  -0.505   6.590 -0.0240  0.0605  0.0084
34963POPC   C1B65544  11.074   0.707   6.181  0.1605 -0.0031 -0.2976
34963POPC   C2B65545  11.163   0.362   6.514  0.0437 -0.2611  0.0189
34963POPC   C3B65546  11.429   0.103   6.860  0.2869 -0.0237  0.2745
34963POPC   C4B65547  11.419  -0.198   7.185  0.1109 -0.3771  0.0392
34964POPC   NC365548   5.681  26.304   5.389  0.1974  0.0857 -0.2250
34964POPC   PO465549   5.394  26.463   5.175  0.0948  0.0013  0.0092
34964POPC   GL165550   5.219  26.621   5.529 -0.0179  0.1533  0.0265
34964POPC   GL265551   5.449  26.756   5.704  0.1849 -0.0825 -0.0539
34964POPC   C1A65552   5.012  26.999   5.621 -0.2173  0.2723 -0.0738
34964POPC   D2A65553   4.783  27.176   5.963  0.1643 -0.1980  0.1475
34964POPC   C3A65554   4.660  26.824   6.275  0.0149 -0.1732 -0.0555
34964POPC   C4A65555   4.317  26.593   6.429  0.1381  0.2230 -0.0096
34964POPC   C1B65556   5.129  26.552   6.000 -0.2170  0.0454 -0.2770
34964POPC   C2B65557   5.165  26.460   6.454  0.1806 -0.3456 -0.0887
34964POPC   C3B65558   5.345  26.436   6.912 -0.0191 -0.0510 -0.0851
34964POPC   C4B65559   5.586  26.089   7.096  0.0714 -0.1857  0.2831
34965POPC   NC365560  11.172  22.848   8.968  0.0993 -0.2868  0.1626
34965POPC   PO465561  11.162  22.467   8.884  0.0967 -0.1706 -0.0679
34965POPC   GL165562  11.342  22.121   9.052  0.3610 -0.1048  0.0403
34965POPC   GL265563  11.451  22.243   9.289 -0.1339 -0.0367  0.3792
34965POPC   C1A65564  11.815  22.005   9.058  0.1358 -0.2251 -0.0325
34965POPC   D2A65565  12.298  22.006   9.035  0.0376  0.2209 -0.0264
34965POPC   C3A65566  12.474  21.745   8.689 -0.1175  0.0978  0.1858
34965POPC   C4A65567  12.738  21.547   8.334 -0.4284  0.2486  0.1240
34965POPC   C1B65568  11.855  22.489   9.261 -0.0651  0.1473 -0.0037
34965POPC   C2B65569  12.268  22.664   9.071  0.0587  0.0208 -0.2804
34965POPC   C3B65570  12.640  22.808   8.883 -0.2467  0.1157  0.1453
34965POPC   C4B65571  13.077  22.735   9.000  0.0773  0.1743  0.0186
34966POPC   NC365572   2.846  29.868   3.797  0.2729  0.0500  0.4178
34966POPC   PO465573   2.695  30.127   4.027  0.2259  0.3298 -0.1079
34966POPC   GL165574   2.847  30.302   4.405  0.0493  0.2326 -0.0301
34966POPC   GL265575   2.723  30.517   4.489 -0.0267  0.1280  0.1400
34966POPC   C1A65576   2.905  30.181   4.858 -0.1529  0.0955 -0.0146
34966POPC   D2A65577   2.714  30.159   5.288  0.1011  0.2495 -0.1100
34966POPC   C3A65578   2.520  30.530   5.482 -0.0123  0.0682  0.4382
34966POPC   C4A65579   2.593  30.897   5.750 -0.1144  0.1411  0.2266
34966POPC   C1B65580   2.862  30.697   4.953 -0.1460 -0.2447 -0.1186
34966POPC   C2B65581   2.576  30.999   5.210  0.2968 -0.0087  0.3474
34966POPC   C3B65582   2.166  31.161   5.088 -0.0531 -0.0277  0.2065
34966POPC   C4B65583   1.712  31.115   5.063 -0.0148  0.0615  0.1348
34967POPC   NC365584   9.464  23.250  12.024  0.0009  0.2531  0.2302
34967POPC   PO465585   9.266  22.959  12.143  0.1204  0.3125  0.1362
34967POPC   GL165586   9.020  23.288  12.072 -0.4709 -0.0467  0.0637
34967POPC   GL265587   8.749  23.181  12.197  0.0154 -0.0632 -0.4117
34967POPC   C1A65588   8.699  23.651  12.037  0.1878  0.1164  0.1737
34967POPC   D2A65589   8.390  23.892  12.234 -0.1510  0.0956 -0.1649
34967POPC   C3A65590   7.996  23.807  12.068  0.2882 -0.0782 -0.3647
34967POPC   C4A65591   7.903  24.095  11.733 -0.1308 -0.2756  0.2308
34967POPC   C1B65592   8.398  23.330  12.430 -0.1439  0.1664 -0.2904
34967POPC   C2B65593   8.010  23.621  12.498 -0.0469 -0.1665  0.0983
34967POPC   C3B65594   7.600  23.742  12.562  0.2053  0.1729  0.0846
34967POPC   C4B65595   7.283  23.946  12.790  0.1638  0.1182 -0.0566
34968POPC   NC365596  10.123  19.387   6.513 -0.1161 -0.0105  0.2195
34968POPC   PO465597  10.169  19.177   6.211  0.2934 -0.0338  0.1800
34968POPC   GL165598  10.364  18.969   6.519 -0.0099 -0.4720 -0.0459
34968POPC   GL265599  10.292  18.977   6.831  0.1643 -0.0589  0.0606
34968POPC   C1A65600  10.810  18.853   6.657  0.0159  0.1348 -0.1451
34968POPC   D2A65601  11.090  18.621   6.911  0.2742  0.3160  0.0533
34968POPC   C3A65602  11.000  18.362   7.260 -0.0215 -0.0017  0.2793
34968POPC   C4A65603  10.788  18.043   7.528  0.1208  0.1580 -0.0251
34968POPC   C1B65604  10.261  19.011   7.340  0.0034 -0.1201 -0.0298
34968POPC   C2B65605  10.655  18.895   7.587  0.0699  0.1493  0.1352
34968POPC   C3B65606  10.712  18.490   7.774 -0.2114 -0.2552  0.0026
34968POPC   C4B65607  10.445  18.159   7.895 -0.0215 -0.0581  0.2293
34969POPC   NC365608   4.636  27.143   4.820  0.0477 -0.0988  0.1616
34969POPC   PO465609   4.771  27.423   4.594  0.1867 -0.1603  0.0339
34969POPC   GL165610   4.812  27.568   4.971 -0.1577 -0.0587  0.3913
34969POPC   GL265611   4.533  27.597   5.053  0.2996  0.1179  0.3837
34969POPC   C1A65612   4.824  27.838   5.313  0.0040 -0.1261  0.0420
34969POPC   D2A65613   5.074  28.082   5.662 -0.0251 -0.1508 -0.1300
34969POPC   C3A65614   4.926  28.035   6.072  0.2392 -0.2540  0.0730
34969POPC   C4A65615   5.062  27.962   6.508 -0.1819  0.1088  0.0837
34969POPC   C1B65616   4.043  27.660   5.082  0.2318 -0.0576  0.3288
34969POPC   C2B65617   3.757  27.548   5.396  0.0398 -0.0424  0.3571
34969POPC   C3B65618   3.573  27.788   5.744 -0.2745  0.3831  0.3742
34969POPC   C4B65619   3.524  28.129   6.080 -0.0559 -0.0933 -0.1288
34970POPC   NC365620   9.275  22.742  11.416  0.0375  0.0782 -0.2254
34970POPC   PO465621   9.080  22.522  11.695  0.1671 -0.0323 -0.0066
34970POPC   GL165622   8.903  22.785  11.936 -0.0943 -0.0368 -0.1206
34970POPC   GL265623   8.908  22.994  11.753 -0.0633  0.0270 -0.0628
34970POPC   C1A65624   8.507  22.747  12.243 -0.1808 -0.0592  0.1369
34970POPC   D2A65625   8.060  22.851  12.162 -0.0311 -0.0691  0.1168
34970POPC   C3A65626   7.733  22.613  12.179 -0.0919 -0.2441  0.2793
34970POPC   C4A65627   7.802  22.154  12.099  0.2005  0.0040 -0.1766
34970POPC   C1B65628   8.385  22.927  11.767  0.2532 -0.2900 -0.1400
34970POPC   C2B65629   8.159  23.322  11.879 -0.0442  0.0507 -0.2890
34970POPC   C3B65630   7.756  23.595  11.723 -0.1046 -0.4768 -0.2000
34970POPC   C4B65631   7.297  23.482  11.687  0.1346 -0.2200 -0.1683
34971POPC   NC365632   9.643  20.213   6.970  0.0808 -0.2543 -0.0039
34971POPC   PO465633   9.762  20.027   7.285 -0.2105  0.2949 -0.1557
34971POPC   GL165634   9.730  19.950   7.628 -0.0862 -0.0902 -0.3878
34971POPC   GL265635   9.486  20.109   7.741 -0.0814  0.3976  0.1319
34971POPC   C1A65636  10.008  19.839   7.988 -0.0987 -0.2903 -0.2852
34971POPC   D2A65637  10.112  19.627   8.424  0.0346 -0.1945 -0.2806
34971POPC   C3A65638  10.253  19.215   8.548 -0.0893 -0.2717 -0.1469
34971POPC   C4A65639  10.302  18.755   8.463 -0.2946 -0.3763 -0.0961
34971POPC   C1B65640   9.508  19.915   8.211 -0.2809 -0.1695  0.0967
34971POPC   C2B65641   9.208  19.659   8.448 -0.1207  0.2450 -0.0703
34971POPC   C3B65642   9.277  19.538   8.896  0.1216 -0.1660 -0.3265
34971POPC   C4B65643   9.221  19.477   9.320  0.2064 -0.1291  0.0612
34972POPC   NC365644  15.961  25.764   4.695 -0.1572  0.3635 -0.2659
34972POPC   PO465645  15.922  26.001   5.007 -0.0429 -0.0593 -0.3774
34972POPC   GL165646  15.895  26.112   5.460  0.0489  0.2420  0.0472
34972POPC   GL265647  15.980  26.393   5.558 -0.1042  0.0261 -0.4893
34972POPC   C1A65648  15.982  25.960   5.872 -0.2507  0.0053 -0.1446
34972POPC   D2A65649  16.368  25.975   6.116 -0.0876  0.0623  0.1041
34972POPC   C3A65650  16.535  25.995   6.519  0.2077  0.0664  0.0668
34972POPC   C4A65651  16.851  26.031   6.830  0.1275 -0.3398  0.3493
34972POPC   C1B65652  16.131  26.405   6.031  0.1287 -0.0552  0.2691
34972POPC   C2B65653  16.297  26.807   6.191  0.0538  0.3189 -0.0561
34972POPC   C3B65654  16.377  27.201   6.443  0.3091  0.2640  0.1375
34972POPC   C4B65655  16.389  27.617   6.690  0.2905 -0.0527  0.2787
34973POPC   NC365656   3.325  21.945   5.492 -0.0698 -0.1882 -0.3633
34973POPC   PO465657   3.724  21.919   5.342 -0.1222  0.1203  0.1138
34973POPC   GL165658   3.687  21.997   5.749  0.1072  0.0805 -0.1393
34973POPC   GL265659   3.702  22.290   5.725  0.0332  0.1669  0.2615
34973POPC   C1A65660   3.310  21.854   6.048 -0.0592 -0.2800  0.0242
34973POPC   D2A65661   2.920  22.003   6.284 -0.2048  0.2212  0.0307
34973POPC   C3A65662   2.696  21.675   6.483 -0.0500 -0.2965 -0.2948
34973POPC   C4A65663   2.668  21.443   6.862  0.1276 -0.2241  0.0567
34973POPC   C1B65664   3.532  22.452   6.122 -0.2529  0.0040 -0.2115
34973POPC   C2B65665   3.331  22.241   6.482  0.1955  0.1986  0.2594
34973POPC   C3B65666   3.118  21.891   6.714  0.0797 -0.2190  0.1009
34973POPC   C4B65667   3.136  21.461   6.671 -0.1049  0.0550 -0.0517
34974POPC   NC365668  11.280  23.028  10.802 -0.4342 -0.1569  0.0072
34974POPC   PO465669  10.891  23.014  10.797 -0.2092  0.0546 -0.0007
34974POPC   GL165670  10.954  23.325  10.989 -0.1109  0.0401  0.1951
34974POPC   GL265671  10.745  23.573  10.805  0.1122  0.4245 -0.0161
34974POPC   C1A65672  11.287  23.388  11.290 -0.0457  0.0502  0.2394
34974POPC   D2A65673  11.730  23.399  11.214 -0.0658 -0.2067 -0.0720
34974POPC   C3A65674  12.028  23.663  11.448  0.0825  0.0986  0.0303
34974POPC   C4A65675  12.074  23.573  11.920 -0.0704 -0.2266  0.3706
34974POPC   C1B65676  11.182  23.701  10.878  0.1065 -0.0841  0.0733
34974POPC   C2B65677  11.456  23.827  11.281  0.0047 -0.3625 -0.0474
34974POPC   C3B65678  11.716  24.104  11.581 -0.0813  0.4475 -0.0169
34974POPC   C4B65679  11.871  24.052  11.973 -0.4494  0.0001  0.0343
34975POPC   NC365680   6.381  30.180   4.480  0.2169 -0.0255 -0.2119
34975POPC   PO465681   6.634  30.480   4.569  0.1918 -0.0827  0.0181
34975POPC   GL165682   6.509  30.454   4.921  0.0967  0.0409  0.0718
34975POPC   GL265683   6.244  30.317   4.934 -0.1123  0.2798  0.1649
34975POPC   C1A65684   6.624  30.612   5.331  0.0065 -0.2298 -0.0820
34975POPC   D2A65685   6.521  30.755   5.771 -0.0207  0.1423 -0.0931
34975POPC   C3A65686   6.765  30.594   6.118  0.1376 -0.1159  0.0304
34975POPC   C4A65687   6.826  30.640   6.562 -0.2585 -0.1987 -0.1187
34975POPC   C1B65688   6.146  30.480   5.326  0.0645  0.2987  0.0099
34975POPC   C2B65689   6.092  30.191   5.692 -0.3023 -0.1411 -0.0965
34975POPC   C3B65690   5.974  30.034   6.081  0.4087  0.0100 -0.1233
34975POPC   C4B65691   5.887  29.810   6.460 -0.2903  0.3043 -0.2161
34976POPC   NC365692   4.150   0.508   4.292  0.1282  0.2680  0.0200
34976POPC   PO465693   3.936   0.461   4.513 -0.0610  0.1086 -0.0109
34976POPC   GL165694   3.706   0.585   4.874  0.1202 -0.0231  0.1701
34976POPC   GL265695   3.893   0.661   4.960 -0.0450  0.1941 -0.2232
34976POPC   C1A65696   3.654   0.342   5.278  0.0687  0.1275 -0.1628
34976POPC   D2A65697   3.715   0.237   5.701 -0.1824  0.1570 -0.2718
34976POPC   C3A65698   3.736   0.512   6.090  0.2536 -0.0429 -0.1320
34976POPC   C4A65699   3.532   0.898   6.067 -0.0878 -0.0148 -0.0303
34976POPC   C1B65700   4.019   1.026   5.209 -0.4258  0.1169  0.1911
34976POPC   C2B65701   4.014   1.237   5.668 -0.1459  0.0600 -0.1636
34976POPC   C3B65702   4.048   1.008   6.077 -0.3828  0.1702 -0.1090
34976POPC   C4B65703   4.243   0.615   6.212  0.1915  0.2040  0.0974
34977POPC   NC365704  15.833  24.156   5.092  0.0335 -0.2591  0.1274
34977POPC   PO465705  16.098  24.416   4.902 -0.1770  0.2491  0.0494
34977POPC   GL165706  16.405  24.526   5.226  0.3349 -0.0630  0.6564
34977POPC   GL265707  16.216  24.431   5.387  0.1682 -0.0300 -0.2157
34977POPC   C1A65708  16.760  24.770   5.407 -0.1390 -0.0093  0.1076
34977POPC   D2A65709  16.994  25.160   5.322 -0.1813  0.1087  0.3456
34977POPC   C3A65710  16.837  25.594   5.479  0.3571  0.0054  0.1254
34977POPC   C4A65711  16.750  25.905   5.804  0.0228 -0.1883 -0.1212
34977POPC   C1B65712  16.283  24.793   5.629  0.0660 -0.2536  0.0037
34977POPC   C2B65713  16.207  25.012   6.042  0.2244  0.3180 -0.0042
34977POPC   C3B65714  16.368  25.352   6.358 -0.0335 -0.0764 -0.0539
34977POPC   C4B65715  16.574  25.483   6.744  0.3873  0.0450 -0.2799
34978POPC   NC365716   8.269  29.772   4.383  0.1876 -0.1486 -0.1130
34978POPC   PO465717   8.274  29.721   4.778  0.1583  0.1299 -0.0819
34978POPC   GL165718   8.158  29.768   5.119  0.2518  0.4950  0.1073
34978POPC   GL265719   7.884  29.633   5.174 -0.0844 -0.2495 -0.4034
34978POPC   C1A65720   7.891  30.088   5.301 -0.0831 -0.1384  0.1265
34978POPC   D2A65721   7.482  30.262   5.313 -0.0395 -0.1110 -0.1399
34978POPC   C3A65722   7.442  30.487   5.741  0.0837  0.0646 -0.0883
34978POPC   C4A65723   7.256  30.386   6.159 -0.4115 -0.1038  0.1302
34978POPC   C1B65724   7.940  29.725   5.603 -0.1967  0.1385 -0.2259
34978POPC   C2B65725   7.988  29.737   6.056 -0.1336 -0.1011 -0.2489
34978POPC   C3B65726   8.111  30.000   6.438 -0.1241  0.4228  0.1672
34978POPC   C4B65727   7.965  29.869   6.839 -0.3807  0.0682 -0.1004
34979POPC   NC365728  11.656  20.368   6.908 -0.2775  0.2095  0.2486
34979POPC   PO465729  11.403  20.381   7.186  0.0265 -0.0480 -0.0600
34979POPC   GL165730  11.740  20.171   7.422 -0.1758 -0.0140  0.6121
34979POPC   GL265731  11.884  20.411   7.441  0.0161  0.2958  0.3026
34979POPC   C1A65732  11.896  19.771   7.465 -0.3526 -0.2649  0.0864
34979POPC   D2A65733  12.024  19.476   7.782 -0.0433 -0.4357 -0.2638
34979POPC   C3A65734  12.473  19.348   7.852  0.0648  0.0026  0.4101
34979POPC   C4A65735  12.956  19.329   7.992  0.0318  0.1281 -0.0612
34979POPC   C1B65736  11.938  20.125   7.840 -0.1576  0.1124  0.3895
34979POPC   C2B65737  12.118  19.844   8.128  0.1799  0.0140 -0.0906
34979POPC   C3B65738  12.178  19.535   8.478 -0.0926  0.1303 -0.0940
34979POPC   C4B65739  12.242  19.243   8.778  0.4082 -0.0199  0.0571
34980POPC   NC365740   1.676  27.565   3.936  0.1572 -0.2230  0.2258
34980POPC   PO465741   1.865  27.848   4.085  0.1998  0.0033 -0.1522
34980POPC   GL165742   2.174  28.099   4.373 -0.1079  0.1756 -0.1127
34980POPC   GL265743   1.912  28.260   4.430 -0.0013 -0.1912  0.1757
34980POPC   C1A65744   2.320  28.329   4.778  0.0118 -0.1548 -0.0343
34980POPC   D2A65745   2.374  28.542   5.214 -0.0017 -0.1416 -0.1486
34980POPC   C3A65746   2.788  28.805   5.242 -0.0852 -0.1841  0.0271
34980POPC   C4A65747   3.210  28.602   5.199 -0.1707 -0.0206 -0.0557
34980POPC   C1B65748   1.554  28.487   4.683 -0.3932  0.0460 -0.2797
34980POPC   C2B65749   1.458  28.927   4.923 -0.1289 -0.4060  0.0335
34980POPC   C3B65750   1.285  29.108   5.291 -0.0010  0.0647 -0.1840
34980POPC   C4B65751   1.282  29.274   5.683  0.0640  0.0866 -0.2076
34981POPC   NC365752   0.190  20.443   4.313  0.0930 -0.2206  0.0234
34981POPC   PO465753   0.169  20.300   4.660 -0.0521 -0.0579 -0.3071
34981POPC   GL165754   0.337  20.337   5.046  0.0279 -0.0055 -0.1749
34981POPC   GL265755   0.455  20.585   5.133  0.3657  0.1353  0.1170
34981POPC   C1A65756   0.293  19.967   5.278  0.2332  0.0405 -0.0306
34981POPC   D2A65757   0.078  19.867   5.656 -0.1095  0.2389  0.0178
34981POPC   C3A65758   0.302  20.147   5.899  0.1099 -0.0169 -0.0740
34981POPC   C4A65759   0.191  20.558   6.010  0.0494  0.1769  0.0020
34981POPC   C1B65760   0.509  20.317   5.507 -0.1986 -0.5476  0.0798
34981POPC   C2B65761   0.767  20.185   5.871  0.2556 -0.0137  0.1085
34981POPC   C3B65762   0.660  19.932   6.252 -0.0736 -0.0630 -0.1076
34981POPC   C4B65763   0.566  19.663   6.603 -0.2594 -0.1266  0.1993
34982POPC   NC365764   3.462  17.688   5.068 -0.2561  0.0515 -0.1128
34982POPC   PO465765   3.169  17.645   4.816 -0.0551 -0.1987 -0.0229
34982POPC   GL165766   2.983  17.652   5.189  0.2547 -0.2753 -0.3604
34982POPC   GL265767   3.106  17.861   5.287 -0.2639  0.2280 -0.1672
34982POPC   C1A65768   2.679  17.825   5.444  0.1189 -0.1258 -0.0589
34982POPC   D2A65769   2.582  17.956   5.859  0.2440  0.0593  0.0061
34982POPC   C3A65770   2.637  17.688   6.224 -0.1834  0.1073  0.1627
34982POPC   C4A65771   2.409  17.319   6.387 -0.1044 -0.2030  0.1889
34982POPC   C1B65772   3.046  17.699   5.747  0.0818 -0.0627 -0.2631
34982POPC   C2B65773   3.141  17.660   6.251 -0.1338 -0.2061  0.1635
34982POPC   C3B65774   3.343  17.581   6.679 -0.0829 -0.2492 -0.0037
34982POPC   C4B65775   3.359  17.236   6.918 -0.1380  0.0050  0.0133
34983POPC   NC365776   1.930  18.850   4.992 -0.2153  0.0844 -0.2537
34983POPC   PO465777   1.639  18.591   4.867 -0.0779  0.0577  0.1980
34983POPC   GL165778   1.593  18.576   5.258  0.0482 -0.0146 -0.0899
34983POPC   GL265779   1.593  18.853   5.428  0.0137 -0.1328 -0.2590
34983POPC   C1A65780   1.750  18.215   5.491 -0.3010  0.2065 -0.1758
34983POPC   D2A65781   1.944  18.037   5.851  0.1000  0.2431 -0.1240
34983POPC   C3A65782   2.010  18.263   6.287 -0.2771 -0.0119  0.2128
34983POPC   C4A65783   1.899  18.709   6.459 -0.0514  0.0679 -0.0493
34983POPC   C1B65784   1.259  18.844   5.757 -0.0506 -0.3802 -0.0036
34983POPC   C2B65785   0.990  18.636   5.971  0.1324 -0.0180 -0.2041
34983POPC   C3B65786   0.986  18.440   6.351 -0.1942 -0.1856 -0.2405
34983POPC   C4B65787   1.095  18.128   6.671 -0.1189  0.3132  0.0593
34984POPC   NC365788  13.730  29.800   4.402  0.0851 -0.1897 -0.0442
34984POPC   PO465789  14.088  29.792   4.185 -0.2568  0.0796 -0.0133
34984POPC   GL165790  14.091  29.605   4.622  0.1905  0.1648  0.1440
34984POPC   GL265791  14.284  29.833   4.680  0.0739 -0.1948 -0.0267
34984POPC   C1A65792  14.086  29.523   5.091  0.1080 -0.1067 -0.2159
34984POPC   D2A65793  14.382  29.847   5.167 -0.0662 -0.1285  0.2154
34984POPC   C3A65794  14.709  29.771   5.522  0.2061 -0.0239 -0.1067
34984POPC   C4A65795  14.869  29.496   5.853 -0.0771  0.0062 -0.0113
34984POPC   C1B65796  14.166  30.289   4.848  0.1915 -0.1001  0.0304
34984POPC   C2B65797  14.338  30.636   5.090 -0.0387  0.1400 -0.0444
34984POPC   C3B65798  14.481  30.714   5.516 -0.1271  0.2165 -0.2782
34984POPC   C4B65799  14.555  30.711   5.974  0.1860  0.0032  0.1417
34985POPC   NC365800   6.880  19.055   6.112  0.0828 -0.1800  0.0128
34985POPC   PO465801   6.590  18.880   5.928  0.1155  0.1724  0.2193
34985POPC   GL165802   6.343  18.773   6.224  0.3308 -0.1856  0.1366
34985POPC   GL265803   6.478  18.411   6.246  0.0799 -0.1278  0.0887
34985POPC   C1A65804   6.025  18.930   6.505 -0.2119  0.0756  0.1613
34985POPC   D2A65805   5.778  18.759   6.820  0.2592 -0.1556  0.1003
34985POPC   C3A65806   5.817  18.767   7.239  0.0163 -0.2027 -0.1246
34985POPC   C4A65807   5.843  18.594   7.674 -0.1106  0.1327  0.0914
34985POPC   C1B65808   6.363  18.320   6.661  0.2666 -0.0369 -0.1223
34985POPC   C2B65809   6.031  18.288   6.956 -0.2395  0.0165  0.2112
34985POPC   C3B65810   5.692  18.253   7.252  0.0942  0.0365  0.0288
34985POPC   C4B65811   5.423  18.092   7.655  0.2041  0.2636  0.3893
34986POPC   NC365812  10.319  30.640   4.594  0.1938 -0.0844  0.0809
34986POPC   PO465813  10.526  30.494   4.879  0.0538 -0.1063  0.1998
34986POPC   GL165814  10.643  30.434   5.254 -0.1813 -0.0757 -0.0123
34986POPC   GL265815  10.907  30.322   5.353  0.0105 -0.1786 -0.0417
34986POPC   C1A65816  10.528  30.499   5.706 -0.0687  0.1607  0.0723
34986POPC   D2A65817  10.608  30.386   6.137 -0.2182  0.2611  0.1710
34986POPC   C3A65818  10.982  30.471   6.333  0.1260 -0.3190 -0.0682
34986POPC   C4A65819  11.364  30.403   6.540  0.4427  0.0801  0.3065
34986POPC   C1B65820  11.029  30.479   5.795 -0.0651  0.4598  0.1402
34986POPC   C2B65821  11.421  30.589   5.988 -0.0471  0.2048  0.1177
34986POPC   C3B65822  11.776  30.833   6.105 -0.2054  0.0062 -0.1135
34986POPC   C4B65823  12.167  30.900   6.342  0.0889  0.1648 -0.2295
34987POPC   NC365824   2.654  26.480   4.661 -0.0877  0.1311  0.1160
34987POPC   PO465825   2.938  26.304   4.413  0.0126  0.2841 -0.1768
34987POPC   GL165826   3.082  26.391   4.764 -0.1387  0.3409  0.0489
34987POPC   GL265827   3.415  26.304   4.731  0.3643 -0.2455 -0.0582
34987POPC   C1A65828   2.814  26.432   5.139  0.1257 -0.0192 -0.0230
34987POPC   D2A65829   2.459  26.205   5.301  0.0851 -0.2855 -0.0656
34987POPC   C3A65830   2.491  26.359   5.741  0.1717  0.3654  0.1239
34987POPC   C4A65831   2.568  26.416   6.207 -0.0877 -0.0802 -0.0277
34987POPC   C1B65832   3.268  26.131   5.181 -0.2033  0.2285  0.0227
34987POPC   C2B65833   3.297  26.072   5.653 -0.2813 -0.3979 -0.2643
34987POPC   C3B65834   3.428  26.193   6.150 -0.0687  0.0312  0.0644
34987POPC   C4B65835   3.626  26.067   6.508 -0.1181  0.1509  0.2243
34988POPC   NC365836   9.336  22.396  12.097  0.3610 -0.0422  0.3272
34988POPC   PO465837   8.980  22.245  12.231 -0.1819 -0.0709  0.1943
34988POPC   GL165838   8.660  22.398  11.936 -0.1805  0.2819  0.2359
34988POPC   GL265839   8.484  22.127  12.082 -0.1222  0.1745  0.2767
34988POPC   C1A65840   8.196  22.468  11.865  0.1656 -0.2585  0.1211
34988POPC   D2A65841   7.833  22.673  11.658  0.1683  0.1889  0.2905
34988POPC   C3A65842   7.751  23.077  11.845  0.2758 -0.1546  0.0106
34988POPC   C4A65843   7.609  23.405  12.209 -0.1915  0.1079 -0.0737
34988POPC   C1B65844   8.507  21.664  11.918 -0.0026 -0.0695 -0.0175
34988POPC   C2B65845   8.329  21.246  11.726 -0.2699 -0.0687 -0.0936
34988POPC   C3B65846   7.896  21.158  11.665  0.3441  0.2103 -0.0433
34988POPC   C4B65847   7.420  21.082  11.681 -0.0802 -0.0805 -0.3617
34989POPC   NC365848  13.204  23.970   6.064 -0.2168 -0.0278  0.5249
34989POPC   PO465849  12.934  24.263   6.087 -0.0995  0.0930  0.1023
34989POPC   GL165850  13.163  24.479   6.364  0.1676 -0.1057  0.2685
34989POPC   GL265851  13.378  24.255   6.472 -0.0554 -0.2164 -0.1086
34989POPC   C1A65852  13.429  24.834   6.247 -0.1271 -0.2372 -0.0893
34989POPC   D2A65853  13.875  24.882   6.379 -0.0185 -0.2139  0.1218
34989POPC   C3A65854  13.929  25.296   6.608  0.1688  0.1642  0.0820
34989POPC   C4A65855  14.059  25.663   6.905  0.0452  0.0440  0.0558
34989POPC   C1B65856  13.465  24.657   6.742 -0.1232  0.1589 -0.0780
34989POPC   C2B65857  13.555  24.900   7.108 -0.1415  0.0637 -0.1330
34989POPC   C3B65858  13.343  24.810   7.514  0.1634  0.0338  0.0484
34989POPC   C4B65859  13.366  24.521   7.854 -0.0781  0.0738  0.0087
34990POPC   NC365860   7.067  30.389   4.361  0.0578 -0.1492  0.2034
34990POPC   PO465861   7.326  30.711   4.276  0.1424 -0.1423  0.2410
34990POPC   GL165862   7.278  30.786   4.712  0.1873  0.1938 -0.1014
34990POPC   GL265863   7.066  30.601   4.846 -0.2306  0.0118 -0.0151
34990POPC   C1A65864   7.520  31.189   4.794  0.0584  0.1872  0.0179
34990POPC   D2A65865   7.796  31.507   5.032 -0.2741  0.0257  0.0559
34990POPC   C3A65866   8.115  31.158   5.151  0.0951 -0.0247 -0.0897
34990POPC   C4A65867   8.450  30.873   5.105  0.0012  0.0414 -0.1143
34990POPC   C1B65868   7.136  30.820   5.268  0.1784  0.0469  0.0834
34990POPC   C2B65869   7.006  30.817   5.747  0.0551  0.0202 -0.0150
34990POPC   C3B65870   7.183  31.001   6.179  0.3311 -0.1693 -0.1834
34990POPC   C4B65871   6.872  31.192   6.510 -0.0790  0.2459  0.3905
34991POPC   NC365872   5.450  22.161   6.181  0.1822 -0.1925 -0.0623
34991POPC   PO465873   5.382  22.383   6.482 -0.0146 -0.0174  0.0741
34991POPC   GL165874   5.270  22.422   6.882  0.0375  0.1743  0.0375
34991POPC   GL265875   5.550  22.370   6.979  0.1677 -0.2397 -0.1944
34991POPC   C1A65876   5.267  22.494   7.344  0.2654 -0.1500  0.5861
34991POPC   D2A65877   5.341  22.581   7.751  0.2765  0.2058 -0.2684
34991POPC   C3A65878   5.065  22.587   8.130  0.1361  0.2232  0.2870
34991POPC   C4A65879   4.679  22.768   8.221  0.1783 -0.0220 -0.1231
34991POPC   C1B65880   5.262  22.016   7.173  0.3368 -0.1706  0.0943
34991POPC   C2B65881   4.796  21.880   7.323 -0.1195  0.3489  0.2765
34991POPC   C3B65882   4.392  21.766   7.500  0.1460  0.1244  0.2389
34991POPC   C4B65883   4.106  21.592   7.800 -0.0497  0.1815  0.3451
34992POPC   NC365884  11.859  19.230   6.399 -0.1035  0.1744  0.1965
34992POPC   PO465885  11.670  19.055   6.121 -0.2282  0.0738 -0.1683
34992POPC   GL165886  11.647  18.866   6.449 -0.1370  0.1974  0.1460
34992POPC   GL265887  11.402  18.781   6.542  0.1185  0.1633  0.2562
34992POPC   C1A65888  11.929  18.898   6.806 -0.1418  0.2937 -0.0977
34992POPC   D2A65889  12.100  18.573   7.080  0.1282 -0.2083 -0.0014
34992POPC   C3A65890  12.079  18.222   7.344 -0.2365  0.1316  0.2190
34992POPC   C4A65891  12.353  17.921   7.485  0.2707 -0.2155 -0.0244
34992POPC   C1B65892  11.641  18.511   6.864 -0.0093  0.0408 -0.0992
34992POPC   C2B65893  11.564  18.285   7.232 -0.0463  0.0773  0.1659
34992POPC   C3B65894  11.353  17.955   7.440  0.3578  0.0959  0.0992
34992POPC   C4B65895  11.214  17.538   7.563 -0.1114  0.2591  0.1292
34993POPC   NC365896   4.845  29.309   4.243 -0.3773  0.1979 -0.1786
34993POPC   PO465897   4.694  29.639   4.292  0.0243 -0.0433 -0.0139
34993POPC   GL165898   4.557  29.732   4.743 -0.0800 -0.0646  0.0096
34993POPC   GL265899   4.839  29.831   4.735 -0.1882 -0.2707 -0.1341
34993POPC   C1A65900   4.574  29.800   5.190 -0.3344  0.0633 -0.0063
34993POPC   D2A65901   4.781  30.062   5.476  0.1187 -0.1766 -0.0777
34993POPC   C3A65902   4.796  29.747   5.791 -0.1180 -0.1434 -0.0050
34993POPC   C4A65903   4.432  29.466   5.916 -0.3181  0.1365  0.0814
34993POPC   C1B65904   5.057  29.718   5.134  0.3181 -0.4484 -0.1384
34993POPC   C2B65905   5.222  29.910   5.554  0.0397 -0.0875 -0.0435
34993POPC   C3B65906   5.221  30.037   6.024 -0.2515 -0.0990 -0.2205
34993POPC   C4B65907   5.443  30.013   6.507 -0.0349 -0.2779  0.0536
34994POPC   NC365908   8.126  19.773   6.894 -0.0308 -0.0253  0.2649
34994POPC   PO465909   8.129  20.158   6.993 -0.2709  0.0328 -0.3513
34994POPC   GL165910   7.953  20.122   7.291  0.2324  0.2611 -0.2025
34994POPC   GL265911   8.136  20.066   7.509  0.2116  0.0173  0.1789
34994POPC   C1A65912   7.737  19.744   7.320  0.2409  0.1367 -0.3970
34994POPC   D2A65913   7.629  19.381   7.516 -0.1479  0.0352  0.0476
34994POPC   C3A65914   7.240  19.198   7.837  0.1673  0.2755  0.3652
34994POPC   C4A65915   7.111  19.022   8.232 -0.0172 -0.0906  0.1393
34994POPC   C1B65916   7.921  19.894   7.841  0.0490  0.0413  0.1705
34994POPC   C2B65917   7.743  19.470   8.018 -0.2045 -0.1360  0.0061
34994POPC   C3B65918   7.611  19.127   8.356 -0.0249  0.0735 -0.0624
34994POPC   C4B65919   7.457  18.708   8.496 -0.2797  0.3433  0.1342
34995POPC   NC365920  16.314  29.758   3.810 -0.0127 -0.0413 -0.3155
34995POPC   PO465921  16.519  30.100   3.848  0.2493  0.0719 -0.0026
34995POPC   GL165922  16.337  30.016   4.236 -0.2961 -0.3623  0.0195
34995POPC   GL265923  16.409  30.283   4.375  0.1144  0.2220  0.3375
34995POPC   C1A65924  16.386  29.830   4.637 -0.0389 -0.1991  0.2476
34995POPC   D2A65925  16.150  29.827   5.051  0.2295 -0.0835 -0.0387
34995POPC   C3A65926  16.242  30.160   5.283 -0.0668  0.0060  0.0549
34995POPC   C4A65927  16.610  30.407   5.198 -0.0174 -0.3139  0.3446
34995POPC   C1B65928  16.705  30.224   4.776  0.0751  0.3566  0.0226
34995POPC   C2B65929  17.043  30.094   5.059 -0.0773  0.1264 -0.4384
34995POPC   C3B65930  17.110  29.880   5.482 -0.1038  0.3371 -0.2359
34995POPC   C4B65931  17.297  29.622   5.850  0.0050  0.1628  0.0076
34996POPC   NC365932   7.475  22.434   8.200 -0.0122 -0.1590  0.2428
34996POPC   PO465933   7.672  22.333   8.515 -0.0018  0.1312 -0.0609
34996POPC   GL165934   7.438  22.284   8.816  0.0410 -0.0457  0.1240
34996POPC   GL265935   7.594  22.087   9.003  0.0431 -0.0602  0.0854
34996POPC   C1A65936   7.224  22.431   9.180 -0.1855 -0.1733  0.2242
34996POPC   D2A65937   7.206  22.767   9.570 -0.3640  0.3081  0.0782
34996POPC   C3A65938   6.947  23.005   9.321  0.0365 -0.2108  0.2220
34996POPC   C4A65939   6.979  23.351   9.041  0.1841 -0.4777 -0.3452
34996POPC   C1B65940   7.279  21.919   9.304  0.0860 -0.3339 -0.0612
34996POPC   C2B65941   6.919  21.800   9.582 -0.0508 -0.0413  0.0028
34996POPC   C3B65942   6.504  21.938   9.555  0.1964 -0.0163  0.0324
34996POPC   C4B65943   6.211  22.261   9.328  0.0849 -0.1060  0.1563
34997POPC   NC365944  13.079  22.481   6.759  0.2565  0.3615  0.2115
34997POPC   PO465945  13.288  22.626   6.432 -0.2133 -0.2221  0.0557
34997POPC   GL165946  13.453  22.818   6.679 -0.0952  0.1613 -0.2188
34997POPC   GL265947  13.251  22.987   6.860  0.0876  0.1551 -0.0608
34997POPC   C1A65948  13.757  23.172   6.725 -0.2608  0.0167 -0.0564
34997POPC   D2A65949  14.150  23.077   6.517  0.0407 -0.0384  0.3388
34997POPC   C3A65950  14.276  23.498   6.665 -0.1372 -0.1719  0.1401
34997POPC   C4A65951  14.326  23.991   6.831  0.1831  0.0179 -0.0342
34997POPC   C1B65952  13.519  23.098   7.188  0.1642  0.3581 -0.1437
34997POPC   C2B65953  13.854  23.342   7.190 -0.2986  0.0411 -0.3070
34997POPC   C3B65954  14.276  23.487   7.170 -0.0200 -0.0620  0.3161
34997POPC   C4B65955  14.685  23.293   7.258  0.0742 -0.0804 -0.3210
34998POPC   NC365956   4.886  21.549   5.537 -0.2747  0.0108  0.1565
34998POPC   PO465957   4.719  21.845   5.683  0.3025  0.0901 -0.2741
34998POPC   GL165958   4.360  21.847   5.894 -0.0579 -0.0195  0.0136
34998POPC   GL265959   4.262  21.550   6.075 -0.1669 -0.0667  0.2360
34998POPC   C1A65960   4.324  22.001   6.347  0.0020  0.1839  0.1818
34998POPC   D2A65961   4.180  22.201   6.746  0.2002 -0.0907 -0.1003
34998POPC   C3A65962   3.958  22.569   6.981 -0.2182  0.1717  0.4950
34998POPC   C4A65963   4.103  22.902   7.271 -0.1415  0.2569 -0.0385
34998POPC   C1B65964   4.012  21.621   6.503 -0.0975 -0.0862  0.1703
34998POPC   C2B65965   4.041  21.733   6.948  0.1541 -0.1018 -0.0557
34998POPC   C3B65966   3.783  21.928   7.307  0.1961  0.0756  0.1331
34998POPC   C4B65967   3.625  22.347   7.494 -0.1312  0.1678  0.0920
34999POPC   NC365968   2.393  21.742   5.248 -0.0305  0.1281  0.0273
34999POPC   PO465969   2.706  21.570   5.094  0.0697  0.0328  0.2181
34999POPC   GL165970   2.792  21.217   5.341 -0.1386 -0.1929  0.1724
34999POPC   GL265971   2.604  21.393   5.546 -0.2762 -0.1887 -0.0245
34999POPC   C1A65972   3.100  21.061   5.680 -0.3788 -0.1994  0.0197
34999POPC   D2A65973   3.393  20.873   6.003 -0.0722 -0.3533  0.5387
34999POPC   C3A65974   3.293  20.897   6.376 -0.1342  0.0978 -0.4352
34999POPC   C4A65975   2.977  21.010   6.708  0.2384 -0.0092 -0.0817
34999POPC   C1B65976   2.650  21.074   5.875  0.1601 -0.0918 -0.0888
34999POPC   C2B65977   2.848  20.763   6.073 -0.3587  0.0212 -0.2801
34999POPC   C3B65978   2.834  20.553   6.523 -0.0474 -0.3054  0.0336
34999POPC   C4B65979   2.684  20.191   6.819  0.0520 -0.1534 -0.0532
35000POPC   NC365980  12.427  21.762   6.790 -0.2082 -0.1479 -0.0502
35000POPC   PO465981  12.146  21.513   6.908 -0.1280  0.0681  0.1168
35000POPC   GL165982  12.409  21.424   7.257  0.2489  0.1907 -0.2161
35000POPC   GL265983  12.561  21.253   7.233 -0.4535  0.1366 -0.0257
35000POPC   C1A65984  12.549  21.715   7.610 -0.0264 -0.1108  0.4078
35000POPC   D2A65985  12.901  21.879   7.850 -0.0498 -0.1001  0.1313
35000POPC   C3A65986  13.159  21.857   8.235  0.0785 -0.2383  0.0163
35000POPC   C4A65987  13.406  21.771   8.582  0.0348  0.2849  0.3010
35000POPC   C1B65988  12.744  20.931   7.549 -0.2276  0.0198 -0.0311
35000POPC   C2B65989  13.017  20.775   7.904 -0.1726  0.4530 -0.0571
35000POPC   C3B65990  12.975  20.435   8.243 -0.1919 -0.0598 -0.0051
35000POPC   C4B65991  12.930  20.024   8.401  0.1112 -0.1016 -0.0053
35001POPC   NC365992   7.275  26.927   5.720  0.2107  0.3015  0.0899
35001POPC   PO465993   7.400  27.185   5.439  0.2306 -0.0830  0.0457
35001POPC   GL165994   7.381  27.547   5.685 -0.2206  0.2532 -0.0616
35001POPC   GL265995   7.529  27.375   5.886  0.1309  0.1462 -0.1452
35001POPC   C1A65996   7.008  27.539   5.942 -0.2766 -0.1525  0.0398
35001POPC   D2A65997   6.552  27.505   5.897 -0.1357 -0.1336 -0.4036
35001POPC   C3A65998   6.107  27.402   6.043 -0.0538 -0.0661  0.2721
35001POPC   C4A65999   5.662  27.335   6.212  0.1739 -0.1158 -0.2119
35001POPC   C1B66000   7.395  27.682   6.190  0.1992  0.3027  0.1125
35001POPC   C2B66001   7.350  27.875   6.578 -0.0127 -0.1307 -0.2058
35001POPC   C3B66002   7.274  28.007   6.993  0.2671  0.3848 -0.0007
35001POPC   C4B66003   7.360  28.114   7.415  0.1224 -0.2416  0.0148
35002POPC   NC366004  13.732  23.302   5.525  0.1821 -0.2794 -0.2268
35002POPC   PO466005  14.018  23.515   5.611 -0.1682  0.1986  0.0414
35002POPC   GL166006  14.093  23.649   5.957  0.0092  0.2216 -0.0218
35002POPC   GL266007  14.375  23.681   5.948  0.1649  0.4249 -0.2969
35002POPC   C1A66008  14.221  23.948   6.309  0.2945  0.2215 -0.2554
35002POPC   D2A66009  14.481  24.283   6.474 -0.1980  0.1107 -0.1086
35002POPC   C3A66010  14.903  24.230   6.634 -0.0411 -0.1404  0.1857
35002POPC   C4A66011  15.135  24.179   7.039  0.0136 -0.2785 -0.1930
35002POPC   C1B66012  14.558  23.370   6.251 -0.1452  0.1671  0.2135
35002POPC   C2B66013  14.664  23.186   6.677 -0.3083 -0.0544  0.0558
35002POPC   C3B66014  14.420  22.960   6.960  0.0032  0.1769 -0.1183
35002POPC   C4B66015  14.527  22.766   7.329  0.4121  0.0807 -0.2988
35003POPC   NC366016   4.769  27.996   4.594 -0.3044 -0.2157 -0.2712
35003POPC   PO466017   4.378  28.003   4.616  0.0722 -0.1161  0.0591
35003POPC   GL166018   4.573  28.089   4.974 -0.2812  0.5057 -0.1123
35003POPC   GL266019   4.594  28.347   5.075  0.2094  0.1267  0.0288
35003POPC   C1A66020   4.377  28.016   5.396  0.3506  0.4719 -0.0643
35003POPC   D2A66021   4.356  28.082   5.830 -0.1250  0.0436  0.1147
35003POPC   C3A66022   4.436  28.404   6.125 -0.1943 -0.0596  0.2224
35003POPC   C4A66023   4.413  28.371   6.559 -0.1923 -0.0485 -0.0539
35003POPC   C1B66024   4.319  28.523   5.363 -0.2377  0.0508  0.0999
35003POPC   C2B66025   4.011  28.753   5.672  0.0149 -0.2833 -0.0150
35003POPC   C3B66026   3.988  29.177   5.704  0.3099  0.2289  0.0716
35003POPC   C4B66027   3.834  29.566   5.789 -0.0809  0.0383  0.2317
35004POPC   NC366028   5.168  17.799   4.741 -0.0274  0.2368 -0.0033
35004POPC   PO466029   5.331  17.852   5.117 -0.0363 -0.1275 -0.1233
35004POPC   GL166030   5.476  17.716   5.488 -0.0567  0.3237 -0.0407
35004POPC   GL266031   5.564  17.988   5.720 -0.3738  0.1139  0.0882
35004POPC   C1A66032   5.631  17.318   5.585  0.1634  0.1280  0.0453
35004POPC   D2A66033   5.935  16.933   5.652 -0.0095  0.1350 -0.2327
35004POPC   C3A66034   6.076  16.749   6.007 -0.1645 -0.1203 -0.0666
35004POPC   C4A66035   6.492  16.691   6.004 -0.0323 -0.2664  0.2021
35004POPC   C1B66036   5.579  17.618   5.990 -0.0060 -0.0604 -0.1654
35004POPC   C2B66037   5.803  17.543   6.387 -0.2913 -0.1714  0.0352
35004POPC   C3B66038   5.740  17.483   6.859  0.3893 -0.1961 -0.0419
35004POPC   C4B66039   5.597  17.163   7.194 -0.2482  0.0299  0.1613
35005POPC   NC366040   2.048  31.044   4.101 -0.1631  0.2086  0.0239
35005POPC   PO466041   1.786  31.262   3.907  0.2571 -0.1570  0.1717
35005POPC   GL166042   1.594  31.141   4.207  0.1496  0.0906  0.0943
35005POPC   GL266043   1.624  30.818   4.171 -0.2081 -0.2002  0.2038
35005POPC   C1A66044   1.899  31.179   4.555  0.2612 -0.2584 -0.1515
35005POPC   D2A66045   2.043  31.524   4.774 -0.0873 -0.0411 -0.0695
35005POPC   C3A66046   1.856  31.581   5.183 -0.1564 -0.0880 -0.1049
35005POPC   C4A66047   1.971  31.239   5.502 -0.0630 -0.0606  0.0972
35005POPC   C1B66048   1.455  30.921   4.643 -0.0954 -0.4413  0.0616
35005POPC   C2B66049   1.414  30.690   5.038  0.2296 -0.3540  0.5460
35005POPC   C3B66050   1.570  30.754   5.443 -0.0423  0.1649 -0.0506
35005POPC   C4B66051   1.950  30.618   5.629  0.0599 -0.0023  0.0360
35006POPC   NC366052   2.216  23.339   5.133  0.1897 -0.2223 -0.1244
35006POPC   PO466053   1.860  23.223   5.225 -0.0900  0.1101 -0.3723
35006POPC   GL166054   1.929  23.079   5.502  0.1292 -0.0253 -0.1194
35006POPC   GL266055   2.225  23.159   5.587  0.2217  0.1182 -0.3669
35006POPC   C1A66056   1.929  22.968   5.978  0.0032  0.2123  0.1726
35006POPC   D2A66057   1.955  22.874   6.473  0.1194  0.2529  0.0374
35006POPC   C3A66058   1.797  22.655   6.872 -0.1736 -0.3631 -0.2663
35006POPC   C4A66059   1.786  22.299   7.204 -0.0623 -0.2878 -0.1252
35006POPC   C1B66060   2.433  22.832   5.873  0.0493  0.0908  0.0991
35006POPC   C2B66061   2.445  22.622   6.275 -0.0416  0.0782  0.2229
35006POPC   C3B66062   2.659  22.357   6.604 -0.3928  0.2646 -0.0358
35006POPC   C4B66063   2.942  22.342   6.994 -0.1378  0.0359 -0.0741
35007POPC   NC366064   4.208  21.136   5.632 -0.0070  0.2571  0.0831
35007POPC   PO466065   4.605  21.167   5.670 -0.0568  0.4642  0.2423
35007POPC   GL166066   4.416  21.095   6.033  0.1014  0.2721 -0.2945
35007POPC   GL266067   4.554  20.950   6.137 -0.1127  0.3434 -0.0210
35007POPC   C1A66068   3.924  21.135   6.158  0.2542 -0.3509  0.2224
35007POPC   D2A66069   3.657  21.250   6.543 -0.1093 -0.1304 -0.2252
35007POPC   C3A66070   3.460  21.096   6.956 -0.1166  0.1027  0.3266
35007POPC   C4A66071   3.316  20.863   7.293 -0.1087 -0.3068 -0.1277
35007POPC   C1B66072   4.342  21.126   6.508  0.0966 -0.2859  0.2358
35007POPC   C2B66073   4.127  21.208   6.905  0.2346  0.1553 -0.2638
35007POPC   C3B66074   3.780  21.279   7.249  0.0959  0.1477  0.3708
35007POPC   C4B66075   3.619  21.424   7.654 -0.1384  0.2599 -0.1910
35008POPC   NC366076  15.275  27.147   5.088 -0.0875  0.2531  0.2130
35008POPC   PO466077  15.172  27.479   5.221 -0.2637 -0.2570  0.0060
35008POPC   GL166078  15.545  27.461   5.307 -0.1536 -0.0511  0.2505
35008POPC   GL266079  15.468  27.550   5.634 -0.2420 -0.2486  0.1885
35008POPC   C1A66080  15.779  27.241   5.624  0.0342  0.0411 -0.3336
35008POPC   D2A66081  15.919  27.126   6.023  0.1741  0.0742 -0.3431
35008POPC   C3A66082  15.738  27.216   6.440 -0.2451  0.2840  0.1109
35008POPC   C4A66083  15.605  27.458   6.845  0.1478  0.0800 -0.2265
35008POPC   C1B66084  15.748  27.798   5.795 -0.1243 -0.3754 -0.0293
35008POPC   C2B66085  15.768  28.010   6.173 -0.0436  0.3928 -0.0400
35008POPC   C3B66086  15.751  28.363   6.489 -0.1678  0.0346  0.2099
35008POPC   C4B66087  15.760  28.833   6.452 -0.1735 -0.2528  0.0903
35009POPC   NC366088  15.465  26.656   4.410 -0.0179 -0.1559  0.0854
35009POPC   PO466089  15.525  26.783   4.747 -0.2769  0.2325  0.1004
35009POPC   GL166090  15.754  26.885   5.108 -0.0494  0.0054 -0.2196
35009POPC   GL266091  15.743  26.776   5.431  0.1884  0.1729 -0.4321
35009POPC   C1A66092  16.093  27.132   5.219 -0.0755 -0.0356  0.0710
35009POPC   D2A66093  16.518  27.257   5.432 -0.1707  0.0368 -0.0289
35009POPC   C3A66094  16.841  27.066   5.673 -0.0206 -0.0230  0.0840
35009POPC   C4A66095  16.987  26.768   6.052 -0.2119  0.0015  0.1731
35009POPC   C1B66096  15.726  26.660   5.922  0.2685 -0.4521  0.2659
35009POPC   C2B66097  15.845  26.728   6.363 -0.0548  0.4349  0.0240
35009POPC   C3B66098  16.158  26.738   6.769 -0.0932  0.3066  0.1027
35009POPC   C4B66099  16.047  26.693   7.236  0.1916 -0.2611  0.0625
35010POPC   NC366100   6.350  31.804   4.366 -0.0028 -0.4910  0.1122
35010POPC   PO466101   6.605  31.912   4.676 -0.2556  0.1468 -0.2327
35010POPC   GL166102   6.585  31.788   5.050  0.1720  0.0308 -0.0005
35010POPC   GL266103   6.836  31.761   5.085 -0.0118  0.1021 -0.1669
35010POPC   C1A66104   6.501  31.584   5.454 -0.1510 -0.0843 -0.0700
35010POPC   D2A66105   6.290  31.399   5.829  0.2345  0.0171  0.1769
35010POPC   C3A66106   6.562  31.740   6.024  0.3671 -0.1252  0.0491
35010POPC   C4A66107   6.769  32.122   6.235 -0.1872  0.0224 -0.2149
35010POPC   C1B66108   7.008  31.660   5.579 -0.2713 -0.0673 -0.1173
35010POPC   C2B66109   7.145  31.695   6.008  0.1594  0.1064  0.2514
35010POPC   C3B66110   6.934  31.662   6.433 -0.1025 -0.3503  0.5879
35010POPC   C4B66111   6.798  31.835   6.803  0.0833  0.2662 -0.4958
35011POPC   NC366112   1.000  25.451   4.373  0.1253  0.2059  0.1973
35011POPC   PO466113   0.926  25.527   4.731  0.1580 -0.3189 -0.1063
35011POPC   GL166114   1.219  25.546   5.037 -0.1998  0.5391  0.0858
35011POPC   GL266115   1.227  25.271   5.126  0.0516  0.0814  0.2139
35011POPC   C1A66116   1.546  25.795   5.146 -0.1296  0.0451 -0.2496
35011POPC   D2A66117   1.731  26.231   5.271  0.0204  0.2901  0.0798
35011POPC   C3A66118   1.602  26.542   5.607  0.0561  0.0979 -0.0032
35011POPC   C4A66119   1.621  26.987   5.614 -0.0676 -0.0873 -0.2450
35011POPC   C1B66120   1.460  25.447   5.475 -0.0349 -0.0436  0.0380
35011POPC   C2B66121   1.600  25.783   5.724 -0.0862 -0.0476 -0.1783
35011POPC   C3B66122   1.520  26.143   5.955  0.1768  0.0345  0.2184
35011POPC   C4B66123   1.239  26.365   6.252  0.1778 -0.2385  0.3444
35012POPC   NC366124   3.543  24.228   5.558 -0.2391  0.1676 -0.2507
35012POPC   PO466125   3.616  24.383   5.220 -0.0621  0.2605 -0.0057
35012POPC   GL166126   3.380  24.707   5.355  0.0270  0.1916 -0.2285
35012POPC   GL266127   3.211  24.566   5.539 -0.2861 -0.3335 -0.2640
35012POPC   C1A66128   3.485  25.043   5.635 -0.2342  0.1588 -0.2170
35012POPC   D2A66129   3.323  25.254   6.018 -0.0006 -0.0225 -0.0827
35012POPC   C3A66130   3.397  25.244   6.482  0.3842  0.3400  0.0751
35012POPC   C4A66131   3.553  25.519   6.834  0.0888 -0.1524 -0.0765
35012POPC   C1B66132   3.479  24.618   5.921  0.1312 -0.1092 -0.4886
35012POPC   C2B66133   3.498  24.833   6.295 -0.2566  0.4511  0.1911
35012POPC   C3B66134   3.470  24.730   6.767  0.0395 -0.2010 -0.1378
35012POPC   C4B66135   3.463  24.444   7.172  0.0560 -0.0469  0.0196
35013POPC   NC366136  14.437  19.287   5.096 -0.1961 -0.0336  0.0143
35013POPC   PO466137  14.054  19.196   5.174 -0.1415  0.3137  0.2357
35013POPC   GL166138  14.200  18.998   5.461 -0.0658 -0.2551  0.1865
35013POPC   GL266139  14.357  18.731   5.306  0.1688 -0.1641  0.0816
35013POPC   C1A66140  14.327  18.750   5.805 -0.3820  0.3256  0.0149
35013POPC   D2A66141  14.553  18.293   5.885  0.0729  0.0568 -0.2784
35013POPC   C3A66142  14.264  18.177   6.241 -0.0532 -0.2161  0.1817
35013POPC   C4A66143  14.114  17.748   6.408  0.0560 -0.0470  0.1432
35013POPC   C1B66144  14.642  19.070   5.492 -0.1080  0.1150 -0.0827
35013POPC   C2B66145  14.851  19.263   5.897 -0.1956  0.0262 -0.0278
35013POPC   C3B66146  14.977  19.140   6.280  0.0735  0.1693 -0.0321
35013POPC   C4B66147  14.882  19.201   6.689 -0.2081  0.1646  0.2174
35014POPC   NC366148   6.376  21.247   6.519  0.0093 -0.0082  0.1116
35014POPC   PO466149   6.329  21.176   6.930  0.1695 -0.0763  0.1081
35014POPC   GL166150   6.190  20.882   7.185  0.1817  0.0607  0.0351
35014POPC   GL266151   6.317  20.629   7.413  0.0161 -0.0794 -0.1897
35014POPC   C1A66152   5.827  20.832   7.479 -0.2562  0.1839 -0.0147
35014POPC   D2A66153   5.372  20.639   7.412 -0.3709 -0.0053 -0.2643
35014POPC   C3A66154   5.401  20.700   7.872  0.1032 -0.0785  0.0851
35014POPC   C4A66155   5.253  20.626   8.315  0.1825  0.1036 -0.2635
35014POPC   C1B66156   6.105  20.651   7.860 -0.1795  0.2644 -0.0531
35014POPC   C2B66157   5.895  20.764   8.261 -0.1689  0.0021 -0.1773
35014POPC   C3B66158   5.788  20.922   8.713  0.0140  0.2262  0.0116
35014POPC   C4B66159   5.386  20.949   8.900 -0.0035  0.2079  0.2056
35015POPC   NC366160   2.170  22.178   5.197  0.0953 -0.2897 -0.0326
35015POPC   PO466161   1.945  21.840   5.129 -0.0438 -0.1000  0.3720
35015POPC   GL166162   1.878  21.931   5.481  0.4406  0.2228 -0.4268
35015POPC   GL266163   2.025  22.064   5.707 -0.0898  0.0092  0.3313
35015POPC   C1A66164   1.558  21.774   5.786  0.0127 -0.2712 -0.0935
35015POPC   D2A66165   1.353  21.459   6.088 -0.1316 -0.2769  0.1276
35015POPC   C3A66166   1.055  21.609   6.425 -0.3270 -0.0959 -0.1650
35015POPC   C4A66167   0.913  21.563   6.861  0.2982 -0.0090  0.0324
35015POPC   C1B66168   1.899  21.902   6.095 -0.1104  0.0357 -0.3144
35015POPC   C2B66169   1.584  21.748   6.431  0.0670  0.0677  0.1373
35015POPC   C3B66170   1.497  21.451   6.783  0.2990  0.1455  0.2936
35015POPC   C4B66171   1.729  21.362   7.164  0.0945  0.1200  0.4057
35016POPC   NC366172  10.753  23.407   8.823  0.2954  0.1298 -0.0017
35016POPC   PO466173  10.816  23.550   8.435  0.0243  0.2694  0.0343
35016POPC   GL166174  11.027  23.946   8.295 -0.1416  0.2289  0.4051
35016POPC   GL266175  11.277  23.863   8.295 -0.0366 -0.0020  0.2045
35016POPC   C1A66176  11.205  24.340   8.473  0.1769  0.0141  0.0708
35016POPC   D2A66177  11.649  24.633   8.519  0.4212  0.0781 -0.0683
35016POPC   C3A66178  11.797  24.739   8.862 -0.1901  0.2379 -0.3528
35016POPC   C4A66179  12.078  24.621   9.184 -0.0872 -0.1757  0.0882
35016POPC   C1B66180  11.567  23.746   8.602  0.1741 -0.0482 -0.0873
35016POPC   C2B66181  11.684  23.676   9.044 -0.1533 -0.4821 -0.0534
35016POPC   C3B66182  11.821  23.607   9.534 -0.0308  0.0917  0.1832
35016POPC   C4B66183  12.188  23.614   9.875  0.0315  0.1942 -0.0072
35017POPC   NC366184   9.880  24.478   8.382  0.1665  0.1324  0.3413
35017POPC   PO466185  10.179  24.430   8.085 -0.1185  0.2393 -0.1370
35017POPC   GL166186  10.505  24.673   8.255 -0.1871  0.1643  0.0521
35017POPC   GL266187  10.292  24.721   8.442 -0.3400  0.0382  0.0670
35017POPC   C1A66188  10.812  24.734   8.569 -0.0341  0.1571  0.1529
35017POPC   D2A66189  11.229  24.892   8.710 -0.0205 -0.0239  0.0975
35017POPC   C3A66190  11.130  25.303   8.966 -0.0726 -0.1898  0.3757
35017POPC   C4A66191  10.821  25.678   9.024  0.0710  0.0379 -0.0477
35017POPC   C1B66192  10.441  25.028   8.790 -0.0727 -0.3080 -0.0968
35017POPC   C2B66193  10.709  25.053   9.175  0.0997 -0.0872 -0.0285
35017POPC   C3B66194  10.934  25.363   9.435  0.0411 -0.2500 -0.2761
35017POPC   C4B66195  10.877  25.779   9.557  0.2378  0.1953  0.2827
35018POPC   NC366196  13.623  21.999   5.879  0.3558 -0.5384  0.1216
35018POPC   PO466197  13.771  21.653   5.881 -0.1338 -0.0079 -0.0875
35018POPC   GL166198  13.732  21.744   6.367  0.1947  0.2084  0.1028
35018POPC   GL266199  13.923  21.481   6.381  0.1275 -0.0964 -0.3718
35018POPC   C1A66200  13.565  21.586   6.781  0.2286 -0.0966 -0.1297
35018POPC   D2A66201  13.491  21.645   7.258  0.0655  0.4124 -0.2243
35018POPC   C3A66202  13.109  21.915   7.357 -0.0865  0.0723 -0.2626
35018POPC   C4A66203  12.745  21.786   7.167  0.3592 -0.1889  0.2480
35018POPC   C1B66204  13.949  21.179   6.697  0.2202  0.0135  0.2486
35018POPC   C2B66205  14.280  21.182   7.074  0.2830  0.1038  0.2516
35018POPC   C3B66206  14.471  21.333   7.441 -0.0217  0.0627  0.1067
35018POPC   C4B66207  14.804  21.402   7.715  0.1319  0.0270 -0.1517
35019POPC   NC366208  17.078  17.937   3.938  0.0898  0.0311  0.0207
35019POPC   PO466209  17.117  17.606   4.118  0.0858 -0.2767  0.2376
35019POPC   GL166210  17.086  17.460   4.477  0.0572  0.0198  0.2294
35019POPC   GL266211  17.266  17.326   4.678  0.1219  0.1776 -0.1968
35019POPC   C1A66212  16.843  17.354   4.834  0.3347  0.0061  0.1229
35019POPC   D2A66213  16.815  17.341   5.264  0.1505  0.0728 -0.2246
35019POPC   C3A66214  17.000  17.730   5.428  0.1049  0.1047 -0.4277
35019POPC   C4A66215  16.789  18.130   5.609  0.0039  0.1850 -0.0140
35019POPC   C1B66216  17.146  16.960   5.028  0.1957  0.0453  0.1080
35019POPC   C2B66217  16.860  16.666   5.238 -0.2240  0.0649  0.2803
35019POPC   C3B66218  16.840  16.318   5.570  0.0199 -0.2861  0.0217
35019POPC   C4B66219  16.757  15.847   5.492 -0.0466 -0.2726  0.0520
35020POPC   NC366220   2.438  32.459   4.259 -0.1778  0.3731 -0.0064
35020POPC   PO466221   2.693  32.195   4.073  0.0958  0.0445  0.0563
35020POPC   GL166222   2.950  31.978   4.313  0.0320  0.2650  0.0739
35020POPC   GL266223   3.185  31.816   4.292  0.2685  0.2990 -0.0899
35020POPC   C1A66224   3.147  32.088   4.720 -0.2263  0.6033  0.4073
35020POPC   D2A66225   3.243  32.482   4.901  0.1983  0.0064 -0.0500
35020POPC   C3A66226   3.160  32.629   5.359  0.0810  0.1190 -0.0721
35020POPC   C4A66227   3.283  32.872   5.714 -0.0702 -0.0516  0.1050
35020POPC   C1B66228   2.900  31.684   4.636  0.2681 -0.2114 -0.1343
35020POPC   C2B66229   2.770  31.852   5.029  0.3069  0.1700 -0.1658
35020POPC   C3B66230   2.287  31.978   4.975  0.0955 -0.2159  0.2786
35020POPC   C4B66231   1.972  32.036   5.289  0.1097 -0.3149  0.3630
35021POPC   NC366232   9.160  25.534   7.146 -0.0402  0.3138 -0.1354
35021POPC   PO466233   9.496  25.278   7.170  0.1280  0.1569  0.1240
35021POPC   GL166234   9.282  25.558   7.558  0.2670 -0.1396 -0.4254
35021POPC   GL266235   9.565  25.627   7.515 -0.0550  0.2284  0.1610
35021POPC   C1A66236   9.187  25.888   7.820 -0.2854 -0.0328 -0.0581
35021POPC   D2A66237   9.325  26.201   8.159  0.3030  0.1258  0.2275
35021POPC   C3A66238   9.253  26.199   8.589  0.1263 -0.2489  0.1759
35021POPC   C4A66239   9.046  26.245   9.000 -0.3909  0.0370 -0.2916
35021POPC   C1B66240   9.664  25.881   7.862 -0.0520  0.1148  0.3991
35021POPC   C2B66241   9.791  26.290   8.125 -0.0596 -0.2065  0.0741
35021POPC   C3B66242   9.736  26.368   8.554  0.2687 -0.0128 -0.1985
35021POPC   C4B66243   9.540  26.267   9.002 -0.1408  0.1805 -0.1083
35022POPC   NC366244   8.419  16.895   5.195  0.1086 -0.1725 -0.0392
35022POPC   PO466245   8.575  17.171   5.460  0.2184  0.2090  0.0726
35022POPC   GL166246   8.730  17.201   5.889 -0.3857 -0.0470  0.1572
35022POPC   GL266247   8.792  16.963   5.976  0.2518  0.1535  0.0891
35022POPC   C1A66248   8.353  17.126   6.150  0.2307 -0.1597  0.3365
35022POPC   D2A66249   8.087  17.021   6.505 -0.1958 -0.0216  0.0689
35022POPC   C3A66250   7.656  16.931   6.467 -0.3425 -0.1346  0.0806
35022POPC   C4A66251   7.320  17.196   6.535  0.0578 -0.0806 -0.1454
35022POPC   C1B66252   9.136  16.950   6.258 -0.1021 -0.0698 -0.1561
35022POPC   C2B66253   9.309  16.743   6.630 -0.1455  0.0096  0.3370
35022POPC   C3B66254   9.238  16.426   6.953 -0.0555 -0.1867  0.0502
35022POPC   C4B66255   9.392  16.010   7.209 -0.0792  0.0350 -0.0587
35023POPC   NC366256   0.638  24.751   5.038  0.0828 -0.1596 -0.0229
35023POPC   PO466257   0.713  24.388   5.164 -0.1097  0.1763  0.1036
35023POPC   GL166258   1.008  24.645   5.305  0.0338 -0.3002  0.0021
35023POPC   GL266259   1.062  24.866   5.344  0.1918 -0.0803  0.2162
35023POPC   C1A66260   1.056  24.667   5.770  0.1703 -0.0238 -0.0738
35023POPC   D2A66261   0.823  24.550   6.170 -0.1369 -0.1432 -0.2518
35023POPC   C3A66262   0.379  24.727   6.249 -0.1173 -0.0747 -0.0189
35023POPC   C4A66263   0.049  25.050   6.142  0.0244  0.0833  0.1527
35023POPC   C1B66264   1.067  25.213   5.644 -0.3102  0.3030  0.0428
35023POPC   C2B66265   1.266  25.486   5.952  0.0458  0.0047 -0.0297
35023POPC   C3B66266   1.310  25.817   6.266  0.0729  0.0396  0.0926
35023POPC   C4B66267   1.393  26.102   6.630 -0.0272  0.0067  0.0395
35024POPC   NC366268  12.747  24.673   6.161 -0.0455 -0.2255  0.2804
35024POPC   PO466269  12.840  25.052   6.094 -0.1500 -0.1715 -0.2352
35024POPC   GL166270  13.062  25.077   6.393 -0.0296 -0.0397 -0.2226
35024POPC   GL266271  12.889  24.869   6.613 -0.0114 -0.2004  0.0886
35024POPC   C1A66272  13.443  25.153   6.670 -0.0757  0.2217 -0.1760
35024POPC   D2A66273  13.620  25.386   7.012  0.4927 -0.0606 -0.1030
35024POPC   C3A66274  14.035  25.238   7.195 -0.3183  0.1812 -0.1233
35024POPC   C4A66275  14.371  25.483   7.287  0.0244 -0.0456 -0.0868
35024POPC   C1B66276  12.974  24.987   7.063  0.0870 -0.1099 -0.2476
35024POPC   C2B66277  13.113  25.293   7.385  0.0183  0.2992  0.0129
35024POPC   C3B66278  13.005  25.576   7.695  0.1616  0.0805 -0.0044
35024POPC   C4B66279  12.851  25.884   8.000 -0.0091  0.3371  0.0740
35025POPC   NC366280   8.713  32.159   5.004  0.3760 -0.0036 -0.0078
35025POPC   PO466281   8.914  32.335   5.270 -0.0485  0.0262  0.1665
35025POPC   GL166282   8.894  32.464   5.666 -0.3005  0.1785  0.0148
35025POPC   GL266283   8.794  32.708   5.814 -0.0466 -0.1627  0.4618
35025POPC   C1A66284   8.865  32.280   6.074 -0.0635  0.1512  0.0391
35025POPC   D2A66285   8.647  32.110   6.399  0.0997 -0.1799  0.0658
35025POPC   C3A66286   8.353  32.311   6.725  0.3239 -0.0285 -0.2417
35025POPC   C4A66287   8.036  32.343   7.097  0.0843  0.1401  0.3478
35025POPC   C1B66288   9.190  32.669   6.027 -0.2996  0.0302  0.4219
35025POPC   C2B66289   9.522  32.500   6.324  0.1927 -0.1818  0.2870
35025POPC   C3B66290   9.507  32.490   6.785 -0.0449  0.3326  0.1554
35025POPC   C4B66291   9.532  32.342   7.224  0.0113  0.0023  0.3697
35026POPC   NC366292  13.809  18.788   5.349  0.1018  0.2525  0.2229
35026POPC   PO466293  13.424  18.935   5.253 -0.2121  0.1221 -0.0572
35026POPC   GL166294  13.522  18.868   5.691 -0.0431 -0.0727 -0.3321
35026POPC   GL266295  13.385  19.107   5.905  0.1129  0.0595  0.2482
35026POPC   C1A66296  13.181  18.652   5.951  0.0619 -0.2859  0.2651
35026POPC   D2A66297  13.141  18.603   6.381 -0.0208 -0.2166 -0.0609
35026POPC   C3A66298  13.284  18.249   6.650  0.0243  0.1106 -0.1298
35026POPC   C4A66299  13.530  17.855   6.757 -0.0452 -0.1676 -0.0618
35026POPC   C1B66300  13.564  18.826   6.247  0.1267  0.1863 -0.0658
35026POPC   C2B66301  13.718  18.402   6.446  0.0408  0.2610 -0.1489
35026POPC   C3B66302  13.987  18.080   6.690 -0.0651  0.1092 -0.2021
35026POPC   C4B66303  13.981  17.616   6.860  0.1174  0.1083  0.3212
35027POPC   NC366304  10.392  23.209  10.961  0.1324 -0.1030 -0.2626
35027POPC   PO466305  10.139  23.353  10.689  0.0045  0.0180 -0.0462
35027POPC   GL166306  10.288  23.745  10.715  0.1589 -0.2006 -0.0733
35027POPC   GL266307  10.054  23.926  10.795 -0.0349 -0.0324 -0.2633
35027POPC   C1A66308  10.439  24.104  10.492  0.1559 -0.4132 -0.2318
35027POPC   D2A66309  10.715  24.494  10.562  0.0731  0.0414 -0.0396
35027POPC   C3A66310  11.127  24.481  10.443 -0.0345  0.0171 -0.0061
35027POPC   C4A66311  11.572  24.346  10.439 -0.1127 -0.1317  0.0702
35027POPC   C1B66312  10.321  24.213  10.956 -0.2013  0.1414 -0.0879
35027POPC   C2B66313  10.318  24.514  11.314 -0.1198 -0.0739  0.0609
35027POPC   C3B66314  10.443  24.907  11.558 -0.2135 -0.1747  0.1183
35027POPC   C4B66315  10.650  25.210  11.816  0.2584  0.2044 -0.1401
35028POPC   NC366316   8.623  20.281   7.780 -0.0134 -0.0865 -0.3183
35028POPC   PO466317   8.367  20.584   7.695  0.3149 -0.1273 -0.2484
35028POPC   GL166318   8.076  20.353   7.844  0.0172  0.1309  0.1297
35028POPC   GL266319   8.273  20.333   8.084  0.1170  0.3113  0.2158
35028POPC   C1A66320   7.694  20.317   8.136  0.2781  0.1021  0.0853
35028POPC   D2A66321   7.346  20.078   8.334  0.1513  0.0198  0.2081
35028POPC   C3A66322   6.996  20.204   8.644  0.0785  0.1788 -0.1462
35028POPC   C4A66323   6.716  20.210   9.038  0.1680  0.1108 -0.3200
35028POPC   C1B66324   8.266  19.834   8.182 -0.2445 -0.1395  0.2584
35028POPC   C2B66325   8.124  19.523   8.483  0.0332 -0.2788  0.0824
35028POPC   C3B66326   7.954  19.200   8.730 -0.2931 -0.1342  0.0079
35028POPC   C4B66327   7.702  18.842   8.935 -0.4480  0.2859 -0.0306
35029POPC   NC366328   2.309  31.449   4.349 -0.3182  0.0235 -0.2101
35029POPC   PO466329   2.543  31.211   4.137 -0.1064  0.2260 -0.1279
35029POPC   GL166330   2.735  31.185   4.504  0.5227 -0.1794  0.0738
35029POPC   GL266331   2.532  30.975   4.699  0.0259 -0.0718  0.1473
35029POPC   C1A66332   2.543  31.418   4.900  0.0829  0.1848  0.0215
35029POPC   D2A66333   2.288  31.611   5.241 -0.0801  0.1323  0.0283
35029POPC   C3A66334   2.359  31.487   5.711 -0.3780 -0.1462  0.0096
35029POPC   C4A66335   2.287  31.723   6.176 -0.0405  0.5003  0.0616
35029POPC   C1B66336   2.382  30.641   4.943  0.0923  0.2187  0.0204
35029POPC   C2B66337   2.394  30.181   4.878  0.0233  0.0562  0.3973
35029POPC   C3B66338   2.418  29.783   5.148  0.1907 -0.2440  0.1036
35029POPC   C4B66339   2.213  29.529   5.512  0.3461 -0.3473  0.2380
35030POPC   NC366340  12.892  17.952   4.918  0.2425 -0.0807  0.1312
35030POPC   PO466341  13.245  18.055   4.814  0.0380 -0.3165 -0.0967
35030POPC   GL166342  13.476  17.903   5.127 -0.0611  0.2345  0.0286
35030POPC   GL266343  13.450  18.052   5.334 -0.0766 -0.0269  0.0788
35030POPC   C1A66344  13.734  17.525   5.104 -0.0507  0.2517  0.1089
35030POPC   D2A66345  14.041  17.166   5.234  0.2584  0.3066  0.2925
35030POPC   C3A66346  14.288  16.789   5.374  0.1424 -0.0443 -0.0990
35030POPC   C4A66347  14.371  16.393   5.708 -0.0307  0.0790  0.5506
35030POPC   C1B66348  13.444  17.730   5.667 -0.1789  0.1045 -0.0235
35030POPC   C2B66349  13.507  17.643   6.129 -0.2798 -0.0794 -0.0499
35030POPC   C3B66350  13.591  17.384   6.516 -0.1743  0.2137  0.3990
35030POPC   C4B66351  13.556  17.412   6.969 -0.0996  0.0862 -0.4028
35031POPC   NC366352   5.478  25.565   5.045 -0.1289 -0.3585 -0.1744
35031POPC   PO466353   5.835  25.647   5.180 -0.2760 -0.1800 -0.1631
35031POPC   GL166354   5.844  25.917   5.476  0.4263  0.1825 -0.4111
35031POPC   GL266355   5.777  25.665   5.690 -0.2124  0.0741  0.3616
35031POPC   C1A66356   5.748  26.062   5.918  0.0507 -0.1953 -0.1686
35031POPC   D2A66357   5.612  26.449   6.032  0.0412 -0.4257 -0.1662
35031POPC   C3A66358   5.521  26.811   6.333  0.2487 -0.1538  0.0372
35031POPC   C4A66359   5.535  26.983   6.746 -0.2168  0.1510  0.3816
35031POPC   C1B66360   5.608  25.411   6.009  0.1706  0.1216 -0.2927
35031POPC   C2B66361   5.365  25.594   6.366  0.0027 -0.2826 -0.0351
35031POPC   C3B66362   5.181  25.942   6.654 -0.0273  0.1192 -0.3013
35031POPC   C4B66363   4.949  26.147   7.028  0.0681 -0.0239  0.0747
35032POPC   NC366364   7.752  30.735   4.592  0.0352  0.0130  0.0969
35032POPC   PO466365   7.567  30.414   4.707  0.2109  0.2137  0.0405
35032POPC   GL166366   7.656  30.681   5.046 -0.0903  0.0073 -0.1055
35032POPC   GL266367   7.986  30.632   5.075 -0.1986  0.2898  0.1992
35032POPC   C1A66368   7.613  31.028   5.295  0.1030 -0.1375 -0.1275
35032POPC   D2A66369   7.390  31.064   5.699 -0.0375  0.0029 -0.1791
35032POPC   C3A66370   7.686  30.968   6.003 -0.1770 -0.3012 -0.1428
35032POPC   C4A66371   7.806  31.020   6.417  0.0690  0.0932 -0.1400
35032POPC   C1B66372   7.938  30.599   5.539 -0.0563  0.2946  0.3488
35032POPC   C2B66373   8.038  30.535   6.004 -0.2230  0.0248 -0.1554
35032POPC   C3B66374   7.932  30.508   6.470  0.2456 -0.0337  0.3306
35032POPC   C4B66375   7.794  30.744   6.831  0.1315 -0.0962 -0.1621
35033POPC   NC366376   9.078  22.517  10.625 -0.1548 -0.2662  0.0785
35033POPC   PO466377   8.846  22.743  10.439 -0.0106  0.0844  0.0870
35033POPC   GL166378   8.351  22.816  10.581 -0.1233 -0.4832  0.0020
35033POPC   GL266379   8.084  22.598  10.555 -0.0057 -0.1837  0.0573
35033POPC   C1A66380   7.982  23.029  10.808  0.2969  0.0011 -0.0952
35033POPC   D2A66381   7.617  22.915  10.975 -0.3600  0.0618 -0.3129
35033POPC   C3A66382   7.268  23.102  10.704  0.1320 -0.4612 -0.0500
35033POPC   C4A66383   7.173  23.416  10.407  0.0323  0.1727  0.3836
35033POPC   C1B66384   7.895  22.481  10.904 -0.3414 -0.1981 -0.1977
35033POPC   C2B66385   7.614  22.425  11.225 -0.0735  0.0569  0.4324
35033POPC   C3B66386   7.173  22.550  11.319 -0.0762 -0.1279 -0.1858
35033POPC   C4B66387   6.788  22.765  11.331 -0.1947 -0.0442 -0.1440
35034POPC   NC366388   7.503  18.177   5.778  0.1748 -0.1114 -0.1409
35034POPC   PO466389   7.329  18.452   6.035 -0.1508 -0.2569  0.1376
35034POPC   GL166390   7.058  18.373   6.341 -0.0085 -0.1038  0.0723
35034POPC   GL266391   6.916  18.627   6.311  0.1004 -0.1245  0.1674
35034POPC   C1A66392   7.114  18.017   6.578 -0.2493  0.0494 -0.3529
35034POPC   D2A66393   7.412  17.641   6.683 -0.2528 -0.0787  0.3423
35034POPC   C3A66394   7.643  17.703   7.118 -0.3509 -0.0041  0.1110
35034POPC   C4A66395   7.657  17.772   7.612  0.1207 -0.2421  0.0380
35034POPC   C1B66396   6.876  18.428   6.741  0.0593 -0.1276 -0.0567
35034POPC   C2B66397   6.946  18.105   7.045  0.2624  0.1804 -0.2750
35034POPC   C3B66398   6.786  17.909   7.483 -0.0916 -0.0554 -0.0803
35034POPC   C4B66399   6.747  17.658   7.884 -0.1389  0.0636  0.1573
35035POPC   NC366400   2.204  22.820   5.246 -0.0844  0.0561  0.0485
35035POPC   PO466401   1.871  22.603   5.169  0.4247 -0.0955  0.2514
35035POPC   GL166402   1.857  22.581   5.513  0.4533  0.3839  0.0495
35035POPC   GL266403   2.105  22.534   5.645  0.2434  0.1126 -0.1025
35035POPC   C1A66404   1.549  22.851   5.741 -0.1248 -0.2860 -0.1765
35035POPC   D2A66405   1.593  23.314   5.823 -0.0593  0.1605  0.0208
35035POPC   C3A66406   1.451  23.488   6.214  0.1989  0.0184 -0.1715
35035POPC   C4A66407   1.188  23.377   6.558  0.2269 -0.1240 -0.0610
35035POPC   C1B66408   2.005  22.413   6.096  0.0852 -0.2298  0.2999
35035POPC   C2B66409   2.059  22.370   6.533 -0.2012  0.2808 -0.4717
35035POPC   C3B66410   2.243  22.298   6.941 -0.2419  0.1880 -0.2609
35035POPC   C4B66411   2.591  21.988   6.916 -0.1398 -0.2979 -0.0876
35036POPC   NC366412  12.042  18.247   5.249  0.0359 -0.1698 -0.1866
35036POPC   PO466413  12.033  18.669   5.256 -0.0184 -0.1148 -0.0312
35036POPC   GL166414  12.331  18.585   5.513 -0.2094  0.1356 -0.0930
35036POPC   GL266415  12.370  18.801   5.749 -0.0469  0.2987 -0.0017
35036POPC   C1A66416  12.827  18.528   5.594 -0.1298  0.1848 -0.1295
35036POPC   D2A66417  13.222  18.418   5.500 -0.2170  0.3037 -0.2426
35036POPC   C3A66418  13.624  18.341   5.679  0.1039 -0.1454  0.0779
35036POPC   C4A66419  14.077  18.351   5.597  0.0624  0.1012  0.0317
35036POPC   C1B66420  12.194  18.487   5.987  0.1346  0.0091 -0.1808
35036POPC   C2B66421  12.023  18.283   6.402  0.5837  0.0564  0.2372
35036POPC   C3B66422  12.064  18.110   6.858 -0.1262 -0.0152  0.0133
35036POPC   C4B66423  12.211  17.672   6.932  0.2089 -0.0272  0.1890
35037POPC   NC366424  14.869  21.439   5.429 -0.0637  0.4353 -0.0415
35037POPC   PO466425  15.260  21.401   5.500 -0.0629 -0.1107  0.0840
35037POPC   GL166426  15.537  21.293   5.822  0.0551  0.0156 -0.0653
35037POPC   GL266427  15.655  21.507   5.871 -0.2728  0.1687  0.0002
35037POPC   C1A66428  15.917  21.083   6.011  0.0040  0.1397 -0.2501
35037POPC   D2A66429  16.325  20.975   6.069 -0.0460  0.0757  0.2370
35037POPC   C3A66430  16.436  20.854   6.434 -0.2067  0.1875 -0.1517
35037POPC   C4A66431  16.446  20.502   6.765 -0.1831 -0.2370  0.0331
35037POPC   C1B66432  15.660  21.470   6.321 -0.0013  0.0276  0.1217
35037POPC   C2B66433  15.793  21.236   6.713  0.0158 -0.1245  0.1449
35037POPC   C3B66434  16.190  21.104   6.817  0.2878 -0.1111  0.2949
35037POPC   C4B66435  16.640  21.129   6.909  0.0502 -0.0555  0.2905
35038POPC   NC366436   1.302  20.387   4.591 -0.2120 -0.2857 -0.1743
35038POPC   PO466437   1.523  20.759   4.643  0.0924  0.0072  0.1817
35038POPC   GL166438   1.524  20.991   4.938 -0.0768 -0.2369 -0.4518
35038POPC   GL266439   1.328  20.912   5.097  0.0566 -0.0764  0.2010
35038POPC   C1A66440   1.802  20.927   5.357 -0.1156  0.0588 -0.1670
35038POPC   D2A66441   2.190  20.868   5.644  0.1682  0.0485  0.0946
35038POPC   C3A66442   2.201  21.039   6.096 -0.0122 -0.0665  0.0922
35038POPC   C4A66443   2.119  20.808   6.488 -0.0785 -0.0693 -0.0167
35038POPC   C1B66444   1.371  20.773   5.573 -0.1786  0.3397  0.3242
35038POPC   C2B66445   1.497  20.897   6.005  0.2698 -0.0190  0.1561
35038POPC   C3B66446   1.702  21.066   6.415  0.2391  0.0459 -0.0121
35038POPC   C4B66447   1.703  20.927   6.863 -0.1109  0.0250  0.0183
35039POPC   NC366448  14.048  22.599   6.233 -0.1922 -0.1813 -0.1420
35039POPC   PO466449  13.929  22.385   5.974  0.0889 -0.2248  0.1597
35039POPC   GL166450  14.152  22.174   6.339  0.2406  0.0374  0.0931
35039POPC   GL266451  14.209  21.923   6.152  0.0156  0.1543  0.2352
35039POPC   C1A66452  13.926  21.992   6.714  0.2503  0.0807  0.4504
35039POPC   D2A66453  13.994  21.677   7.027 -0.1229  0.3793 -0.0390
35039POPC   C3A66454  13.912  21.477   7.424 -0.2484 -0.2451  0.0722
35039POPC   C4A66455  14.095  21.494   7.855 -0.0373  0.0568  0.4574
35039POPC   C1B66456  14.392  21.879   6.561 -0.0314 -0.0152 -0.2770
35039POPC   C2B66457  14.489  21.897   7.007 -0.2154 -0.3298  0.0425
35039POPC   C3B66458  14.800  21.734   7.332 -0.1895  0.0490 -0.0116
35039POPC   C4B66459  15.194  21.497   7.354  0.1224 -0.1714  0.1115
35040POPC   NC366460  11.184  22.465  10.603 -0.0039 -0.3074  0.3231
35040POPC   PO466461  11.065  22.533  10.985  0.0796 -0.1816 -0.0304
35040POPC   GL166462  11.474  22.690  11.139  0.1285 -0.2218  0.2102
35040POPC   GL266463  11.559  22.534  11.298 -0.1452 -0.3173  0.0518
35040POPC   C1A66464  11.732  23.002  10.926  0.2127  0.1371 -0.1869
35040POPC   D2A66465  11.603  23.412  10.738 -0.0162 -0.0916 -0.0757
35040POPC   C3A66466  11.956  23.680  10.864 -0.2352 -0.1602 -0.3355
35040POPC   C4A66467  12.353  23.798  11.059  0.2518 -0.0552 -0.0302
35040POPC   C1B66468  11.954  22.666  11.482  0.0426  0.0598 -0.0591
35040POPC   C2B66469  12.407  22.790  11.547  0.0169  0.3735  0.0612
35040POPC   C3B66470  12.735  22.903  11.843  0.0942 -0.1689  0.1725
35040POPC   C4B66471  13.149  22.895  11.768 -0.0179 -0.1881 -0.1311
35041POPC   NC366472  15.963  23.040   4.952 -0.1532  0.0679  0.0945
35041POPC   PO466473  16.209  22.824   4.696  0.0654  0.1541 -0.0944
35041POPC   GL166474  16.147  22.606   4.977  0.1899 -0.2590  0.0336
35041POPC   GL266475  16.405  22.611   5.202  0.0359 -0.4485  0.3073
35041POPC   C1A66476  15.987  22.730   5.409 -0.0242  0.0699  0.1776
35041POPC   D2A66477  15.649  22.929   5.695  0.2659 -0.0915 -0.2377
35041POPC   C3A66478  15.714  22.873   6.141  0.3128 -0.0348 -0.0267
35041POPC   C4A66479  15.935  22.708   6.550 -0.1304 -0.1638  0.0684
35041POPC   C1B66480  16.485  22.518   5.651 -0.0857 -0.0589  0.0722
35041POPC   C2B66481  16.534  22.268   5.970  0.0642  0.0503 -0.0174
35041POPC   C3B66482  16.559  21.907   6.311 -0.0633 -0.0838 -0.2184
35041POPC   C4B66483  16.693  21.490   6.226  0.5249  0.3103  0.0777
35042POPC   NC366484  16.065  27.582   4.802  0.2029 -0.2118  0.4599
35042POPC   PO466485  15.670  27.717   4.933 -0.1063  0.1581 -0.2830
35042POPC   GL166486  15.798  27.823   5.310 -0.1065  0.3641  0.1432
35042POPC   GL266487  15.993  27.559   5.354 -0.2328  0.0479  0.1464
35042POPC   C1A66488  16.108  28.075   5.531  0.1670 -0.0261 -0.0620
35042POPC   D2A66489  16.275  28.143   5.945  0.0805  0.0151 -0.1017
35042POPC   C3A66490  16.328  28.028   6.388  0.2370  0.0178  0.1561
35042POPC   C4A66491  16.190  28.239   6.751 -0.0683  0.1745 -0.0795
35042POPC   C1B66492  16.202  27.640   5.763  0.2880 -0.1393 -0.0001
35042POPC   C2B66493  16.111  27.610   6.172  0.1701 -0.1345  0.0928
35042POPC   C3B66494  15.961  27.807   6.611  0.0252  0.0258  0.1805
35042POPC   C4B66495  15.704  28.046   6.898  0.1160  0.1977  0.0175
35043POPC   NC366496  14.107  23.149   5.967  0.3312  0.1973  0.0938
35043POPC   PO466497  14.387  22.850   5.846  0.2217 -0.2060  0.3379
35043POPC   GL166498  14.675  22.732   6.019 -0.0306  0.1693 -0.3892
35043POPC   GL266499  14.598  22.878   6.285 -0.0744  0.1156 -0.2396
35043POPC   C1A66500  14.979  22.475   6.216 -0.2713 -0.1429 -0.4464
35043POPC   D2A66501  15.074  22.211   6.585  0.0830  0.0842  0.2570
35043POPC   C3A66502  14.745  22.291   6.911 -0.2099 -0.3857 -0.0126
35043POPC   C4A66503  14.698  22.273   7.339 -0.4230 -0.3227  0.0308
35043POPC   C1B66504  14.869  22.747   6.626  0.2029  0.0838 -0.0842
35043POPC   C2B66505  15.069  22.618   7.028  0.1089  0.0633  0.3332
35043POPC   C3B66506  15.052  22.559   7.462  0.0179 -0.1125  0.1576
35043POPC   C4B66507  15.260  22.389   7.784  0.0986  0.1482  0.2096
35044POPC   NC366508  11.138  19.023   6.161  0.0274 -0.0597  0.1355
35044POPC   PO466509  11.240  18.833   5.842 -0.0140  0.0102 -0.0623
35044POPC   GL166510  11.296  18.557   6.123 -0.1529  0.0261  0.1048
35044POPC   GL266511  11.586  18.529   6.164  0.3171 -0.3103  0.0872
35044POPC   C1A66512  11.049  18.390   6.470 -0.1106  0.1203 -0.2259
35044POPC   D2A66513  10.941  18.078   6.822 -0.0902 -0.0393  0.0416
35044POPC   C3A66514  10.701  17.621   6.715 -0.0144  0.1298  0.0241
35044POPC   C4A66515  10.555  17.264   6.926  0.0279 -0.1434 -0.1711
35044POPC   C1B66516  11.505  18.241   6.487 -0.0320  0.0868  0.0619
35044POPC   C2B66517  11.591  17.971   6.850  0.3467 -0.0639  0.2438
35044POPC   C3B66518  11.811  17.824   7.189  0.0381  0.2988 -0.0662
35044POPC   C4B66519  11.741  17.647   7.626 -0.0713 -0.0601  0.2266
35045POPC   NC366520  15.423  17.926   4.399  0.2700 -0.3091  0.0049
35045POPC   PO466521  15.137  17.717   4.180  0.1049 -0.2197 -0.5057
35045POPC   GL166522  15.159  17.386   4.513  0.2408  0.1368 -0.4126
35045POPC   GL266523  15.431  17.502   4.633 -0.0613 -0.0200 -0.2308
35045POPC   C1A66524  15.035  17.330   4.997 -0.0642  0.0445 -0.0511
35045POPC   D2A66525  14.946  17.292   5.411 -0.0658  0.1006 -0.2366
35045POPC   C3A66526  15.031  17.125   5.861 -0.1960 -0.0268  0.0644
35045POPC   C4A66527  14.893  17.105   6.312 -0.2813  0.1723 -0.0439
35045POPC   C1B66528  15.371  17.814   4.966 -0.0140 -0.0365  0.1610
35045POPC   C2B66529  15.243  17.846   5.381  0.3191 -0.0419 -0.5796
35045POPC   C3B66530  15.263  17.668   5.846 -0.2316  0.1633  0.2927
35045POPC   C4B66531  15.019  17.568   6.251 -0.3395  0.0385 -0.3213
35046POPC   NC366532   5.665  20.636   6.521  0.0573 -0.1355  0.0276
35046POPC   PO466533   6.020  20.487   6.492 -0.1108 -0.0529 -0.1308
35046POPC   GL166534   5.773  20.211   6.765  0.0147 -0.2076 -0.2388
35046POPC   GL266535   5.959  19.959   6.799  0.0416 -0.3703  0.0929
35046POPC   C1A66536   5.524  20.061   7.168  0.0409  0.1205 -0.1541
35046POPC   D2A66537   5.437  19.731   7.489  0.1752  0.2258  0.2286
35046POPC   C3A66538   5.467  19.561   7.922  0.1683  0.0005 -0.0338
35046POPC   C4A66539   5.246  19.795   8.273  0.0444 -0.3138  0.0288
35046POPC   C1B66540   5.754  19.520   6.795  0.2466  0.1688 -0.0108
35046POPC   C2B66541   5.599  19.280   7.147 -0.0800  0.0423  0.0320
35046POPC   C3B66542   5.295  19.230   7.497 -0.0512  0.1697  0.1769
35046POPC   C4B66543   5.039  19.333   7.866  0.0586  0.0608 -0.3621
35047POPC   NC366544   2.856  23.783   5.233 -0.0862  0.0368 -0.1874
35047POPC   PO466545   2.629  23.532   5.439  0.0812  0.0364  0.0953
35047POPC   GL166546   2.553  23.433   5.835 -0.0718  0.0938  0.4479
35047POPC   GL266547   2.384  23.718   5.920 -0.1517  0.0625 -0.0595
35047POPC   C1A66548   2.353  23.191   6.204  0.1071 -0.0682 -0.0132
35047POPC   D2A66549   2.224  23.278   6.640 -0.2534  0.3923  0.0816
35047POPC   C3A66550   1.966  23.123   6.999  0.2827  0.0859  0.1592
35047POPC   C4A66551   1.744  23.121   7.447  0.0050  0.0876  0.1354
35047POPC   C1B66552   2.416  23.652   6.395  0.1437 -0.0829  0.1467
35047POPC   C2B66553   2.569  23.607   6.806  0.0356 -0.0566 -0.1894
35047POPC   C3B66554   2.233  23.563   7.164  0.3220  0.3200 -0.1577
35047POPC   C4B66555   1.960  23.533   7.553  0.4164  0.3605 -0.2240
35048POPC   NC366556   9.269  27.945   5.928  0.1781 -0.1802 -0.1454
35048POPC   PO466557   9.486  28.122   5.665  0.1626  0.0997 -0.0120
35048POPC   GL166558   9.681  28.257   5.948 -0.2088  0.0417  0.2255
35048POPC   GL266559   9.789  27.997   6.103  0.3853  0.0527  0.0562
35048POPC   C1A66560   9.796  28.494   6.342  0.1792 -0.0608  0.0965
35048POPC   D2A66561   9.884  28.426   6.790  0.2124  0.1597 -0.1079
35048POPC   C3A66562  10.103  28.629   7.155  0.1209  0.1041 -0.1253
35048POPC   C4A66563  10.466  28.511   7.470 -0.1681  0.0168 -0.1051
35048POPC   C1B66564  10.169  28.237   6.211 -0.3986 -0.1309  0.1820
35048POPC   C2B66565  10.364  28.488   6.569 -0.1553  0.3924 -0.0174
35048POPC   C3B66566  10.520  28.806   6.876  0.0246  0.0209 -0.0589
35048POPC   C4B66567  10.462  29.016   7.291 -0.1541  0.2370 -0.1507
35049POPC   NC366568   2.132  32.810   3.925  0.3473  0.0948  0.2524
35049POPC   PO466569   2.315  33.031   4.205  0.5112 -0.1267 -0.1797
35049POPC   GL166570   2.519  32.876   4.468 -0.0294  0.0371 -0.1052
35049POPC   GL266571   2.295  32.823   4.696 -0.1801 -0.0565 -0.1379
35049POPC   C1A66572   2.707  33.037   4.868  0.0515  0.1930 -0.1133
35049POPC   D2A66573   2.712  33.424   5.055 -0.0973  0.0789  0.0814
35049POPC   C3A66574   2.751  33.498   5.511  0.0870 -0.2478  0.1524
35049POPC   C4A66575   3.010  33.809   5.714 -0.2421  0.1170 -0.1869
35049POPC   C1B66576   2.212  32.497   4.973  0.3099  0.0119 -0.2956
35049POPC   C2B66577   2.256  32.419   5.432  0.2933  0.3076  0.0312
35049POPC   C3B66578   2.122  32.109   5.751 -0.1432 -0.0563  0.0549
35049POPC   C4B66579   1.939  31.722   5.750  0.5625  0.3552 -0.0850
35050POPC   NC366580   9.089  17.106   5.574  0.1722  0.0268 -0.2077
35050POPC   PO466581   9.462  17.032   5.426  0.0926  0.5054 -0.1312
35050POPC   GL166582   9.512  17.003   5.843  0.0446  0.0750 -0.4874
35050POPC   GL266583   9.406  17.351   5.909 -0.0189 -0.0082 -0.0932
35050POPC   C1A66584   9.512  16.586   6.105 -0.0626  0.0743  0.2219
35050POPC   D2A66585   9.889  16.317   6.229 -0.2819  0.0030 -0.0072
35050POPC   C3A66586   9.835  15.939   6.433  0.2690  0.0091  0.0559
35050POPC   C4A66587   9.731  15.774   6.857 -0.1687  0.0059  0.5280
35050POPC   C1B66588   9.453  17.300   6.396 -0.1057  0.5506  0.2574
35050POPC   C2B66589   9.168  17.265   6.745  0.0080 -0.0505  0.3350
35050POPC   C3B66590   9.032  17.283   7.204  0.0517  0.0791  0.1152
35050POPC   C4B66591   8.866  16.952   7.463 -0.0810  0.0460  0.1167
35051POPC   NC366592  13.919  16.360   3.947 -0.0276  0.0137  0.0731
35051POPC   PO466593  14.212  16.596   4.044  0.1132  0.0889  0.2075
35051POPC   GL166594  14.047  16.445   4.393 -0.4786 -0.1065 -0.1286
35051POPC   GL266595  14.312  16.561   4.536 -0.1578 -0.0299  0.3608
35051POPC   C1A66596  13.893  16.258   4.810  0.0142 -0.1428  0.0216
35051POPC   D2A66597  13.614  15.935   4.958 -0.0736  0.0380 -0.1339
35051POPC   C3A66598  13.294  16.079   5.231 -0.1924 -0.1171  0.3164
35051POPC   C4A66599  12.898  16.429   5.148 -0.2333  0.2101  0.1296
35051POPC   C1B66600  14.402  16.440   4.961 -0.0119 -0.0855 -0.2062
35051POPC   C2B66601  14.151  16.248   5.264  0.1238  0.5540 -0.2590
35051POPC   C3B66602  13.782  16.006   5.411  0.1893 -0.2206 -0.1100
35051POPC   C4B66603  13.619  15.780   5.711  0.3152 -0.1714 -0.2205
35052POPC   NC366604   3.196  30.667   4.625  0.0858 -0.1416 -0.0506
35052POPC   PO466605   3.401  30.830   4.273  0.2870  0.0168 -0.4939
35052POPC   GL166606   3.311  31.108   4.583 -0.0082 -0.3427 -0.1271
35052POPC   GL266607   3.532  31.025   4.824 -0.0897  0.3209  0.1420
35052POPC   C1A66608   3.038  31.219   4.886  0.2193 -0.3502 -0.2196
35052POPC   D2A66609   2.920  31.293   5.330  0.1522 -0.1145  0.1262
35052POPC   C3A66610   2.897  31.271   5.776 -0.0218 -0.2561  0.0026
35052POPC   C4A66611   3.058  31.101   6.144  0.1009 -0.0528 -0.0865
35052POPC   C1B66612   4.018  31.130   4.926 -0.2077  0.2394  0.1865
35052POPC   C2B66613   4.213  31.404   5.203  0.1392  0.1544  0.0096
35052POPC   C3B66614   4.267  31.767   5.525 -0.0651  0.1600  0.0948
35052POPC   C4B66615   4.519  31.757   5.872  0.0581  0.1240 -0.0148
35053POPC   NC366616   3.987  24.003   5.141  0.0788  0.4204  0.1989
35053POPC   PO466617   4.010  23.983   5.507 -0.1520  0.5572  0.2857
35053POPC   GL166618   3.972  23.913   5.845 -0.1981 -0.2400 -0.0470
35053POPC   GL266619   3.745  23.685   5.840 -0.0112 -0.0675  0.1073
35053POPC   C1A66620   3.893  23.925   6.299 -0.1463 -0.0713  0.1135
35053POPC   D2A66621   3.724  24.072   6.722 -0.0675  0.1123  0.2297
35053POPC   C3A66622   3.265  23.888   6.933 -0.3307 -0.1431  0.1185
35053POPC   C4A66623   2.834  23.714   7.233 -0.1716  0.2358  0.1096
35053POPC   C1B66624   3.538  23.507   6.225  0.0630  0.2191  0.2914
35053POPC   C2B66625   3.612  23.540   6.648 -0.0126 -0.0504 -0.3576
35053POPC   C3B66626   3.636  23.463   7.090 -0.2048 -0.1489  0.0726
35053POPC   C4B66627   3.864  23.272   7.400  0.0352 -0.0152  0.2242
35054POPC   NC366628  15.579  29.423   4.250 -0.3401  0.0825 -0.2093
35054POPC   PO466629  15.918  29.309   4.143 -0.0321  0.0260 -0.0348
35054POPC   GL166630  15.957  29.338   4.528 -0.1865  0.1574  0.4689
35054POPC   GL266631  16.223  29.234   4.620 -0.1274  0.0659  0.1007
35054POPC   C1A66632  15.780  29.463   4.935 -0.1488  0.1016 -0.0455
35054POPC   D2A66633  15.843  29.560   5.402  0.3247 -0.1604  0.1401
35054POPC   C3A66634  15.891  29.835   5.735 -0.0024  0.1464 -0.1084
35054POPC   C4A66635  15.791  29.780   6.188 -0.0520 -0.0390 -0.2429
35054POPC   C1B66636  16.361  29.378   5.010 -0.0830  0.0678  0.1646
35054POPC   C2B66637  16.340  29.426   5.500 -0.0399  0.0711 -0.5027
35054POPC   C3B66638  16.153  29.466   5.896 -0.0261 -0.3180  0.0120
35054POPC   C4B66639  16.217  29.574   6.314  0.0665  0.1416 -0.1759
35055POPC   NC366640  12.949  23.524   5.915 -0.0068 -0.5005  0.2035
35055POPC   PO466641  13.311  23.496   5.953 -0.1422 -0.3779 -0.0319
35055POPC   GL166642  13.462  23.647   6.390 -0.2677  0.5282  0.4195
35055POPC   GL266643  13.660  23.891   6.343 -0.1853  0.0730 -0.0176
35055POPC   C1A66644  13.401  23.511   6.854 -0.0010 -0.0359  0.1842
35055POPC   D2A66645  13.460  23.656   7.348 -0.1948  0.0694 -0.0472
35055POPC   C3A66646  13.820  23.560   7.638  0.0751 -0.0166  0.1492
35055POPC   C4A66647  13.941  23.441   8.049  0.1956 -0.1868 -0.0028
35055POPC   C1B66648  13.842  23.793   6.748  0.2147 -0.1065  0.3153
35055POPC   C2B66649  13.897  23.895   7.195  0.3739  0.0831 -0.2058
35055POPC   C3B66650  13.958  24.122   7.575  0.1164 -0.2165  0.1792
35055POPC   C4B66651  13.903  24.480   7.895  0.0698 -0.3210 -0.2918
35056POPC   NC366652   1.822  30.826   3.685 -0.1443 -0.0259 -0.0191
35056POPC   PO466653   2.015  30.481   3.739  0.0121 -0.0471 -0.2438
35056POPC   GL166654   2.045  30.528   4.165  0.1106  0.1792 -0.1715
35056POPC   GL266655   2.226  30.432   4.353 -0.0377  0.0583  0.2640
35056POPC   C1A66656   1.899  30.684   4.612  0.2285  0.2715 -0.0776
35056POPC   D2A66657   1.931  30.668   5.074 -0.0408 -0.0389 -0.1848
35056POPC   C3A66658   2.089  30.233   5.249  0.4803 -0.2164 -0.0086
35056POPC   C4A66659   2.324  30.002   5.602  0.1367 -0.1537 -0.2972
35056POPC   C1B66660   1.935  30.224   4.634  0.0927  0.2137  0.0638
35056POPC   C2B66661   1.595  30.170   4.923  0.1082 -0.1074  0.2200
35056POPC   C3B66662   1.518  30.263   5.377  0.2377 -0.0142  0.0954
35056POPC   C4B66663   1.403  30.393   5.789  0.0602  0.0929 -0.1172
35057POPC   NC366664   6.787  21.966   7.781 -0.0552  0.3336 -0.2861
35057POPC   PO466665   7.079  21.803   7.558  0.1891  0.1756 -0.1294
35057POPC   GL166666   6.826  21.515   7.714  0.1623 -0.0051  0.0526
35057POPC   GL266667   6.933  21.231   7.790  0.3019 -0.3824  0.3319
35057POPC   C1A66668   6.420  21.488   7.836  0.0942  0.5257  0.0442
35057POPC   D2A66669   5.954  21.645   7.832  0.4287  0.3264 -0.0147
35057POPC   C3A66670   5.824  22.071   7.945 -0.2505  0.0406  0.1106
35057POPC   C4A66671   5.599  22.359   8.144  0.5165 -0.1240 -0.1086
35057POPC   C1B66672   6.837  21.505   8.145 -0.1120  0.1046  0.0629
35057POPC   C2B66673   6.763  21.775   8.551  0.0116  0.0979  0.1992
35057POPC   C3B66674   6.461  22.030   8.735  0.1557  0.1972  0.0955
35057POPC   C4B66675   6.234  22.429   8.802 -0.1480 -0.0866  0.2922
35058POPC   NC366676  12.563  27.780   5.186  0.0644 -0.3512 -0.3245
35058POPC   PO466677  12.823  27.519   5.350  0.1121  0.1574 -0.1391
35058POPC   GL166678  12.838  27.437   5.673  0.3341  0.3627  0.1536
35058POPC   GL266679  12.696  27.701   5.818 -0.2735 -0.0336 -0.2378
35058POPC   C1A66680  13.023  27.383   6.070  0.0017  0.1404  0.1150
35058POPC   D2A66681  13.238  27.558   6.388 -0.1630 -0.0074 -0.0312
35058POPC   C3A66682  13.366  27.935   6.635  0.3307  0.3028  0.3189
35058POPC   C4A66683  13.094  28.204   6.852 -0.1240  0.0378  0.1910
35058POPC   C1B66684  12.445  27.899   6.085 -0.1145  0.0166 -0.3152
35058POPC   C2B66685  12.390  28.066   6.532  0.1670  0.0674 -0.3035
35058POPC   C3B66686  12.514  28.059   6.929 -0.1384  0.2317 -0.1173
35058POPC   C4B66687  12.677  28.247   7.317 -0.2416  0.0839  0.4150
35059POPC   NC366688  11.566  25.613   6.585 -0.1033  0.0247 -0.1453
35059POPC   PO466689  11.870  25.851   6.453 -0.0442 -0.0161  0.2584
35059POPC   GL166690  11.949  25.878   6.751  0.0707  0.1492 -0.2476
35059POPC   GL266691  11.767  25.806   6.984 -0.2624 -0.0632 -0.1224
35059POPC   C1A66692  12.207  26.003   7.137  0.3733  0.2978 -0.0155
35059POPC   D2A66693  12.179  26.223   7.566 -0.0492 -0.3244 -0.0628
35059POPC   C3A66694  12.181  26.495   7.929  0.1385  0.3554  0.0510
35059POPC   C4A66695  12.469  26.554   8.221  0.1205  0.0376 -0.3002
35059POPC   C1B66696  11.734  25.866   7.452  0.0717  0.2345  0.1569
35059POPC   C2B66697  11.681  26.163   7.780 -0.0902 -0.1801  0.1924
35059POPC   C3B66698  11.725  26.168   8.190  0.2470 -0.1461 -0.1193
35059POPC   C4B66699  11.858  26.393   8.536 -0.3057  0.1926 -0.3295
35060POPC   NC366700   5.614  29.441   4.345 -0.2062  0.1859 -0.0112
35060POPC   PO466701   5.299  29.234   4.430  0.3569 -0.2767 -0.0075
35060POPC   GL166702   5.378  29.201   4.849 -0.0370  0.3300 -0.0242
35060POPC   GL266703   5.536  29.440   4.903 -0.3005 -0.0274 -0.3109
35060POPC   C1A66704   5.018  29.265   5.115  0.0374 -0.0848  0.1279
35060POPC   D2A66705   4.717  29.421   5.453 -0.2822  0.0679 -0.1605
35060POPC   C3A66706   4.347  29.264   5.304  0.0955 -0.3520 -0.2257
35060POPC   C4A66707   4.013  28.983   5.221  0.3709 -0.2781 -0.0807
35060POPC   C1B66708   5.563  29.913   5.147  0.2183 -0.0475 -0.4121
35060POPC   C2B66709   5.665  30.197   5.452 -0.0987  0.0462  0.0359
35060POPC   C3B66710   5.632  30.361   5.832  0.1075 -0.1112 -0.1172
35060POPC   C4B66711   5.697  30.533   6.227  0.1027 -0.0912 -0.1867
35061POPC   NC366712   2.901  18.915   5.011  0.0512 -0.0422  0.3134
35061POPC   PO466713   2.787  19.249   4.918 -0.1243  0.0497 -0.0852
35061POPC   GL166714   2.682  19.348   5.242  0.1239  0.0210 -0.1438
35061POPC   GL266715   2.901  19.199   5.418 -0.1404 -0.2061 -0.0953
35061POPC   C1A66716   2.346  19.472   5.554 -0.1283  0.1230 -0.1160
35061POPC   D2A66717   1.988  19.786   5.701  0.0551  0.3283 -0.1471
35061POPC   C3A66718   1.647  19.653   6.033  0.0008 -0.1000 -0.1719
35061POPC   C4A66719   1.508  19.543   6.472  0.3111 -0.2455 -0.1341
35061POPC   C1B66720   2.684  19.259   5.823  0.5710  0.1232 -0.0514
35061POPC   C2B66721   2.524  19.230   6.240 -0.0616 -0.0982 -0.1296
35061POPC   C3B66722   2.176  19.222   6.448  0.1379 -0.0726  0.0580
35061POPC   C4B66723   1.796  19.139   6.255  0.0903  0.1185 -0.0887
35062POPC   NC366724  13.706  25.504   5.658 -0.1711 -0.1839 -0.2400
35062POPC   PO466725  13.765  25.121   5.777 -0.0048 -0.1047  0.2266
35062POPC   GL166726  14.029  25.371   5.973 -0.2841 -0.0401  0.2116
35062POPC   GL266727  14.254  25.258   5.821 -0.0619 -0.0336  0.0910
35062POPC   C1A66728  13.877  25.626   6.304 -0.1582  0.0329  0.1699
35062POPC   D2A66729  13.752  26.064   6.403 -0.0632  0.3238  0.3849
35062POPC   C3A66730  13.631  26.342   6.704 -0.2255  0.1761 -0.4906
35062POPC   C4A66731  13.890  26.549   7.057 -0.0117 -0.1225  0.3417
35062POPC   C1B66732  14.319  25.312   6.319  0.1245 -0.2127 -0.4478
35062POPC   C2B66733  14.358  25.224   6.803  0.1850 -0.0737 -0.1109
35062POPC   C3B66734  14.446  24.925   7.179  0.4895 -0.1523 -0.2963
35062POPC   C4B66735  14.823  24.730   7.362 -0.0365  0.1031  0.2419
35063POPC   NC366736   5.605  27.706   4.491  0.1811  0.4871  0.1788
35063POPC   PO466737   5.576  27.380   4.723 -0.2620 -0.1925 -0.0814
35063POPC   GL166738   5.605  27.660   5.105  0.0555 -0.0637  0.0906
35063POPC   GL266739   5.730  27.617   5.317 -0.3836 -0.0537 -0.1355
35063POPC   C1A66740   5.244  27.552   5.373  0.2444 -0.0053 -0.1093
35063POPC   D2A66741   4.888  27.510   5.639 -0.0057  0.3028  0.1141
35063POPC   C3A66742   4.593  27.654   5.952 -0.3374 -0.2159  0.1918
35063POPC   C4A66743   4.465  27.893   6.302 -0.1817 -0.0917  0.0142
35063POPC   C1B66744   5.624  27.845   5.684  0.0739 -0.0727 -0.0627
35063POPC   C2B66745   5.364  27.704   6.004 -0.0357  0.2912  0.1319
35063POPC   C3B66746   5.022  27.564   6.175 -0.1036 -0.0571 -0.0468
35063POPC   C4B66747   4.742  27.516   6.576  0.2534  0.0411 -0.2761
35064POPC   NC366748  11.466  21.578   7.627 -0.2209  0.2901 -0.1241
35064POPC   PO466749  11.253  21.431   7.949  0.1218  0.1525 -0.0049
35064POPC   GL166750  11.407  21.396   8.382  0.1499  0.1538  0.1575
35064POPC   GL266751  11.324  21.162   8.381  0.0471  0.1506  0.2045
35064POPC   C1A66752  11.781  21.257   8.574 -0.1073  0.1819  0.0479
35064POPC   D2A66753  11.897  20.840   8.736  0.2194 -0.0742 -0.0657
35064POPC   C3A66754  12.237  20.908   9.055  0.2343 -0.1092  0.0868
35064POPC   C4A66755  12.263  20.585   9.368 -0.2040 -0.1749  0.1507
35064POPC   C1B66756  11.523  20.778   8.354  0.2289  0.3666  0.2303
35064POPC   C2B66757  11.457  20.341   8.637  0.0461  0.0179 -0.0117
35064POPC   C3B66758  11.501  19.931   8.848 -0.0939 -0.3259  0.2762
35064POPC   C4B66759  11.468  19.618   9.156  0.0109 -0.1666 -0.2713
35065POPC   NC366760  10.295  21.515  10.280  0.1193 -0.3379  0.4215
35065POPC   PO466761  10.616  21.602  10.512  0.0263 -0.1420  0.0353
35065POPC   GL166762  10.456  21.202  10.601  0.1828  0.3769  0.1122
35065POPC   GL266763  10.605  21.121  10.357  0.2300  0.1581  0.1289
35065POPC   C1A66764  10.820  20.879  10.695  0.3325  0.0994  0.0489
35065POPC   D2A66765  11.128  20.653  10.974  0.1452 -0.1706 -0.0331
35065POPC   C3A66766  11.577  20.521  11.070 -0.0861  0.1128  0.0700
35065POPC   C4A66767  12.000  20.711  11.151  0.2103 -0.0642  0.0361
35065POPC   C1B66768  10.672  20.634  10.259 -0.2269 -0.3790 -0.0507
35065POPC   C2B66769  10.567  20.224  10.316 -0.5298  0.1814 -0.0329
35065POPC   C3B66770  10.635  19.928  10.597  0.2882  0.1818  0.2250
35065POPC   C4B66771  10.589  19.800  10.997 -0.1108 -0.0008 -0.2500
35066POPC   NC366772  10.921  31.269   5.089  0.0722 -0.1135  0.0693
35066POPC   PO466773  10.715  31.039   4.872  0.0986  0.3154  0.1040
35066POPC   GL166774  10.623  30.873   5.105 -0.1892 -0.4366 -0.3665
35066POPC   GL266775  10.313  30.805   5.243  0.3069  0.1472 -0.1531
35066POPC   C1A66776  10.637  30.919   5.541 -0.0214 -0.1090  0.1843
35066POPC   D2A66777  10.467  30.893   6.019  0.1065 -0.0389  0.1715
35066POPC   C3A66778  10.226  30.801   6.394  0.0654  0.0569  0.2390
35066POPC   C4A66779  10.025  30.810   6.846 -0.1944 -0.1742  0.0628
35066POPC   C1B66780  10.055  30.639   5.553 -0.1046  0.4247  0.3397
35066POPC   C2B66781   9.864  30.732   5.959 -0.0201  0.1059 -0.1771
35066POPC   C3B66782   9.731  31.062   6.319 -0.0846  0.0074  0.0463
35066POPC   C4B66783   9.619  31.162   6.808  0.0937  0.3767  0.0951
35067POPC   NC366784   5.839  24.192   6.124 -0.1891  0.3029  0.1744
35067POPC   PO466785   6.190  24.071   5.961  0.0916  0.0001  0.1624
35067POPC   GL166786   6.232  24.358   6.268 -0.0091  0.0433 -0.3312
35067POPC   GL266787   6.234  24.618   6.143  0.0142 -0.0368  0.1915
35067POPC   C1A66788   5.919  24.538   6.596 -0.2282  0.1610 -0.0526
35067POPC   D2A66789   5.557  24.769   6.750 -0.1174 -0.0849  0.0869
35067POPC   C3A66790   5.321  24.971   7.080 -0.0275 -0.0600 -0.1057
35067POPC   C4A66791   5.005  25.258   7.308 -0.0671  0.1623 -0.3136
35067POPC   C1B66792   6.034  24.947   6.263  0.4536  0.1309 -0.0263
35067POPC   C2B66793   5.870  25.312   6.489 -0.2756 -0.0210 -0.0380
35067POPC   C3B66794   5.820  25.755   6.424 -0.2347  0.0920 -0.3089
35067POPC   C4B66795   5.541  26.119   6.420  0.0230  0.1942 -0.0461
35068POPC   NC366796   8.495  25.857   6.756  0.0209 -0.1022  0.0490
35068POPC   PO466797   8.455  25.483   6.884 -0.0677  0.0479 -0.1051
35068POPC   GL166798   8.280  25.505   7.241 -0.1421 -0.1291 -0.2033
35068POPC   GL266799   8.030  25.633   7.097 -0.1234 -0.1241 -0.0769
35068POPC   C1A66800   8.122  25.822   7.584 -0.1797 -0.2921  0.0289
35068POPC   D2A66801   8.261  26.236   7.764 -0.0047 -0.0390  0.0143
35068POPC   C3A66802   8.400  26.666   7.915 -0.1795  0.2335  0.0634
35068POPC   C4A66803   8.557  26.822   8.376  0.0718 -0.1427 -0.3790
35068POPC   C1B66804   7.705  25.738   7.374  0.0834 -0.0688  0.1164
35068POPC   C2B66805   7.266  25.847   7.448  0.0391 -0.3570 -0.1908
35068POPC   C3B66806   6.816  26.000   7.461  0.0857 -0.1624 -0.0656
35068POPC   C4B66807   6.353  26.106   7.504 -0.2830  0.1043 -0.0325
35069POPC   NC366808  10.789  27.791   5.145  0.0240  0.1384  0.4225
35069POPC   PO466809  10.573  28.057   5.331 -0.2413  0.1891 -0.0562
35069POPC   GL166810  10.756  28.294   5.657 -0.3682  0.3303 -0.3011
35069POPC   GL266811  10.510  28.347   5.768 -0.2364 -0.1134  0.3832
35069POPC   C1A66812  10.910  28.391   6.064 -0.2664  0.3584  0.0286
35069POPC   D2A66813  11.293  28.607   6.158  0.3180  0.2493 -0.1108
35069POPC   C3A66814  11.706  28.424   6.089 -0.0183  0.0509  0.0521
35069POPC   C4A66815  12.183  28.396   6.159 -0.0454 -0.2210 -0.2033
35069POPC   C1B66816  10.532  27.924   5.950 -0.0183  0.4445 -0.0588
35069POPC   C2B66817  10.880  27.805   6.251  0.0035 -0.0260 -0.1707
35069POPC   C3B66818  11.237  27.513   6.286  0.1246 -0.3854 -0.0050
35069POPC   C4B66819  11.505  27.232   6.522  0.2693 -0.0411  0.3439
35070POPC   NC366820  12.538  29.299   4.934 -0.2172 -0.0656  0.2670
35070POPC   PO466821  12.331  28.940   4.843 -0.0585  0.0183  0.2074
35070POPC   GL166822  12.142  29.083   5.133  0.1661  0.0560 -0.1513
35070POPC   GL266823  12.294  29.088   5.431 -0.0757 -0.0780  0.2007
35070POPC   C1A66824  12.035  29.505   5.254 -0.1593  0.0451 -0.1980
35070POPC   D2A66825  12.318  29.869   5.263 -0.3099 -0.2936  0.1628
35070POPC   C3A66826  12.701  29.943   5.452  0.2130 -0.0743 -0.2655
35070POPC   C4A66827  13.179  29.884   5.414  0.0612  0.1909  0.0694
35070POPC   C1B66828  12.193  28.968   5.881 -0.0765  0.0270  0.0710
35070POPC   C2B66829  12.301  29.038   6.325  0.0897 -0.2945 -0.3274
35070POPC   C3B66830  12.362  28.666   6.627  0.0542  0.1816  0.3695
35070POPC   C4B66831  12.174  28.461   7.013  0.1434 -0.1499  0.1456
35071POPC   NC366832  10.166  22.004  12.258 -0.1851 -0.0472  0.1707
35071POPC   PO466833   9.923  21.691  12.250 -0.3102  0.2412  0.1541
35071POPC   GL166834   9.841  21.287  12.510 -0.1979 -0.0247  0.1193
35071POPC   GL266835  10.114  21.350  12.702 -0.1777 -0.0013 -0.0826
35071POPC   C1A66836   9.883  20.852  12.635  0.0003  0.0609  0.0591
35071POPC   D2A66837   9.890  20.403  12.696 -0.1732  0.1476  0.0263
35071POPC   C3A66838  10.149  20.076  12.891  0.0718  0.1728  0.3581
35071POPC   C4A66839  10.421  19.667  12.960  0.0031 -0.2477  0.2844
35071POPC   C1B66840  10.347  20.941  12.873 -0.2851 -0.0567  0.3366
35071POPC   C2B66841  10.162  20.568  13.071 -0.0853  0.0372  0.0846
35071POPC   C3B66842   9.768  20.359  13.152 -0.0043  0.1503  0.0447
35071POPC   C4B66843   9.608  20.013  12.905 -0.1751  0.1716  0.3475
35072POPC   NC366844  15.366  23.772   5.459  0.0372 -0.0072  0.0933
35072POPC   PO466845  15.539  23.778   5.108  0.2778 -0.1925  0.0320
35072POPC   GL166846  15.945  23.612   5.267  0.0347 -0.3160  0.1055
35072POPC   GL266847  15.843  23.674   5.608 -0.0283  0.2012  0.1390
35072POPC   C1A66848  16.119  23.276   5.546 -0.0914 -0.3008  0.0946
35072POPC   D2A66849  16.201  22.967   5.811  0.2353  0.1153  0.0303
35072POPC   C3A66850  16.203  23.105   6.304 -0.1511 -0.2418 -0.0917
35072POPC   C4A66851  16.542  23.193   6.629 -0.1782  0.0027  0.0350
35072POPC   C1B66852  16.038  23.533   6.010  0.1031 -0.6524  0.1041
35072POPC   C2B66853  16.152  23.602   6.512  0.0618 -0.0210 -0.1489
35072POPC   C3B66854  16.093  23.339   6.886  0.2209 -0.0550 -0.0794
35072POPC   C4B66855  16.291  22.986   7.048  0.1803  0.0789 -0.1211
35073POPC   NC366856   3.524  27.883   3.911  0.0747  0.0502 -0.1015
35073POPC   PO466857   3.576  28.258   4.001  0.1681 -0.0794 -0.4638
35073POPC   GL166858   3.522  28.163   4.454 -0.2030  0.1925  0.2393
35073POPC   GL266859   3.714  27.956   4.504  0.1504 -0.1745  0.1163
35073POPC   C1A66860   3.205  27.916   4.633 -0.0215  0.1658  0.1264
35073POPC   D2A66861   2.966  27.706   4.984 -0.2226  0.0448  0.0816
35073POPC   C3A66862   2.796  27.809   5.429 -0.2095 -0.3995  0.1965
35073POPC   C4A66863   2.852  27.698   5.846 -0.0302 -0.0333 -0.0420
35073POPC   C1B66864   3.604  28.220   4.868  0.0104 -0.1221 -0.2202
35073POPC   C2B66865   3.727  28.502   5.285 -0.1831 -0.0784 -0.2156
35073POPC   C3B66866   3.602  28.904   5.470  0.5571 -0.0651  0.2142
35073POPC   C4B66867   3.531  29.163   5.805  0.0807  0.1833  0.1698
35074POPC   NC366868   4.250  19.538   5.484  0.2919  0.0867 -0.1552
35074POPC   PO466869   3.968  19.339   5.263 -0.1312 -0.0547 -0.0239
35074POPC   GL166870   3.899  19.175   5.565  0.0786  0.3365  0.2843
35074POPC   GL266871   3.820  18.905   5.536  0.0808  0.3011 -0.0777
35074POPC   C1A66872   4.110  19.141   5.935 -0.2122  0.1238  0.1525
35074POPC   D2A66873   4.268  19.224   6.322 -0.0665 -0.1109 -0.2770
35074POPC   C3A66874   4.208  18.977   6.746 -0.0731 -0.2338 -0.2522
35074POPC   C4A66875   4.350  18.601   6.958  0.0898 -0.3802  0.1832
35074POPC   C1B66876   3.809  18.734   6.024  0.0910  0.0298 -0.1385
35074POPC   C2B66877   3.741  19.026   6.387  0.0086  0.1912  0.1012
35074POPC   C3B66878   3.873  19.416   6.550  0.0386 -0.0200  0.0232
35074POPC   C4B66879   3.837  19.677   6.924 -0.1868  0.0983  0.1084
35075POPC   NC366880  13.668  26.026   5.911 -0.1263  0.2645 -0.3291
35075POPC   PO466881  13.349  25.779   5.888  0.0933  0.1726 -0.1380
35075POPC   GL166882  13.213  25.947   6.278  0.2497  0.2215  0.1501
35075POPC   GL266883  13.307  26.229   6.210 -0.2198  0.0314  0.1824
35075POPC   C1A66884  13.087  26.012   6.730  0.1884  0.2081  0.0637
35075POPC   D2A66885  13.228  25.706   7.034 -0.1381 -0.0956  0.0052
35075POPC   C3A66886  13.404  25.677   7.489 -0.3183 -0.1289 -0.0543
35075POPC   C4A66887  13.377  25.791   7.945  0.2398  0.1189 -0.1943
35075POPC   C1B66888  13.155  26.648   6.342 -0.1639  0.0063  0.0029
35075POPC   C2B66889  13.258  26.886   6.750  0.1184 -0.0700  0.1057
35075POPC   C3B66890  13.251  26.885   7.213  0.0020 -0.1690  0.2480
35075POPC   C4B66891  13.091  26.670   7.587 -0.1823  0.2938 -0.1001
35076POPC   NC366892  10.858  20.465   7.190 -0.1827  0.0108  0.1232
35076POPC   PO466893  10.946  20.076   7.270  0.1317  0.0584  0.2094
35076POPC   GL166894  11.200  19.863   7.328  0.2179  0.0754  0.2001
35076POPC   GL266895  11.509  19.842   7.156 -0.0794  0.0534  0.0184
35076POPC   C1A66896  11.377  19.509   7.611  0.1909  0.2900  0.1741
35076POPC   D2A66897  11.646  19.182   7.606  0.2052  0.1847  0.1061
35076POPC   C3A66898  11.467  18.899   7.966 -0.1856 -0.2309 -0.2456
35076POPC   C4A66899  11.037  18.691   8.054 -0.2220 -0.0652 -0.0723
35076POPC   C1B66900  11.718  19.442   7.154  0.2550 -0.1581  0.1936
35076POPC   C2B66901  12.019  19.138   7.299 -0.2069 -0.0934  0.0655
35076POPC   C3B66902  12.318  18.810   7.435 -0.2232 -0.1415  0.0194
35076POPC   C4B66903  12.709  18.788   7.172 -0.0415 -0.0980  0.3475
35077POPC   NC366904   6.437  29.157   4.533  0.2018  0.0087 -0.0164
35077POPC   PO466905   6.389  29.548   4.671  0.2523  0.1614 -0.0047
35077POPC   GL166906   6.291  29.751   4.994  0.0921  0.0672 -0.0098
35077POPC   GL266907   5.956  29.773   4.889 -0.1396 -0.0463  0.0613
35077POPC   C1A66908   6.423  30.030   5.354 -0.0511 -0.0054 -0.1276
35077POPC   D2A66909   6.579  30.204   5.705 -0.0216  0.0981  0.0925
35077POPC   C3A66910   6.499  30.092   6.115  0.1847  0.0774 -0.0113
35077POPC   C4A66911   6.246  30.167   6.493  0.0604  0.0539 -0.0694
35077POPC   C1B66912   5.972  29.776   5.334 -0.0646 -0.3378  0.0887
35077POPC   C2B66913   5.731  29.736   5.724 -0.3063 -0.1653 -0.3768
35077POPC   C3B66914   5.772  29.352   5.945  0.1301  0.0462  0.0764
35077POPC   C4B66915   5.854  29.264   6.390 -0.2609  0.2555 -0.0766
35078POPC   NC366916  14.031  25.526   5.272 -0.3243 -0.0288  0.1029
35078POPC   PO466917  14.006  25.901   5.482  0.1961  0.0069  0.1709
35078POPC   GL166918  14.313  25.705   5.719  0.0292  0.1826 -0.3398
35078POPC   GL266919  14.174  25.806   5.946  0.1043  0.0268 -0.1617
35078POPC   C1A66920  14.628  25.553   6.067 -0.1628  0.0039 -0.0055
35078POPC   D2A66921  14.761  25.474   6.534 -0.0640 -0.0081  0.2484
35078POPC   C3A66922  14.557  25.705   6.903  0.1166  0.0432  0.1076
35078POPC   C4A66923  14.344  25.968   7.238 -0.1749  0.1937 -0.1326
35078POPC   C1B66924  14.313  25.977   6.371 -0.1811  0.1173  0.2576
35078POPC   C2B66925  14.411  26.187   6.783 -0.0279  0.0240  0.3900
35078POPC   C3B66926  14.350  26.447   7.109 -0.0822 -0.1696 -0.0492
35078POPC   C4B66927  14.138  26.780   7.387 -0.1560  0.1991 -0.0058
35079POPC   NC366928   4.331  24.798   5.258 -0.0059 -0.1656  0.0706
35079POPC   PO466929   4.180  24.442   5.184  0.0285 -0.0723 -0.3104
35079POPC   GL166930   4.077  24.434   5.601 -0.3253  0.1485  0.0657
35079POPC   GL266931   4.228  24.592   5.705  0.0253  0.1520  0.0685
35079POPC   C1A66932   3.876  24.379   6.021 -0.1576 -0.2202  0.0102
35079POPC   D2A66933   3.545  24.342   6.335 -0.2578 -0.2256 -0.1025
35079POPC   C3A66934   3.122  24.289   6.121  0.1257 -0.2853  0.2806
35079POPC   C4A66935   2.847  24.300   5.778 -0.3756  0.2707  0.1538
35079POPC   C1B66936   4.348  24.491   6.158  0.0428 -0.1729  0.3666
35079POPC   C2B66937   3.982  24.501   6.501 -0.2814 -0.1064 -0.2768
35079POPC   C3B66938   3.941  24.584   6.943  0.0077  0.1094 -0.1681
35079POPC   C4B66939   4.279  24.790   7.144  0.1646 -0.0035 -0.0925
35080POPC   NC366940  14.469  17.656   4.420 -0.5510 -0.1684  0.1182
35080POPC   PO466941  14.167  17.434   4.344  0.1116 -0.0540  0.1413
35080POPC   GL166942  14.152  17.092   4.540 -0.2756  0.1964  0.0262
35080POPC   GL266943  13.978  16.937   4.351  0.2533 -0.0248  0.2965
35080POPC   C1A66944  14.367  16.991   4.884 -0.4975 -0.0043 -0.3835
35080POPC   D2A66945  14.739  16.871   5.086 -0.1177 -0.0849  0.4076
35080POPC   C3A66946  14.782  16.795   5.517  0.1305 -0.0150 -0.0692
35080POPC   C4A66947  14.896  16.523   5.833  0.0869  0.3209 -0.0376
35080POPC   C1B66948  13.867  16.778   4.739  0.0485 -0.0311 -0.1721
35080POPC   C2B66949  13.835  16.666   5.179  0.1512  0.2061 -0.1413
35080POPC   C3B66950  13.915  16.533   5.607  0.1267  0.0141  0.0536
35080POPC   C4B66951  13.948  16.167   5.896  0.0392  0.0230  0.3271
35081POPC   NC366952  14.806  20.160   5.052  0.2200  0.1279 -0.3185
35081POPC   PO466953  14.453  20.083   4.898  0.1788  0.2021  0.0022
35081POPC   GL166954  14.524  19.868   5.317  0.2610  0.0705 -0.2559
35081POPC   GL266955  14.299  19.931   5.492 -0.1350 -0.2045 -0.1054
35081POPC   C1A66956  14.813  19.532   5.454 -0.2159 -0.0265 -0.0651
35081POPC   D2A66957  15.261  19.593   5.583 -0.0757 -0.2517 -0.0434
35081POPC   C3A66958  15.234  19.579   6.050  0.1150 -0.0591  0.0061
35081POPC   C4A66959  15.449  19.344   6.427 -0.4416  0.0074  0.3619
35081POPC   C1B66960  14.304  19.870   5.972 -0.2168 -0.1809  0.2744
35081POPC   C2B66961  14.523  20.064   6.281  0.2208 -0.2924 -0.3899
35081POPC   C3B66962  14.669  19.862   6.709 -0.0818  0.1127 -0.1221
35081POPC   C4B66963  14.877  19.945   7.111  0.0496 -0.0488  0.0929
35082POPC   NC366964   6.027  22.950   5.790 -0.0878 -0.2571  0.1002
35082POPC   PO466965   5.712  23.224   5.891  0.2065 -0.0647 -0.2674
35082POPC   GL166966   5.510  23.308   6.269  0.2312 -0.0212 -0.0397
35082POPC   GL266967   5.331  23.565   6.234  0.0684 -0.1673  0.3498
35082POPC   C1A66968   5.431  23.361   6.746  0.1456 -0.1954  0.1720
35082POPC   D2A66969   4.984  23.497   6.861  0.4235 -0.0201 -0.0150
35082POPC   C3A66970   4.811  23.396   7.294 -0.0333 -0.1159  0.1650
35082POPC   C4A66971   4.564  23.166   7.607 -0.0768 -0.1173  0.0062
35082POPC   C1B66972   4.967  23.751   6.376  0.2100 -0.1012 -0.1769
35082POPC   C2B66973   4.957  24.008   6.778  0.0922 -0.1432 -0.2776
35082POPC   C3B66974   4.662  24.325   7.057 -0.0309 -0.0832  0.2963
35082POPC   C4B66975   4.534  24.357   7.515  0.3504 -0.1102  0.1126
35083POPC   NC366976   0.794  27.247   4.118 -0.2629 -0.2556  0.3137
35083POPC   PO466977   0.725  26.936   4.309  0.4627 -0.1345 -0.2098
35083POPC   GL166978   0.934  27.080   4.577  0.2697  0.0484 -0.2149
35083POPC   GL266979   0.882  27.346   4.642 -0.5152 -0.3078  0.0846
35083POPC   C1A66980   1.328  27.244   4.741 -0.4771 -0.2706 -0.3462
35083POPC   D2A66981   1.681  27.435   4.965 -0.0622  0.0020  0.1471
35083POPC   C3A66982   1.724  27.488   5.452 -0.0960  0.0138  0.0149
35083POPC   C4A66983   1.453  27.424   5.798  0.1103  0.1243  0.1685
35083POPC   C1B66984   0.936  27.603   5.018 -0.0560  0.1588 -0.1181
35083POPC   C2B66985   1.318  27.708   5.330  0.1026 -0.2850 -0.0743
35083POPC   C3B66986   1.529  27.955   5.599 -0.0486  0.0121  0.0421
35083POPC   C4B66987   1.495  28.377   5.683 -0.0588 -0.2969  0.0731
35084POPC   NC366988  15.775  20.514   5.059 -0.1479 -0.1472 -0.0533
35084POPC   PO466989  15.941  20.213   4.863 -0.4952 -0.2492  0.1855
35084POPC   GL166990  15.903  20.133   5.280  0.0057  0.3105 -0.0628
35084POPC   GL266991  15.661  19.959   5.302  0.1813 -0.0981  0.0074
35084POPC   C1A66992  15.888  20.408   5.621  0.0489  0.1461  0.2673
35084POPC   D2A66993  15.978  20.520   6.072 -0.0399 -0.1094 -0.0895
35084POPC   C3A66994  15.938  20.806   6.434 -0.0529  0.0232  0.0482
35084POPC   C4A66995  15.795  20.748   6.839  0.3823  0.1794 -0.0651
35084POPC   C1B66996  15.664  19.823   5.795  0.0160  0.0650 -0.0392
35084POPC   C2B66997  15.661  19.798   6.257 -0.3201  0.0906  0.0611
35084POPC   C3B66998  15.611  19.739   6.698 -0.2927  0.3617 -0.0182
35084POPC   C4B66999  15.949  19.863   7.026 -0.0268  0.0826  0.0725
35085POPC   NC367000  15.169  28.618   4.521 -0.0056  0.0703  0.0005
35085POPC   PO467001  15.448  28.359   4.425 -0.1224 -0.0538 -0.1886
35085POPC   GL167002  15.531  28.515   4.803  0.1409 -0.1312 -0.3070
35085POPC   GL267003  15.609  28.318   4.962 -0.2069 -0.2590  0.2003
35085POPC   C1A67004  15.550  28.918   5.004  0.1211 -0.0904 -0.2785
35085POPC   D2A67005  15.449  29.263   5.297 -0.0182 -0.1411  0.0978
35085POPC   C3A67006  15.465  29.212   5.724  0.1431 -0.0861 -0.1466
35085POPC   C4A67007  15.724  29.222   6.113  0.0760 -0.1204  0.3325
35085POPC   C1B67008  15.711  28.334   5.393  0.1327 -0.3539  0.0937
35085POPC   C2B67009  15.546  28.250   5.774  0.1659  0.2121  0.0913
35085POPC   C3B67010  15.288  28.220   6.203  0.1009 -0.1179 -0.0196
35085POPC   C4B67011  15.009  28.208   6.547 -0.0006 -0.1581  0.0744
35086POPC   NC367012   4.687   1.046   4.287  0.1567  0.1004  0.1685
35086POPC   PO467013   4.638   0.729   4.502  0.1014  0.1740  0.3700
35086POPC   GL167014   4.898   0.485   4.815 -0.0908 -0.0273 -0.3762
35086POPC   GL267015   4.869   0.661   4.982  0.2065  0.2708  0.5037
35086POPC   C1A67016   4.790   0.127   5.099 -0.3573 -0.1419 -0.0254
35086POPC   D2A67017   4.602   0.041   5.489  0.6172  0.1838  0.0819
35086POPC   C3A67018   4.532  -0.241   5.861 -0.0327  0.0639  0.1689
35086POPC   C4A67019   4.408  -0.327   6.308 -0.3540 -0.0296  0.0961
35086POPC   C1B67020   4.829   0.570   5.434  0.3138 -0.0309 -0.0118
35086POPC   C2B67021   4.807   0.554   5.921  0.0878 -0.0895  0.1654
35086POPC   C3B67022   4.714   0.660   6.395 -0.2889  0.2531 -0.1403
35086POPC   C4B67023   5.038   0.577   6.743 -0.2011  0.0070 -0.0149
35087POPC   NC367024  13.346  20.845   5.835  0.0346  0.0372  0.0718
35087POPC   PO467025  13.399  20.463   5.728 -0.1940 -0.2691 -0.0042
35087POPC   GL167026  13.464  20.212   6.049 -0.1527  0.2181  0.0758
35087POPC   GL267027  13.305  20.013   5.995 -0.1921  0.1334  0.5164
35087POPC   C1A67028  13.613  20.082   6.446  0.2193  0.0566 -0.1723
35087POPC   D2A67029  13.613  20.148   6.905 -0.1097 -0.3785 -0.0716
35087POPC   C3A67030  13.789  19.847   7.219  0.1519 -0.0880 -0.3044
35087POPC   C4A67031  14.036  19.719   7.556 -0.1396 -0.0391  0.1488
35087POPC   C1B67032  13.338  19.683   6.301  0.0307  0.1554  0.2991
35087POPC   C2B67033  13.517  19.685   6.721 -0.1559  0.0019  0.2242
35087POPC   C3B67034  13.408  19.517   7.155  0.2850  0.0766  0.3570
35087POPC   C4B67035  13.020  19.500   7.458 -0.1087 -0.2216  0.2132
35088POPC   NC367036   1.638  26.142   4.151 -0.1869  0.1228 -0.3099
35088POPC   PO467037   1.936  26.274   4.343 -0.1012  0.1482 -0.1987
35088POPC   GL167038   1.731  26.558   4.493  0.1957  0.3463  0.0936
35088POPC   GL267039   1.787  26.468   4.782  0.0070  0.1245 -0.0172
35088POPC   C1A67040   1.816  26.955   4.790  0.1440  0.2198 -0.2189
35088POPC   D2A67041   2.088  27.148   5.090  0.2490  0.0774 -0.2387
35088POPC   C3A67042   2.115  27.163   5.527 -0.2457 -0.0138 -0.0693
35088POPC   C4A67043   1.984  27.306   5.952  0.1072 -0.1251 -0.0250
35088POPC   C1B67044   2.020  26.652   5.173  0.0752  0.0454  0.3397
35088POPC   C2B67045   2.065  26.631   5.583 -0.0101  0.2974  0.0356
35088POPC   C3B67046   1.914  26.775   5.961 -0.1232  0.2347 -0.0832
35088POPC   C4B67047   1.773  27.072   6.311  0.0210 -0.1338  0.0972
35089POPC   NC367048  12.867  25.536   6.028 -0.1787  0.0860 -0.4114
35089POPC   PO467049  12.693  25.859   6.200 -0.0417  0.3310 -0.0709
35089POPC   GL167050  12.860  25.661   6.601  0.0130 -0.1714  0.1176
35089POPC   GL267051  13.096  25.524   6.585  0.0191  0.2047 -0.0058
35089POPC   C1A67052  12.808  25.481   7.009 -0.1434  0.0198 -0.0020
35089POPC   D2A67053  12.566  25.477   7.393 -0.1661 -0.1359 -0.0826
35089POPC   C3A67054  12.487  25.828   7.631 -0.0507 -0.4085  0.2293
35089POPC   C4A67055  12.633  26.274   7.748  0.2175 -0.0020  0.0613
35089POPC   C1B67056  13.528  25.764   6.695  0.3048  0.1212  0.2064
35089POPC   C2B67057  13.676  26.036   7.063 -0.1462  0.1515  0.2157
35089POPC   C3B67058  13.949  26.174   7.414 -0.0005 -0.0608 -0.0749
35089POPC   C4B67059  14.058  26.433   7.776  0.0502 -0.1372 -0.1880
35090POPC   NC367060   8.744  20.760   7.990  0.0422  0.1105 -0.0222
35090POPC   PO467061   8.700  20.512   8.245  0.1134 -0.1759  0.1164
35090POPC   GL167062   8.634  20.375   8.648 -0.1963  0.4677  0.2939
35090POPC   GL267063   8.414  20.208   8.562 -0.0357  0.2120  0.1480
35090POPC   C1A67064   8.807  19.999   8.827 -0.3176  0.2629  0.0137
35090POPC   D2A67065   8.773  19.778   9.216 -0.1716  0.0644 -0.0334
35090POPC   C3A67066   8.398  19.557   9.324  0.0271  0.0438  0.1291
35090POPC   C4A67067   7.949  19.680   9.522 -0.0486 -0.0287 -0.0433
35090POPC   C1B67068   7.984  20.066   8.512  0.0310 -0.0434  0.4232
35090POPC   C2B67069   7.646  19.691   8.488  0.0307  0.1977 -0.3033
35090POPC   C3B67070   7.520  19.403   8.839 -0.0127  0.0822  0.0740
35090POPC   C4B67071   7.244  19.015   8.988  0.0873 -0.1752  0.2755
35091POPC   NC367072   1.939  23.910   5.227  0.1571  0.3085  0.1216
35091POPC   PO467073   2.133  23.649   5.506 -0.0932  0.1488 -0.1780
35091POPC   GL167074   1.956  23.499   5.825 -0.0094 -0.1746  0.1509
35091POPC   GL267075   1.825  23.752   5.903  0.0584 -0.0281  0.3239
35091POPC   C1A67076   1.936  23.443   6.282 -0.0828  0.0998  0.0671
35091POPC   D2A67077   1.720  23.415   6.675  0.1648 -0.0328 -0.1092
35091POPC   C3A67078   1.715  23.560   7.112  0.1920  0.1964  0.4772
35091POPC   C4A67079   1.455  23.732   7.460  0.0784  0.1687  0.0426
35091POPC   C1B67080   1.683  23.918   6.280 -0.3214 -0.1089  0.2103
35091POPC   C2B67081   1.468  23.830   6.677  0.0922 -0.0081  0.1481
35091POPC   C3B67082   1.246  23.614   7.029 -0.0093  0.4601 -0.0358
35091POPC   C4B67083   1.214  23.323   7.384 -0.0037  0.0050 -0.1780
35092POPC   NC367084   6.260  20.049   6.372 -0.2412  0.0279 -0.0041
35092POPC   PO467085   6.160  19.715   6.327  0.3486  0.2146  0.0560
35092POPC   GL167086   6.277  19.457   6.664 -0.1481  0.0594  0.0077
35092POPC   GL267087   6.313  19.576   6.949 -0.0756  0.0304  0.2479
35092POPC   C1A67088   6.087  19.146   6.959  0.0332 -0.3797 -0.2018
35092POPC   D2A67089   6.192  19.054   7.398  0.1797 -0.5960  0.2021
35092POPC   C3A67090   6.424  18.684   7.565  0.1921 -0.0945  0.3826
35092POPC   C4A67091   6.261  18.466   7.929  0.0593 -0.0421  0.0042
35092POPC   C1B67092   6.583  19.193   7.053 -0.0742 -0.5511  0.0110
35092POPC   C2B67093   6.847  18.862   7.314  0.0729  0.0118 -0.1264
35092POPC   C3B67094   6.877  18.761   7.807  0.1210  0.1011  0.0876
35092POPC   C4B67095   6.646  18.733   8.188 -0.2642 -0.1034 -0.1041
35093POPC   NC367096   4.959  32.486   4.950  0.0422  0.0101 -0.2943
35093POPC   PO467097   4.949  32.421   4.540  0.2637  0.0328  0.2562
35093POPC   GL167098   4.554  32.407   4.696  0.6222 -0.3583 -0.1480
35093POPC   GL267099   4.588  32.126   4.825  0.1754  0.0606  0.0588
35093POPC   C1A67100   4.353  32.613   5.037  0.1800  0.1385 -0.0080
35093POPC   D2A67101   4.107  32.691   5.432 -0.0439  0.1127  0.1002
35093POPC   C3A67102   3.892  32.661   5.871 -0.1011 -0.0869  0.1324
35093POPC   C4A67103   3.847  32.293   6.095  0.0885 -0.0293 -0.3662
35093POPC   C1B67104   4.187  31.991   4.992  0.2706  0.0757 -0.0485
35093POPC   C2B67105   3.844  31.818   5.223  0.0699 -0.1297  0.3548
35093POPC   C3B67106   3.582  31.736   5.624 -0.1163 -0.1209 -0.0376
35093POPC   C4B67107   3.324  31.499   5.973 -0.0223  0.0802  0.1747
35094POPC   NC367108   6.796  29.822   4.973 -0.2109  0.0739 -0.0974
35094POPC   PO467109   7.014  30.123   4.916  0.1095  0.3026  0.0151
35094POPC   GL167110   6.895  30.113   5.365 -0.0596  0.0408 -0.3015
35094POPC   GL267111   7.018  30.357   5.524  0.1368 -0.0357  0.0871
35094POPC   C1A67112   6.776  29.733   5.566 -0.2739 -0.3069 -0.2592
35094POPC   D2A67113   6.539  29.324   5.794  0.0120 -0.0000 -0.1239
35094POPC   C3A67114   6.518  29.106   6.215  0.0008 -0.0706 -0.3162
35094POPC   C4A67115   6.298  28.783   6.378 -0.0435  0.2207  0.2992
35094POPC   C1B67116   7.001  30.040   5.902 -0.2394  0.0983 -0.1392
35094POPC   C2B67117   7.183  29.862   6.285 -0.1774  0.1843 -0.0427
35094POPC   C3B67118   7.173  29.587   6.659 -0.2215  0.1623  0.2023
35094POPC   C4B67119   7.209  29.114   6.755 -0.0039 -0.1177  0.4563
35095POPC   NC367120   9.848  32.714   4.980  0.0814  0.0942  0.0689
35095POPC   PO467121  10.166  32.885   5.144 -0.1035 -0.0179 -0.1267
35095POPC   GL167122  10.389  32.913   5.429 -0.0505  0.4077 -0.2346
35095POPC   GL267123  10.321  32.688   5.616 -0.2052  0.3094 -0.3708
35095POPC   C1A67124  10.791  32.697   5.459 -0.1510  0.0981  0.0201
35095POPC   D2A67125  11.108  32.456   5.615 -0.0812  0.0628  0.2467
35095POPC   C3A67126  11.520  32.591   5.788  0.1909  0.2655  0.0853
35095POPC   C4A67127  11.946  32.665   5.935 -0.1774  0.1994 -0.0575
35095POPC   C1B67128  10.030  32.435   5.907 -0.1357  0.2401 -0.1249
35095POPC   C2B67129   9.963  32.183   6.275  0.0085 -0.1382  0.1908
35095POPC   C3B67130   9.672  31.982   6.618  0.0550  0.0536  0.2366
35095POPC   C4B67131   9.367  31.590   6.577  0.1530 -0.4108  0.4491
35096POPC   NC367132   1.746  18.080   4.970 -0.1628 -0.0352  0.0481
35096POPC   PO467133   2.065  18.158   4.739 -0.0277 -0.2081 -0.3263
35096POPC   GL167134   2.345  18.062   4.954  0.2255 -0.1067  0.1845
35096POPC   GL267135   2.194  17.842   5.121 -0.2759  0.1190 -0.1046
35096POPC   C1A67136   2.281  18.175   5.455  0.3595 -0.1393 -0.3466
35096POPC   D2A67137   2.327  18.381   5.878  0.2675 -0.3731  0.1244
35096POPC   C3A67138   2.540  18.285   6.255 -0.2142  0.0081  0.0155
35096POPC   C4A67139   2.484  18.006   6.632  0.2085  0.4433  0.0745
35096POPC   C1B67140   2.182  17.699   5.593 -0.0696  0.1523  0.1288
35096POPC   C2B67141   2.140  17.625   6.063 -0.4417 -0.4531  0.0556
35096POPC   C3B67142   2.063  17.758   6.513  0.1796 -0.1849  0.3875
35096POPC   C4B67143   2.179  17.764   6.920  0.2486  0.0251  0.1355
35097POPC   NC367144   8.916  19.712   6.664  0.1473 -0.2564  0.2229
35097POPC   PO467145   9.161  19.427   6.595  0.0830 -0.2817 -0.0519
35097POPC   GL167146   9.001  19.171   6.873  0.0596  0.1309 -0.0938
35097POPC   GL267147   8.958  18.877   6.869  0.2509 -0.2478  0.0051
35097POPC   C1A67148   9.239  19.098   7.210 -0.1663  0.0213  0.0842
35097POPC   D2A67149   9.621  18.993   7.444  0.1188 -0.0170  0.0168
35097POPC   C3A67150   9.493  19.038   7.927 -0.2924  0.0853 -0.0028
35097POPC   C4A67151   9.280  18.900   8.300  0.0816  0.1535  0.0907
35097POPC   C1B67152   9.278  18.605   7.028  0.0246  0.1649  0.0848
35097POPC   C2B67153   9.503  18.250   6.925  0.0656 -0.0940 -0.1473
35097POPC   C3B67154   9.708  17.960   7.208 -0.1357  0.1987 -0.2408
35097POPC   C4B67155   9.863  17.639   7.498 -0.0336  0.2120  0.0055
35098POPC   NC367156   0.234  22.224   5.147  0.0537  0.0256  0.1542
35098POPC   PO467157   0.505  21.978   5.016 -0.1662  0.1879 -0.2401
35098POPC   GL167158   0.822  22.138   5.223 -0.0849 -0.1576 -0.3337
35098POPC   GL267159   0.697  22.390   5.332 -0.3696  0.1556  0.4215
35098POPC   C1A67160   1.130  22.163   5.623  0.0374 -0.2203  0.0975
35098POPC   D2A67161   1.287  22.068   6.114 -0.0400  0.0009  0.1868
35098POPC   C3A67162   1.070  22.102   6.509 -0.1066 -0.2250 -0.0327
35098POPC   C4A67163   0.774  22.016   6.881  0.1732 -0.4129  0.0175
35098POPC   C1B67164   0.706  22.416   5.775 -0.4797 -0.2372  0.0148
35098POPC   C2B67165   0.670  22.337   6.207  0.1379 -0.0099 -0.0677
35098POPC   C3B67166   0.678  22.414   6.605 -0.0836  0.4456 -0.0693
35098POPC   C4B67167   0.852  22.590   6.965  0.1758 -0.0121 -0.2280
35099POPC   NC367168  11.059  20.916   8.036 -0.1180  0.1516  0.1699
35099POPC   PO467169  10.821  21.037   8.297  0.0040  0.0121  0.0937
35099POPC   GL167170  11.037  20.709   8.585 -0.0002 -0.1767 -0.0638
35099POPC   GL267171  10.988  20.905   8.784 -0.1862 -0.2829  0.2065
35099POPC   C1A67172  11.311  20.603   9.010 -0.1769  0.0144 -0.0212
35099POPC   D2A67173  11.723  20.331   9.048 -0.0628  0.0607  0.0175
35099POPC   C3A67174  11.490  20.097   9.348  0.1601  0.0569 -0.2479
35099POPC   C4A67175  11.125  19.858   9.407  0.2035  0.4254  0.3007
35099POPC   C1B67176  11.389  21.091   8.925 -0.0955  0.0709 -0.2312
35099POPC   C2B67177  11.759  21.052   9.221 -0.5695  0.2882 -0.4213
35099POPC   C3B67178  11.989  20.918   9.639 -0.0555 -0.0760 -0.1230
35099POPC   C4B67179  12.325  20.696   9.856 -0.0902 -0.1116  0.0122
35100POPC   NC367180   7.788  22.850   8.387  0.0866  0.4411  0.0584
35100POPC   PO467181   7.399  22.884   8.308  0.1219  0.3270  0.2008
35100POPC   GL167182   7.034  22.897   8.343  0.0397  0.2501 -0.2265
35100POPC   GL267183   6.972  22.659   8.334 -0.0545  0.1543  0.0215
35100POPC   C1A67184   6.720  23.144   8.655  0.1289  0.1440 -0.1343
35100POPC   D2A67185   6.481  23.469   8.923 -0.1046  0.1564  0.0736
35100POPC   C3A67186   6.105  23.582   9.058  0.2500  0.0784 -0.2353
35100POPC   C4A67187   5.742  23.647   9.317 -0.2271 -0.0915  0.1037
35100POPC   C1B67188   6.727  22.529   8.739 -0.0701  0.3039  0.0957
35100POPC   C2B67189   6.612  22.377   9.142 -0.1287 -0.1749 -0.2470
35100POPC   C3B67190   6.821  22.319   9.486 -0.0528  0.2733  0.1097
35100POPC   C4B67191   6.897  22.262   9.957  0.0436 -0.2153 -0.2813
35101POPC   NC367192  15.001  31.168   3.869  0.4243 -0.2065 -0.1526
35101POPC   PO467193  15.334  31.111   4.115  0.2892 -0.1786 -0.0723
35101POPC   GL167194  15.365  31.002   4.591 -0.0892 -0.2748  0.0489
35101POPC   GL267195  15.652  31.178   4.594 -0.1577 -0.0159 -0.0313
35101POPC   C1A67196  15.201  30.880   5.038  0.2741  0.0763  0.1002
35101POPC   D2A67197  15.127  30.610   5.378  0.1356 -0.0893  0.1111
35101POPC   C3A67198  15.318  30.434   5.779 -0.0710 -0.2761 -0.0359
35101POPC   C4A67199  15.484  30.102   6.008  0.1713 -0.1005  0.2120
35101POPC   C1B67200  15.771  31.024   5.029  0.2938  0.0033 -0.0601
35101POPC   C2B67201  15.569  30.882   5.394 -0.2327  0.0693  0.0918
35101POPC   C3B67202  15.837  30.760   5.738 -0.0018 -0.4091  0.0585
35101POPC   C4B67203  15.613  30.714   6.111 -0.0931  0.2435  0.0883
35102POPC   NC367204   8.454  27.401   5.775 -0.0002  0.2611 -0.1978
35102POPC   PO467205   8.079  27.421   5.822 -0.2370 -0.2400  0.1941
35102POPC   GL167206   8.186  27.503   6.194 -0.0406  0.1063  0.0543
35102POPC   GL267207   8.234  27.791   6.118  0.0502 -0.2915  0.0925
35102POPC   C1A67208   8.183  27.314   6.623  0.2935  0.2026  0.1291
35102POPC   D2A67209   8.098  27.263   7.057 -0.2517 -0.1777  0.0967
35102POPC   C3A67210   8.301  27.533   7.326 -0.1409  0.0588  0.2630
35102POPC   C4A67211   8.389  27.697   7.745  0.4516 -0.1268  0.2915
35102POPC   C1B67212   8.170  28.069   6.473  0.0068 -0.0649 -0.0321
35102POPC   C2B67213   7.861  28.138   6.780  0.1043 -0.1255  0.0612
35102POPC   C3B67214   7.686  28.370   7.103  0.0791 -0.3232  0.4543
35102POPC   C4B67215   7.389  28.588   7.401 -0.1588 -0.1280  0.1434
35103POPC   NC367216  32.037  27.157   4.599  0.1908 -0.2150  0.0203
35103POPC   PO467217  32.399  27.190   4.609 -0.3350 -0.1290  0.0846
35103POPC   GL167218  32.659  27.195   4.979 -0.3178  0.1249 -0.0337
35103POPC   GL267219  32.928  27.052   4.968 -0.0028 -0.4877 -0.0760
35103POPC   C1A67220  32.800  27.234   5.388  0.2017  0.4434 -0.2081
35103POPC   D2A67221  32.757  27.229   5.858  0.1831 -0.0464  0.0360
35103POPC   C3A67222  32.412  27.538   6.060 -0.0085  0.3657  0.0391
35103POPC   C4A67223  31.951  27.721   6.055 -0.0813 -0.3083 -0.1533
35103POPC   C1B67224  33.283  27.315   5.150  0.1911 -0.0542  0.1140
35103POPC   C2B67225  33.485  27.620   5.409  0.0769 -0.1222 -0.0813
35103POPC   C3B67226  33.369  28.018   5.655 -0.2927 -0.0267 -0.1333
35103POPC   C4B67227  33.261  28.160   6.104 -0.3742  0.1569 -0.1645
35104POPC   NC367228   5.205  23.137   5.927 -0.0850  0.4658  0.1750
35104POPC   PO467229   5.367  22.809   6.091  0.2225  0.2258  0.1113
35104POPC   GL167230   5.310  22.816   6.496  0.0181 -0.1427 -0.2687
35104POPC   GL267231   5.570  22.886   6.609 -0.0122 -0.1128 -0.3637
35104POPC   C1A67232   4.862  22.796   6.705 -0.0763  0.1117 -0.0393
35104POPC   D2A67233   4.675  22.973   7.086  0.3026  0.2563  0.3847
35104POPC   C3A67234   4.559  22.726   7.477 -0.1718  0.1419  0.0731
35104POPC   C4A67235   4.716  22.417   7.745  0.2720 -0.1031 -0.0626
35104POPC   C1B67236   5.383  22.940   7.023  0.1004  0.1182  0.0584
35104POPC   C2B67237   5.060  22.935   7.358  0.1592 -0.3252  0.0901
35104POPC   C3B67238   4.932  22.957   7.826 -0.3359  0.0370  0.2514
35104POPC   C4B67239   4.987  23.206   8.188  0.3237  0.2292  0.1600
35105POPC   NC367240   8.607  23.052  10.979 -0.1928  0.1782 -0.0370
35105POPC   PO467241   8.914  23.122  11.223  0.0524 -0.0997 -0.1091
35105POPC   GL167242   8.589  23.203  11.474  0.0621  0.3112 -0.1719
35105POPC   GL267243   8.679  23.441  11.602 -0.4132  0.2650 -0.1136
35105POPC   C1A67244   8.235  23.470  11.340 -0.0870  0.1241  0.1711
35105POPC   D2A67245   7.884  23.718  11.155 -0.0986 -0.2945  0.1433
35105POPC   C3A67246   7.490  23.929  11.407 -0.0071 -0.2447 -0.2734
35105POPC   C4A67247   7.399  24.275  11.623  0.0218 -0.2308 -0.1219
35105POPC   C1B67248   8.527  23.827  11.619 -0.0365 -0.3157 -0.1319
35105POPC   C2B67249   8.289  23.996  11.282 -0.1240  0.3060  0.1328
35105POPC   C3B67250   7.910  24.252  11.252 -0.3964 -0.3579 -0.1492
35105POPC   C4B67251   7.737  24.485  10.974  0.1193 -0.1895  0.2124
35106POPC   NC367252  15.007  25.781   5.062 -0.1720  0.1600  0.0622
35106POPC   PO467253  15.066  26.132   5.167  0.0057 -0.1876 -0.3582
35106POPC   GL167254  15.223  26.321   5.499  0.0185 -0.2191 -0.2142
35106POPC   GL267255  15.483  26.334   5.616 -0.0082  0.1322  0.1716
35106POPC   C1A67256  15.073  26.364   5.921  0.2130  0.0887 -0.0909
35106POPC   D2A67257  15.069  26.501   6.379  0.1794  0.2003  0.0956
35106POPC   C3A67258  15.267  26.865   6.550  0.0698 -0.3225 -0.1500
35106POPC   C4A67259  15.175  27.349   6.450  0.3373 -0.1578 -0.3359
35106POPC   C1B67260  15.541  26.195   6.066 -0.0797 -0.2815 -0.2419
35106POPC   C2B67261  15.674  26.283   6.495  0.0047 -0.1852  0.0094
35106POPC   C3B67262  16.086  26.246   6.656  0.1397  0.4219 -0.0296
35106POPC   C4B67263  16.242  26.269   7.103  0.0719 -0.1009  0.0429
35107POPC   NC367264   7.105  16.140   4.963  0.0877  0.0399 -0.2351
35107POPC   PO467265   7.325  16.482   5.053 -0.2162  0.0803 -0.0797
35107POPC   GL167266   7.077  16.517   5.429 -0.0261  0.0056 -0.1722
35107POPC   GL267267   7.037  16.832   5.421  0.2331 -0.1244 -0.0946
35107POPC   C1A67268   6.609  16.512   5.517 -0.0633 -0.0597 -0.1042
35107POPC   D2A67269   6.179  16.535   5.463  0.0770 -0.1584  0.3821
35107POPC   C3A67270   5.814  16.395   5.794 -0.0701  0.0942  0.0728
35107POPC   C4A67271   5.590  16.253   6.127 -0.1956  0.4393  0.2183
35107POPC   C1B67272   6.957  16.695   5.856  0.3301  0.0501 -0.2129
35107POPC   C2B67273   6.940  16.688   6.292 -0.1391  0.1025 -0.0642
35107POPC   C3B67274   7.282  16.651   6.614  0.1973  0.0249 -0.3766
35107POPC   C4B67275   7.539  16.869   6.946 -0.1049 -0.1256  0.1189
35108POPC   NC367276  10.301  21.068   8.015  0.0034 -0.3344 -0.0841
35108POPC   PO467277  10.198  20.690   8.158 -0.2186 -0.1466  0.2930
35108POPC   GL167278  10.168  20.394   8.243 -0.0482 -0.0853  0.1894
35108POPC   GL267279  10.160  20.445   8.592 -0.3180  0.0193 -0.0909
35108POPC   C1A67280  10.394  19.989   8.364 -0.3357  0.0629 -0.0226
35108POPC   D2A67281  10.823  19.879   8.306 -0.1117  0.2103 -0.0003
35108POPC   C3A67282  10.951  20.118   8.631 -0.1460  0.1009  0.1149
35108POPC   C4A67283  10.778  20.114   9.076  0.2682 -0.1041 -0.4453
35108POPC   C1B67284   9.832  20.117   8.569 -0.1701 -0.0116 -0.1810
35108POPC   C2B67285   9.761  19.712   8.773  0.3758 -0.0960  0.0924
35108POPC   C3B67286  10.076  19.443   8.962 -0.1080  0.0680  0.0071
35108POPC   C4B67287  10.146  19.395   9.456  0.0081  0.0617 -0.2584
35109POPC   NC367288   5.458  19.318   5.449 -0.0272  0.1873 -0.2639
35109POPC   PO467289   5.705  19.210   5.734 -0.0478  0.2050 -0.2432
35109POPC   GL167290   5.448  19.148   6.003 -0.1747 -0.1200 -0.1788
35109POPC   GL267291   5.569  18.880   6.139  0.1109  0.0370 -0.0245
35109POPC   C1A67292   5.081  19.015   6.215  0.4204 -0.0134 -0.0932
35109POPC   D2A67293   4.724  18.943   6.483  0.0937  0.1079  0.0115
35109POPC   C3A67294   4.888  18.589   6.712  0.0925 -0.1454 -0.1037
35109POPC   C4A67295   4.796  18.179   6.922  0.0392  0.1590  0.0033
35109POPC   C1B67296   5.358  18.789   6.559 -0.1007 -0.1838  0.2336
35109POPC   C2B67297   5.306  18.824   7.004 -0.7349  0.2811  0.2752
35109POPC   C3B67298   5.384  18.671   7.481 -0.0169  0.1445 -0.0305
35109POPC   C4B67299   5.301  18.896   7.861 -0.0906 -0.0032  0.1464
35110POPC   NC367300   7.069  19.855   6.426 -0.1496  0.3304  0.0855
35110POPC   PO467301   7.149  20.098   6.738  0.1096 -0.2106  0.1396
35110POPC   GL167302   7.053  19.834   6.908  0.2445 -0.3307  0.4939
35110POPC   GL267303   6.936  19.566   6.842  0.0382  0.1303 -0.1318
35110POPC   C1A67304   7.159  19.771   7.339  0.4215  0.0440 -0.0808
35110POPC   D2A67305   7.379  19.806   7.771  0.5020  0.2643 -0.0649
35110POPC   C3A67306   7.230  19.661   8.175  0.0685  0.0928  0.0561
35110POPC   C4A67307   7.167  19.372   8.543 -0.1187 -0.1479 -0.3080
35110POPC   C1B67308   6.728  19.716   7.210  0.2131 -0.1341 -0.2485
35110POPC   C2B67309   6.424  19.492   7.438 -0.0327  0.0819  0.0239
35110POPC   C3B67310   6.377  19.633   7.857  0.1554  0.0673 -0.2052
35110POPC   C4B67311   6.380  19.875   8.259  0.4082  0.0021 -0.0808
35111POPC   NC367312   7.809  28.993   5.349  0.2082  0.2566  0.2253
35111POPC   PO467313   7.502  28.780   5.285  0.2586 -0.0630  0.0523
35111POPC   GL167314   7.317  29.073   5.507  0.2100  0.1117  0.0580
35111POPC   GL267315   7.368  29.331   5.570  0.1289 -0.0216 -0.0394
35111POPC   C1A67316   7.348  29.001   5.963 -0.3135  0.4783  0.2238
35111POPC   D2A67317   7.341  28.710   6.298 -0.2606 -0.2654  0.0870
35111POPC   C3A67318   7.625  28.840   6.639 -0.0079  0.1113 -0.2767
35111POPC   C4A67319   7.814  29.070   7.003 -0.3966 -0.0995  0.0571
35111POPC   C1B67320   7.111  29.438   5.916  0.1258 -0.3036  0.0824
35111POPC   C2B67321   6.743  29.598   6.160  0.1249  0.0323 -0.2607
35111POPC   C3B67322   6.665  29.722   6.654 -0.2420  0.0956  0.1368
35111POPC   C4B67323   6.240  29.855   6.882 -0.3114  0.0504  0.1490
35112POPC   NC367324  14.451  27.162   5.193  0.3066  0.3646 -0.2198
35112POPC   PO467325  14.831  27.038   5.294  0.0229  0.0331  0.2365
35112POPC   GL167326  14.877  27.274   5.567  0.1307  0.0780 -0.0006
35112POPC   GL267327  14.712  27.528   5.450  0.3115  0.0281  0.1456
35112POPC   C1A67328  14.957  27.471   5.977 -0.0428 -0.1939 -0.1303
35112POPC   D2A67329  14.863  27.786   6.309 -0.0833 -0.1374 -0.1332
35112POPC   C3A67330  14.748  27.447   6.623 -0.0293  0.0727  0.0442
35112POPC   C4A67331  14.989  27.119   6.882 -0.1874  0.1239  0.2201
35112POPC   C1B67332  14.617  27.816   5.853  0.1325 -0.1694 -0.0246
35112POPC   C2B67333  14.698  28.252   6.104 -0.3332  0.1036  0.1936
35112POPC   C3B67334  14.862  28.667   6.323  0.1435 -0.2062 -0.0553
35112POPC   C4B67335  14.778  29.037   6.577 -0.0746 -0.0171  0.0645
35113POPC   NC367336  12.432  32.507   4.591 -0.2298  0.0121 -0.0744
35113POPC   PO467337  12.504  32.186   4.413 -0.2761 -0.0399 -0.0030
35113POPC   GL167338  12.565  31.962   4.748  0.2028  0.0857 -0.2984
35113POPC   GL267339  12.452  32.188   5.004  0.0474 -0.0866  0.5489
35113POPC   C1A67340  12.752  31.767   5.147  0.1094 -0.0055 -0.1900
35113POPC   D2A67341  12.859  31.642   5.546  0.0241  0.0490  0.0711
35113POPC   C3A67342  12.819  31.935   5.882  0.3826  0.1941  0.0229
35113POPC   C4A67343  12.808  32.177   6.263  0.1523  0.0932 -0.1551
35113POPC   C1B67344  12.466  32.088   5.444 -0.3485 -0.0562  0.1775
35113POPC   C2B67345  12.378  32.323   5.766  0.1073  0.1697 -0.1328
35113POPC   C3B67346  12.417  32.466   6.208  0.1937 -0.1508  0.2559
35113POPC   C4B67347  12.609  32.506   6.633 -0.1878  0.2488  0.1885
35114POPC   NC367348   4.628  20.450   5.288 -0.2461  0.2043 -0.2104
35114POPC   PO467349   4.279  20.540   5.448  0.3544  0.0928 -0.1884
35114POPC   GL167350   4.158  20.687   5.853  0.1067  0.2063 -0.0197
35114POPC   GL267351   3.857  20.766   5.739 -0.3972 -0.0107  0.1890
35114POPC   C1A67352   4.294  20.544   6.280 -0.1802  0.1392 -0.1432
35114POPC   D2A67353   4.385  20.623   6.741 -0.1164 -0.2519  0.1324
35114POPC   C3A67354   4.220  20.519   7.144 -0.1450  0.0868  0.1827
35114POPC   C4A67355   4.418  20.624   7.559  0.1080 -0.0057  0.1023
35114POPC   C1B67356   3.811  20.671   6.195 -0.1599 -0.0649 -0.1260
35114POPC   C2B67357   3.879  20.810   6.618  0.0808  0.0105  0.0137
35114POPC   C3B67358   3.863  20.792   7.057  0.2351 -0.1598 -0.1572
35114POPC   C4B67359   3.849  20.760   7.511  0.3012  0.3834 -0.3813
35115POPC   NC367360  15.008  18.228   4.903  0.3145  0.0698  0.1143
35115POPC   PO467361  14.992  18.624   4.954 -0.0977 -0.3379 -0.2409
35115POPC   GL167362  14.879  18.571   5.381  0.1318 -0.3283  0.3725
35115POPC   GL267363  15.126  18.497   5.483 -0.2211 -0.3483 -0.1374
35115POPC   C1A67364  14.881  18.801   5.840 -0.1222 -0.0284 -0.0092
35115POPC   D2A67365  14.589  18.899   6.185 -0.0347  0.2731  0.1671
35115POPC   C3A67366  14.586  18.682   6.568 -0.2654 -0.3077  0.2088
35115POPC   C4A67367  14.163  18.539   6.610 -0.6737 -0.0530 -0.2083
35115POPC   C1B67368  15.215  18.184   5.825  0.0998 -0.2392 -0.1122
35115POPC   C2B67369  15.324  18.044   6.249 -0.0077  0.1444  0.2623
35115POPC   C3B67370  15.725  17.881   6.460 -0.1567  0.2359  0.2228
35115POPC   C4B67371  16.037  17.742   6.818 -0.1405 -0.0669  0.0020
35116POPC   NC367372  11.093  23.044   9.920 -0.0131 -0.0939 -0.0620
35116POPC   PO467373  10.707  23.225   9.930 -0.1633  0.1096  0.1678
35116POPC   GL167374  10.900  23.496  10.008 -0.1714  0.2395 -0.1906
35116POPC   GL267375  10.963  23.730  10.108 -0.1499 -0.1121 -0.0617
35116POPC   C1A67376  11.324  23.696   9.844 -0.1450  0.3721  0.1325
35116POPC   D2A67377  11.745  23.797   9.956 -0.2513 -0.2305 -0.1587
35116POPC   C3A67378  11.955  24.273   9.988 -0.0695 -0.0120 -0.1198
35116POPC   C4A67379  12.103  24.696   9.834  0.0399 -0.0909  0.1685
35116POPC   C1B67380  11.003  23.997  10.459  0.2382  0.2298  0.0878
35116POPC   C2B67381  10.868  24.160  10.908 -0.2484  0.2256 -0.0142
35116POPC   C3B67382  10.767  24.482  11.166  0.1770 -0.2332  0.2182
35116POPC   C4B67383  10.921  24.868  11.386  0.1155 -0.3561  0.3727
35117POPC   NC367384  11.900  24.311   6.721  0.1695 -0.1224 -0.0082
35117POPC   PO467385  12.160  24.008   6.737  0.1404  0.0792 -0.0999
35117POPC   GL167386  12.350  24.250   6.963  0.0761  0.2731 -0.1646
35117POPC   GL267387  12.595  24.152   7.115 -0.0251  0.1045 -0.1464
35117POPC   C1A67388  12.351  24.476   7.397 -0.0125 -0.0449 -0.0448
35117POPC   D2A67389  12.400  24.526   7.890 -0.3291  0.1579 -0.2529
35117POPC   C3A67390  12.482  24.935   8.048 -0.0155  0.3154 -0.2293
35117POPC   C4A67391  12.511  25.179   8.507 -0.5415 -0.0391 -0.1060
35117POPC   C1B67392  12.671  24.588   7.050 -0.1417 -0.1127  0.0958
35117POPC   C2B67393  12.623  24.872   7.402 -0.0670  0.1264 -0.1221
35117POPC   C3B67394  12.871  25.019   7.744 -0.0266  0.1304  0.0019
35117POPC   C4B67395  13.316  25.221   7.840  0.2247  0.2313  0.2381
35118POPC   NC367396  13.101  21.504   6.421 -0.1520 -0.4523 -0.1452
35118POPC   PO467397  13.318  21.347   6.131  0.1148  0.0136  0.3682
35118POPC   GL167398  13.273  20.978   6.329 -0.2039 -0.5118 -0.0594
35118POPC   GL267399  13.421  20.682   6.416 -0.0833 -0.1555 -0.0773
35118POPC   C1A67400  13.421  20.955   6.784 -0.0019  0.0543  0.3888
35118POPC   D2A67401  13.666  21.106   7.145  0.2667 -0.0665 -0.0587
35118POPC   C3A67402  13.929  21.003   7.519 -0.1173 -0.1368 -0.0809
35118POPC   C4A67403  13.933  21.018   7.979  0.3251 -0.1081  0.0718
35118POPC   C1B67404  13.810  20.599   6.696 -0.0521  0.1621  0.1812
35118POPC   C2B67405  13.987  20.646   7.113  0.2363  0.1830  0.2048
35118POPC   C3B67406  14.017  20.488   7.522 -0.0779  0.3136  0.0297
35118POPC   C4B67407  14.301  20.555   7.869  0.2149  0.0232 -0.4413
35119POPC   NC367408   8.704  24.560   7.914 -0.1416  0.3456 -0.0621
35119POPC   PO467409   8.800  24.376   8.228  0.0774 -0.1075  0.0893
35119POPC   GL167410   8.670  24.403   8.644 -0.3255 -0.0764 -0.0074
35119POPC   GL267411   8.492  24.662   8.597 -0.1053  0.0648 -0.0051
35119POPC   C1A67412   8.784  24.723   8.993 -0.2056  0.0571 -0.0204
35119POPC   D2A67413   8.659  24.951   9.392  0.0289 -0.0596  0.0422
35119POPC   C3A67414   8.326  24.882   9.673 -0.3495  0.1163 -0.0366
35119POPC   C4A67415   8.146  25.021  10.086 -0.1636 -0.1152 -0.0477
35119POPC   C1B67416   8.239  24.983   8.841  0.2900 -0.2299  0.2924
35119POPC   C2B67417   8.281  25.285   9.220  0.0861  0.1331 -0.1073
35119POPC   C3B67418   8.579  25.576   9.367  0.3982 -0.0065 -0.1011
35119POPC   C4B67419   9.025  25.621   9.385 -0.1116  0.0270 -0.0610
35120POPC   NC367420   8.188  24.414   7.106  0.2413 -0.3985  0.2326
35120POPC   PO467421   8.121  24.209   7.487 -0.1215 -0.0487  0.3452
35120POPC   GL167422   8.239  24.514   7.689 -0.0138  0.0389 -0.0299
35120POPC   GL267423   8.350  24.768   7.521  0.6062 -0.2811  0.0941
35120POPC   C1A67424   7.854  24.718   7.815  0.1042  0.2640  0.3440
35120POPC   D2A67425   7.398  24.893   7.913  0.0958 -0.1548 -0.0887
35120POPC   C3A67426   7.050  24.829   8.218 -0.1005 -0.1751 -0.0684
35120POPC   C4A67427   6.686  24.847   8.542  0.1084 -0.0106 -0.0649
35120POPC   C1B67428   7.959  25.072   7.467 -0.0384  0.1320 -0.0152
35120POPC   C2B67429   7.838  25.373   7.734 -0.0077  0.1608 -0.1095
35120POPC   C3B67430   7.644  25.766   7.861  0.0734 -0.0001 -0.0193
35120POPC   C4B67431   7.378  25.952   8.218  0.3242  0.1659 -0.2943
35121POPC   NC367432   9.659  19.576   6.513  0.1384 -0.1912 -0.0585
35121POPC   PO467433   9.491  19.755   6.820  0.1689 -0.0431 -0.3066
35121POPC   GL167434   9.472  19.430   6.992  0.3560 -0.3084 -0.0975
35121POPC   GL267435   9.632  19.457   7.241  0.3058  0.0981  0.4068
35121POPC   C1A67436   9.737  19.059   6.918 -0.0260 -0.0524  0.0862
35121POPC   D2A67437   9.972  18.738   7.093  0.1170 -0.1683  0.0115
35121POPC   C3A67438   9.810  18.550   7.461 -0.1253 -0.0797  0.0165
35121POPC   C4A67439   9.811  18.358   7.887  0.0036  0.3958  0.0973
35121POPC   C1B67440   9.874  19.434   7.635 -0.3766 -0.0111 -0.0888
35121POPC   C2B67441  10.045  19.244   8.011 -0.0504  0.0717 -0.2737
35121POPC   C3B67442   9.838  18.909   8.276 -0.0602 -0.2128  0.1232
35121POPC   C4B67443   9.804  18.488   8.432  0.1184  0.3053 -0.3096
35122POPC   NC367444   3.720  17.794   4.603 -0.0186 -0.0567  0.4413
35122POPC   PO467445   3.903  17.821   4.909 -0.3191  0.0385 -0.1331
35122POPC   GL167446   3.937  17.748   5.249 -0.1484 -0.0645  0.0386
35122POPC   GL267447   3.752  17.827   5.502 -0.1683 -0.0307  0.1289
35122POPC   C1A67448   4.220  17.453   5.424  0.0917 -0.0304  0.1189
35122POPC   D2A67449   4.630  17.349   5.621 -0.2515 -0.0717 -0.2945
35122POPC   C3A67450   4.847  17.095   5.975 -0.1325  0.0527 -0.0574
35122POPC   C4A67451   4.831  16.754   6.212  0.1731 -0.2267  0.2195
35122POPC   C1B67452   3.470  17.914   5.844  0.0690  0.1983  0.1598
35122POPC   C2B67453   3.427  18.009   6.281 -0.0247  0.4643  0.0957
35122POPC   C3B67454   3.411  18.170   6.733  0.1620 -0.0159 -0.1023
35122POPC   C4B67455   3.734  18.188   7.148 -0.3665 -0.4523 -0.1226
35123POPC   NC367456  11.721   1.368   5.102 -0.2130  0.5242 -0.0639
35123POPC   PO467457  11.885   1.718   5.100  0.4336 -0.0252  0.1476
35123POPC   GL167458  11.938   1.688   5.509  0.0831 -0.2613  0.1935
35123POPC   GL267459  11.729   1.860   5.548  0.3037  0.0133  0.1008
35123POPC   C1A67460  12.052   1.932   5.883 -0.1483 -0.0074 -0.1632
35123POPC   D2A67461  12.365   2.089   6.266  0.2290 -0.2509 -0.0701
35123POPC   C3A67462  12.201   2.036   6.697 -0.1104 -0.0273 -0.1673
35123POPC   C4A67463  11.965   1.969   7.097  0.2405  0.2182  0.0268
35123POPC   C1B67464  11.629   1.599   5.961 -0.1772 -0.0211  0.0644
35123POPC   C2B67465  11.755   1.274   6.262  0.0517  0.1377  0.2785
35123POPC   C3B67466  11.403   0.992   6.425  0.0908  0.1794 -0.2142
35123POPC   C4B67467  11.345   0.755   6.830 -0.0297  0.3632  0.0909
35124POPC   NC367468  17.173  22.943   4.675  0.0387 -0.1627 -0.1259
35124POPC   PO467469  16.967  23.257   4.621 -0.2704  0.1318 -0.0592
35124POPC   GL167470  16.952  23.181   5.079 -0.0312  0.0692  0.3523
35124POPC   GL267471  17.248  23.142   5.258 -0.0119 -0.3832  0.1760
35124POPC   C1A67472  16.791  22.948   5.413  0.1093  0.0993 -0.2351
35124POPC   D2A67473  16.820  22.955   5.869 -0.1627  0.0585 -0.0187
35124POPC   C3A67474  16.508  22.755   6.149  0.2298  0.0838  0.3378
35124POPC   C4A67475  16.424  22.684   6.587  0.0688 -0.1436 -0.0999
35124POPC   C1B67476  17.278  22.986   5.669  0.1329  0.1100  0.1203
35124POPC   C2B67477  17.412  23.149   6.036 -0.0352  0.0712  0.2584
35124POPC   C3B67478  17.433  23.273   6.468  0.1191 -0.2187 -0.3029
35124POPC   C4B67479  17.193  23.232   6.906  0.0520 -0.0938  0.0059
35125POPC   NC367480   4.385  29.270   4.531 -0.0191  0.1552 -0.2172
35125POPC   PO467481   4.466  28.965   4.266  0.0591 -0.1768 -0.0449
35125POPC   GL167482   4.262  28.791   4.624 -0.1724  0.4455 -0.1845
35125POPC   GL267483   4.372  28.873   4.876  0.4366  0.0939 -0.1404
35125POPC   C1A67484   3.937  28.570   4.841 -0.3530  0.1562  0.3941
35125POPC   D2A67485   4.078  28.174   5.035  0.0615  0.0501  0.1831
35125POPC   C3A67486   3.846  28.051   5.384  0.2315 -0.2536  0.2486
35125POPC   C4A67487   3.847  28.286   5.771 -0.1439 -0.1362  0.0979
35125POPC   C1B67488   4.674  28.844   5.246 -0.2711 -0.1647  0.0265
35125POPC   C2B67489   4.534  28.926   5.702 -0.2504  0.0251  0.2446
35125POPC   C3B67490   4.277  28.981   6.059  0.1553 -0.0251 -0.0532
35125POPC   C4B67491   4.141  28.768   6.440  0.0763 -0.0126  0.0870
35126POPC   NC367492   3.084  28.383   4.252  0.1740 -0.1251  0.2106
35126POPC   PO467493   3.267  28.678   3.997  0.2273  0.1155 -0.6001
35126POPC   GL167494   3.269  28.814   4.382 -0.0568 -0.1243 -0.2864
35126POPC   GL267495   3.432  28.607   4.514  0.3147 -0.2881 -0.0524
35126POPC   C1A67496   3.005  28.616   4.741  0.2407  0.2247 -0.1252
35126POPC   D2A67497   2.850  28.323   4.985 -0.1066  0.2160  0.1280
35126POPC   C3A67498   2.895  28.363   5.462 -0.0045  0.3475  0.0993
35126POPC   C4A67499   2.999  28.248   5.892 -0.3981  0.1603  0.0280
35126POPC   C1B67500   3.521  28.875   4.903  0.0901 -0.2550 -0.2786
35126POPC   C2B67501   3.421  29.321   5.119 -0.0822 -0.0429  0.0741
35126POPC   C3B67502   3.288  29.531   5.547  0.2021  0.1550  0.0534
35126POPC   C4B67503   3.018  29.370   5.901  0.0187 -0.2361  0.2980
35127POPC   NC367504   7.861  19.557   6.230 -0.2008  0.0737 -0.1315
35127POPC   PO467505   7.705  19.599   6.601  0.2358  0.3690 -0.2096
35127POPC   GL167506   7.740  19.367   6.973  0.4599  0.2144  0.4401
35127POPC   GL267507   7.446  19.457   6.993  0.0161 -0.0161 -0.5059
35127POPC   C1A67508   7.982  19.022   7.153 -0.0368 -0.0523 -0.2553
35127POPC   D2A67509   8.379  19.011   7.364  0.2991 -0.0972 -0.3717
35127POPC   C3A67510   8.489  19.024   7.815 -0.0132  0.0139 -0.0339
35127POPC   C4A67511   8.795  18.958   8.173 -0.1908 -0.0376  0.1026
35127POPC   C1B67512   7.054  19.319   7.218 -0.4397 -0.3233 -0.4238
35127POPC   C2B67513   6.786  19.218   7.610  0.1487 -0.1554 -0.1801
35127POPC   C3B67514   6.450  19.046   7.886  0.0019  0.3764  0.0579
35127POPC   C4B67515   6.107  18.913   8.070  0.2473 -0.2101  0.0323
35128POPC   NC367516   2.479  24.757   4.857 -0.1179 -0.0972 -0.0531
35128POPC   PO467517   2.317  25.110   4.903  0.1241  0.0776  0.0014
35128POPC   GL167518   2.291  25.307   5.270 -0.3783 -0.4841  0.2547
35128POPC   GL267519   2.205  25.104   5.416  0.0823 -0.2834  0.2480
35128POPC   C1A67520   2.584  25.435   5.580 -0.5323 -0.0848  0.4689
35128POPC   D2A67521   2.513  25.850   5.797  0.4355  0.1345  0.0442
35128POPC   C3A67522   2.440  25.923   6.276 -0.0103 -0.0944  0.1753
35128POPC   C4A67523   2.518  26.178   6.668  0.0255 -0.0262  0.4033
35128POPC   C1B67524   2.241  25.003   5.873  0.3014 -0.0360  0.1397
35128POPC   C2B67525   1.903  25.021   6.153 -0.1016  0.1201 -0.0049
35128POPC   C3B67526   1.843  25.112   6.594  0.1329  0.2201  0.2548
35128POPC   C4B67527   2.140  25.066   6.957  0.2208 -0.0816 -0.2918
35129POPC   NC367528  16.434  23.708   5.360  0.1429  0.1397  0.0787
35129POPC   PO467529  16.242  23.947   5.111 -0.0402  0.1105 -0.3696
35129POPC   GL167530  16.141  24.018   5.578  0.2294  0.2537  0.0859
35129POPC   GL267531  16.344  23.922   5.743  0.2021  0.2515  0.2192
35129POPC   C1A67532  16.105  24.330   5.936 -0.0579  0.0895  0.1361
35129POPC   D2A67533  16.367  24.574   6.202 -0.1126 -0.3606 -0.0438
35129POPC   C3A67534  16.299  24.853   6.532 -0.1674 -0.2106  0.1599
35129POPC   C4A67535  16.329  24.990   6.981  0.1988  0.1554 -0.0962
35129POPC   C1B67536  16.587  24.359   5.702  0.0837 -0.0416 -0.2695
35129POPC   C2B67537  16.786  24.659   5.991  0.1734 -0.2134  0.0435
35129POPC   C3B67538  16.942  24.643   6.406  0.1551  0.1767  0.0349
35129POPC   C4B67539  16.975  24.523   6.874 -0.0763  0.0474 -0.0017
35130POPC   NC367540  10.673  23.711   9.651  0.0053 -0.0366 -0.0316
35130POPC   PO467541  10.343  23.621   9.882 -0.2038  0.0640 -0.2174
35130POPC   GL167542  10.484  23.992  10.067 -0.0423  0.2809  0.2896
35130POPC   GL267543  10.254  24.103  10.060 -0.1668 -0.0308  0.2135
35130POPC   C1A67544  10.847  24.286  10.105 -0.3376 -0.1552 -0.0713
35130POPC   D2A67545  11.005  24.729   9.956 -0.0119  0.3977  0.0007
35130POPC   C3A67546  11.245  25.080  10.209  0.1158 -0.1206  0.1242
35130POPC   C4A67547  11.402  25.469  10.221 -0.2985  0.1132 -0.1836
35130POPC   C1B67548  10.452  24.551  10.033  0.1132 -0.2496 -0.2275
35130POPC   C2B67549  10.620  24.916  10.211 -0.1545 -0.1813  0.2487
35130POPC   C3B67550  10.793  25.020  10.618 -0.1154 -0.1050  0.2545
35130POPC   C4B67551  11.092  25.100  10.945  0.2456 -0.2007  0.3650
35131POPC   NC367552   7.642  22.401   9.413  0.1206  0.1600 -0.2116
35131POPC   PO467553   7.906  22.186   9.370 -0.1143 -0.0351  0.1170
35131POPC   GL167554   7.809  21.932   9.572  0.3576 -0.1483 -0.5227
35131POPC   GL267555   7.568  22.005   9.774  0.1885  0.0735 -0.0928
35131POPC   C1A67556   7.561  21.541   9.540 -0.0623  0.2148  0.2270
35131POPC   D2A67557   7.352  21.149   9.588  0.0552 -0.0464  0.0126
35131POPC   C3A67558   6.961  21.353   9.755  0.0780  0.1301  0.1212
35131POPC   C4A67559   6.559  21.324   9.957  0.3542 -0.0494 -0.1070
35131POPC   C1B67560   7.327  21.694  10.004  0.0183 -0.1455  0.0899
35131POPC   C2B67561   7.044  21.551  10.294 -0.0364 -0.1597  0.0912
35131POPC   C3B67562   6.666  21.291  10.427  0.1740  0.1770  0.0230
35131POPC   C4B67563   6.352  21.375  10.785  0.0190 -0.1618  0.1969
35132POPC   NC367564  10.123  19.589   7.223 -0.2701  0.1721 -0.1796
35132POPC   PO467565  10.355  19.511   6.893 -0.2387 -0.1567  0.0217
35132POPC   GL167566  10.559  19.398   7.170  0.0822  0.3542  0.2836
35132POPC   GL267567  10.698  19.130   7.095  0.0447  0.0769  0.1578
35132POPC   C1A67568  10.397  19.390   7.613  0.0529 -0.1192 -0.1968
35132POPC   D2A67569  10.519  19.674   7.926  0.0153 -0.2489  0.0341
35132POPC   C3A67570  10.594  19.447   8.282  0.0630  0.1514  0.1123
35132POPC   C4A67571  10.933  19.254   8.530  0.0227  0.3075 -0.2785
35132POPC   C1B67572  10.566  18.663   7.115 -0.0069 -0.0139  0.1308
35132POPC   C2B67573  10.301  18.369   7.349  0.0663  0.1212  0.2782
35132POPC   C3B67574  10.329  17.887   7.532 -0.0764 -0.0458 -0.0053
35132POPC   C4B67575  10.643  17.683   7.231  0.2113  0.2776  0.0978
35133POPC   NC367576   3.824  25.978   4.832 -0.0722 -0.1188 -0.3118
35133POPC   PO467577   4.063  25.648   4.902 -0.2022 -0.1793 -0.1401
35133POPC   GL167578   4.213  25.542   5.358  0.0460  0.2325  0.1820
35133POPC   GL267579   4.248  25.780   5.480  0.1693  0.1246 -0.1482
35133POPC   C1A67580   4.237  25.152   5.584  0.4404 -0.2064  0.0401
35133POPC   D2A67581   3.962  24.994   5.882  0.0956  0.2584 -0.2078
35133POPC   C3A67582   3.805  25.296   6.194 -0.3940  0.3047 -0.3673
35133POPC   C4A67583   3.888  25.676   6.412 -0.0099 -0.2419 -0.0417
35133POPC   C1B67584   3.995  25.587   5.800 -0.2018  0.0164 -0.0597
35133POPC   C2B67585   3.565  25.681   5.966 -0.0602  0.1339 -0.2150
35133POPC   C3B67586   3.295  25.706   6.312  0.3122 -0.0739 -0.1176
35133POPC   C4B67587   3.225  25.925   6.678  0.0819  0.3665  0.0307
35134POPC   NC367588   6.294  26.900   5.040  0.3461 -0.1115 -0.0223
35134POPC   PO467589   6.386  27.300   4.977 -0.1831  0.4221  0.0810
35134POPC   GL167590   6.316  27.190   5.379 -0.0205 -0.0547 -0.1456
35134POPC   GL267591   6.191  27.448   5.529  0.1208  0.2172 -0.0644
35134POPC   C1A67592   6.402  27.041   5.799  0.0682  0.3491 -0.0858
35134POPC   D2A67593   6.779  27.022   6.100  0.1361 -0.3188 -0.1485
35134POPC   C3A67594   6.817  27.369   6.377  0.3379 -0.2925 -0.1115
35134POPC   C4A67595   6.865  27.689   6.798  0.2792 -0.1105 -0.0035
35134POPC   C1B67596   6.097  27.773   5.736 -0.0045  0.1077  0.0814
35134POPC   C2B67597   5.890  27.853   6.185  0.3705  0.1824  0.3538
35134POPC   C3B67598   5.569  27.765   6.497 -0.2273  0.0370 -0.0191
35134POPC   C4B67599   5.304  27.620   6.850  0.0437  0.0565  0.1732
35135POPC   NC367600  11.887  23.552   7.886  0.2643 -0.2725  0.2405
35135POPC   PO467601  11.503  23.488   8.022 -0.1427 -0.2502  0.0085
35135POPC   GL167602  11.713  23.223   8.323  0.0616  0.2591 -0.2135
35135POPC   GL267603  11.604  22.977   8.475  0.0440  0.0954 -0.2943
35135POPC   C1A67604  11.930  23.342   8.742  0.1153  0.1110  0.1332
35135POPC   D2A67605  12.176  23.371   9.123  0.0719  0.1042 -0.3103
35135POPC   C3A67606  12.377  23.710   9.376 -0.1416 -0.4765  0.0166
35135POPC   C4A67607  12.645  23.838   9.750 -0.2418  0.0645  0.3182
35135POPC   C1B67608  11.706  22.923   8.934 -0.1337  0.5926 -0.0364
35135POPC   C2B67609  11.884  23.018   9.360  0.1089  0.2025  0.0546
35135POPC   C3B67610  12.258  23.165   9.556  0.0300  0.1380  0.1819
35135POPC   C4B67611  12.622  23.381   9.687  0.2116  0.2502 -0.2219
35136POPC   NC367612  10.185  32.229   4.805 -0.2342 -0.2035 -0.1008
35136POPC   PO467613   9.799  32.210   4.849 -0.3009  0.0789 -0.0243
35136POPC   GL167614   9.835  32.073   5.239  0.1248  0.0405 -0.0003
35136POPC   GL267615  10.015  32.270   5.365  0.0689 -0.2539  0.0286
35136POPC   C1A67616  10.028  31.712   5.472  0.0827  0.0032 -0.3925
35136POPC   D2A67617  10.360  31.562   5.713  0.2787 -0.1141 -0.1067
35136POPC   C3A67618  10.394  31.880   6.088  0.0976  0.0997 -0.2504
35136POPC   C4A67619  10.409  32.263   6.400  0.0326  0.2877 -0.2442
35136POPC   C1B67620  10.372  32.188   5.652  0.0359 -0.1692 -0.2090
35136POPC   C2B67621  10.539  32.454   6.009 -0.0484 -0.2209  0.2881
35136POPC   C3B67622  10.572  32.725   6.378 -0.0782 -0.2997 -0.0210
35136POPC   C4B67623  10.469  32.627   6.830 -0.1070  0.5036  0.0495
35137POPC   NC367624   6.338  15.993   4.669 -0.0359 -0.0516 -0.1774
35137POPC   PO467625   6.669  16.172   4.689 -0.2895 -0.4169  0.1710
35137POPC   GL167626   6.651  15.989   5.081  0.2612  0.3991 -0.0177
35137POPC   GL267627   6.488  15.694   5.035 -0.2055 -0.1746 -0.0013
35137POPC   C1A67628   6.889  16.086   5.468  0.0862 -0.1516  0.1363
35137POPC   D2A67629   6.761  15.991   5.907 -0.3811 -0.0194 -0.2208
35137POPC   C3A67630   6.597  16.078   6.314 -0.0866  0.1313  0.1804
35137POPC   C4A67631   6.315  15.887   6.607 -0.3083  0.0385 -0.3695
35137POPC   C1B67632   6.493  15.681   5.486  0.2652 -0.0196 -0.0662
35137POPC   C2B67633   6.572  15.488   5.864  0.2034  0.2620  0.0589
35137POPC   C3B67634   6.622  15.392   6.322 -0.2147  0.0068 -0.1100
35137POPC   C4B67635   6.626  15.501   6.807  0.2814  0.2295  0.0497
35138POPC   NC367636  12.390  19.523   5.708  0.1288  0.0875 -0.0962
35138POPC   PO467637  12.622  19.268   5.646  0.1430 -0.1922  0.1616
35138POPC   GL167638  12.613  19.150   5.946 -0.2495 -0.2055 -0.1114
35138POPC   GL267639  12.362  19.133   6.098 -0.1870  0.1025  0.2356
35138POPC   C1A67640  12.722  18.758   6.169 -0.0944 -0.0170  0.0994
35138POPC   D2A67641  12.859  18.319   6.007  0.0480 -0.0046 -0.0928
35138POPC   C3A67642  13.326  18.151   6.074 -0.2130 -0.1836 -0.2040
35138POPC   C4A67643  13.844  18.059   6.021 -0.3614 -0.0319  0.1040
35138POPC   C1B67644  12.191  18.828   6.377 -0.0468  0.1079  0.0771
35138POPC   C2B67645  12.330  18.516   6.687 -0.0810 -0.2504  0.3503
35138POPC   C3B67646  12.553  18.268   7.015  0.0653  0.2326 -0.0037
35138POPC   C4B67647  12.578  18.349   7.450  0.1121 -0.1255  0.1417
35139POPC   NC367648   0.415  17.683   4.956  0.0342  0.1002 -0.0531
35139POPC   PO467649   0.325  17.934   4.689  0.0918 -0.3598  0.1152
35139POPC   GL167650   0.424  18.114   5.086 -0.1685 -0.0065  0.0955
35139POPC   GL267651   0.215  17.988   5.278  0.2700 -0.1676 -0.1076
35139POPC   C1A67652   0.651  18.042   5.506  0.5048  0.3245  0.0230
35139POPC   D2A67653   0.962  18.117   5.855 -0.1599 -0.1201  0.1056
35139POPC   C3A67654   0.928  17.651   5.960 -0.0096  0.0889  0.1055
35139POPC   C4A67655   0.753  17.255   5.942 -0.3567  0.2810 -0.0355
35139POPC   C1B67656   0.168  17.966   5.699 -0.1196  0.3802  0.0058
35139POPC   C2B67657  -0.109  17.626   5.853  0.1398 -0.1298 -0.2956
35139POPC   C3B67658  -0.319  17.259   6.029 -0.0565 -0.0431  0.0829
35139POPC   C4B67659  -0.608  16.918   5.948  0.0854  0.0250 -0.0284
35140POPC   NC367660   8.501  22.975  10.161 -0.1262  0.0966 -0.5311
35140POPC   PO467661   8.307  22.810   9.880 -0.0751 -0.0592 -0.1592
35140POPC   GL167662   8.097  23.111   9.975 -0.0005  0.1145  0.3927
35140POPC   GL267663   7.938  22.993  10.234 -0.2295  0.0638 -0.3387
35140POPC   C1A67664   7.781  23.434  10.041 -0.0863 -0.0320 -0.0004
35140POPC   D2A67665   7.544  23.755  10.282  0.0390  0.0493  0.0205
35140POPC   C3A67666   7.071  23.848  10.133  0.2616 -0.1813  0.3324
35140POPC   C4A67667   6.664  23.934  10.237  0.0372 -0.4940 -0.1093
35140POPC   C1B67668   7.662  22.763  10.514 -0.2511 -0.2007 -0.0749
35140POPC   C2B67669   7.345  22.536  10.823 -0.1227  0.3050  0.0603
35140POPC   C3B67670   6.891  22.681  10.795 -0.0323 -0.1007 -0.1116
35140POPC   C4B67671   6.511  22.916  10.917  0.2064  0.1104 -0.1352
35141POPC   NC367672   9.869  29.265   5.426 -0.0902 -0.2223  0.1344
35141POPC   PO467673   9.726  28.906   5.421  0.1423 -0.2472  0.3034
35141POPC   GL167674   9.539  28.804   5.684 -0.5287 -0.0241  0.2381
35141POPC   GL267675   9.653  28.728   5.912 -0.0172 -0.1171  0.0302
35141POPC   C1A67676   9.158  28.949   5.940  0.3002  0.0209 -0.2521
35141POPC   D2A67677   8.924  28.750   6.283 -0.1345  0.0162 -0.0657
35141POPC   C3A67678   8.561  29.029   6.391 -0.0957  0.1304  0.3056
35141POPC   C4A67679   8.178  29.013   6.575  0.0025  0.0656 -0.3129
35141POPC   C1B67680   9.522  28.966   6.294 -0.0408  0.0333  0.0572
35141POPC   C2B67681   9.517  29.220   6.698 -0.1779  0.0694 -0.1150
35141POPC   C3B67682   9.468  29.615   7.031  0.3447  0.1949 -0.0203
35141POPC   C4B67683   9.139  29.717   7.386  0.1773 -0.3374 -0.0415
35142POPC   NC367684   6.651  18.311   5.296 -0.1821 -0.4743  0.3485
35142POPC   PO467685   6.241  18.205   5.325 -0.3364  0.0760 -0.2899
35142POPC   GL167686   5.987  18.307   5.645 -0.1376  0.0311 -0.0904
35142POPC   GL267687   6.119  18.135   5.857  0.2476 -0.1997  0.2292
35142POPC   C1A67688   5.916  18.567   6.023  0.2692  0.0245 -0.0233
35142POPC   D2A67689   5.906  18.363   6.465 -0.3713  0.2271  0.1048
35142POPC   C3A67690   5.692  18.049   6.638  0.3043  0.1477 -0.2862
35142POPC   C4A67691   5.403  17.839   6.934  0.0079  0.2797 -0.0575
35142POPC   C1B67692   6.150  17.921   6.305  0.0462  0.0730  0.1902
35142POPC   C2B67693   6.160  17.855   6.732  0.2854 -0.3915 -0.2112
35142POPC   C3B67694   6.353  17.721   7.118  0.1879  0.2633  0.1351
35142POPC   C4B67695   6.339  17.611   7.558 -0.2272 -0.1710 -0.1665
35143POPC   NC367696   1.468  24.477   5.427  0.2175  0.0692 -0.2006
35143POPC   PO467697   1.815  24.401   5.224 -0.1586 -0.0447 -0.0017
35143POPC   GL167698   2.147  24.446   5.459  0.0871 -0.1110  0.0230
35143POPC   GL267699   2.254  24.677   5.328  0.0470  0.4519  0.1524
35143POPC   C1A67700   2.189  24.424   5.916  0.3743  0.2126 -0.1681
35143POPC   D2A67701   2.141  24.126   6.221  0.0324  0.2376 -0.1090
35143POPC   C3A67702   2.221  24.261   6.652  0.0155 -0.0473 -0.1831
35143POPC   C4A67703   2.315  24.606   6.955  0.1443  0.1065 -0.3167
35143POPC   C1B67704   2.526  24.655   5.693 -0.1062 -0.3144  0.0492
35143POPC   C2B67705   2.623  24.546   6.137  0.2971 -0.2102  0.0894
35143POPC   C3B67706   2.655  24.576   6.540  0.1972  0.1321  0.1069
35143POPC   C4B67707   2.648  24.978   6.808 -0.0816  0.3175  0.2916
35144POPC   NC367708  15.088  23.319   5.364  0.1437  0.2325  0.0535
35144POPC   PO467709  15.076  22.988   5.117  0.3078 -0.1080  0.2839
35144POPC   GL167710  15.187  22.854   5.557  0.0052  0.0742  0.3214
35144POPC   GL267711  15.015  22.912   5.736  0.2658 -0.1213  0.1485
35144POPC   C1A67712  15.279  22.450   5.804  0.1886 -0.2473  0.2899
35144POPC   D2A67713  15.539  22.428   6.216  0.0129  0.0066  0.0154
35144POPC   C3A67714  15.699  22.277   6.615 -0.2209  0.1450 -0.2573
35144POPC   C4A67715  15.870  22.258   7.031 -0.0588  0.0033  0.3545
35144POPC   C1B67716  15.198  22.975   6.157  0.1398  0.4253  0.0886
35144POPC   C2B67717  15.368  22.833   6.608  0.0669  0.0305  0.3438
35144POPC   C3B67718  15.591  22.637   6.988 -0.1158 -0.1146 -0.1601
35144POPC   C4B67719  15.626  22.667   7.492 -0.2358 -0.0611 -0.1773
35145POPC   NC367720  11.522  30.722   4.681  0.2700  0.0067 -0.0730
35145POPC   PO467721  11.238  30.963   4.752  0.1130 -0.1668  0.1960
35145POPC   GL167722  11.094  30.841   5.111  0.1113  0.1031  0.1034
35145POPC   GL267723  11.406  30.963   5.183 -0.0122  0.3397 -0.2462
35145POPC   C1A67724  11.345  30.531   5.367 -0.3128  0.0657 -0.2049
35145POPC   D2A67725  11.719  30.380   5.548 -0.0814  0.6976 -0.0443
35145POPC   C3A67726  12.062  30.532   5.824 -0.1877  0.4328  0.1275
35145POPC   C4A67727  12.353  30.377   6.143  0.0524  0.3303 -0.0016
35145POPC   C1B67728  11.135  30.909   5.596 -0.0342 -0.1477  0.0356
35145POPC   C2B67729  10.962  30.919   6.068 -0.3333 -0.1747 -0.4338
35145POPC   C3B67730  10.712  30.866   6.481 -0.0736  0.3328  0.3422
35145POPC   C4B67731  10.496  30.971   6.869 -0.0523  0.2039  0.2681
35146POPC   NC367732   6.756  24.816   5.598  0.0579 -0.2789  0.4381
35146POPC   PO467733   6.791  25.040   5.912 -0.2899  0.1500 -0.2782
35146POPC   GL167734   6.682  25.330   6.264 -0.0421  0.1483  0.0723
35146POPC   GL267735   6.497  25.073   6.378 -0.0099  0.2247  0.0525
35146POPC   C1A67736   6.350  25.566   6.551 -0.0361  0.0509 -0.0017
35146POPC   D2A67737   6.073  25.620   6.902  0.3633 -0.0831 -0.1513
35146POPC   C3A67738   5.595  25.597   6.870 -0.0105  0.2468 -0.2401
35146POPC   C4A67739   5.244  25.654   7.205  0.1305 -0.3360 -0.1544
35146POPC   C1B67740   6.242  25.092   6.732 -0.1104  0.0881 -0.1884
35146POPC   C2B67741   5.943  25.156   7.105 -0.0429 -0.2490  0.1854
35146POPC   C3B67742   5.553  25.318   7.406 -0.3009 -0.2167  0.1543
35146POPC   C4B67743   5.588  25.252   7.874  0.0675  0.0728  0.0195
35147POPC   NC367744  15.590  25.027   5.152 -0.0294 -0.1382 -0.1969
35147POPC   PO467745  15.641  24.642   5.029 -0.0316  0.0728 -0.0356
35147POPC   GL167746  15.788  24.581   5.337 -0.0562 -0.1133  0.0234
35147POPC   GL267747  15.844  24.687   5.620  0.0896  0.1370  0.1572
35147POPC   C1A67748  15.709  24.256   5.705  0.2203  0.2134  0.0831
35147POPC   D2A67749  15.508  23.951   5.952  0.0172  0.3893  0.1117
35147POPC   C3A67750  15.720  23.936   6.341 -0.0698 -0.1442 -0.1878
35147POPC   C4A67751  15.661  24.143   6.778  0.0261 -0.1786  0.1400
35147POPC   C1B67752  15.724  24.605   6.037  0.1810  0.0397  0.0356
35147POPC   C2B67753  15.469  24.365   6.350 -0.1336  0.0233  0.2895
35147POPC   C3B67754  15.313  24.500   6.744 -0.0892 -0.0767  0.3390
35147POPC   C4B67755  15.241  24.800   7.047 -0.2747 -0.0133  0.1568
35148POPC   NC367756  13.274  30.130   4.245 -0.0860  0.0522  0.1202
35148POPC   PO467757  13.295  29.949   4.596  0.0384 -0.3713 -0.1972
35148POPC   GL167758  13.489  30.073   4.916 -0.1729  0.3638  0.0201
35148POPC   GL267759  13.380  30.367   4.883 -0.0159  0.0205  0.0966
35148POPC   C1A67760  13.669  29.802   5.251 -0.0739  0.4668 -0.0992
35148POPC   D2A67761  13.926  29.680   5.603  0.3241 -0.0833  0.2477
35148POPC   C3A67762  14.325  29.488   5.509  0.0259 -0.0438 -0.1969
35148POPC   C4A67763  14.649  29.185   5.564 -0.2465 -0.2086  0.0609
35148POPC   C1B67764  13.462  30.356   5.395  0.0212  0.0231  0.2032
35148POPC   C2B67765  13.549  30.041   5.770 -0.2568  0.0552  0.1809
35148POPC   C3B67766  13.242  29.827   6.006  0.0382  0.2058  0.0168
35148POPC   C4B67767  13.014  29.799   6.366  0.1063  0.0005 -0.0840
35149POPC   NC367768   6.408  23.883   6.354 -0.2065  0.3604 -0.0479
35149POPC   PO467769   6.344  23.582   6.604  0.0042  0.0459 -0.0599
35149POPC   GL167770   6.234  23.540   6.992 -0.0412 -0.0026 -0.3918
35149POPC   GL267771   6.235  23.845   7.142 -0.0088  0.0795  0.0094
35149POPC   C1A67772   6.065  23.440   7.439 -0.0464  0.0092  0.0648
35149POPC   D2A67773   5.722  23.528   7.787  0.0534  0.1881  0.0719
35149POPC   C3A67774   5.853  23.743   8.204  0.0665  0.0375  0.0353
35149POPC   C4A67775   5.784  24.016   8.631 -0.0231 -0.0757  0.2037
35149POPC   C1B67776   5.756  23.922   7.331  0.0371 -0.0304 -0.1648
35149POPC   C2B67777   5.480  24.096   7.711 -0.1857  0.0972  0.0341
35149POPC   C3B67778   5.375  23.807   8.101  0.0396 -0.1319  0.1745
35149POPC   C4B67779   5.381  23.824   8.474 -0.2195 -0.1163 -0.4548
35150POPC   NC367780   1.116  16.609   4.488 -0.0045 -0.0697 -0.1422
35150POPC   PO467781   1.069  17.042   4.498  0.4142  0.0419 -0.3123
35150POPC   GL167782   1.113  16.935   4.918 -0.0490 -0.0037  0.3278
35150POPC   GL267783   0.955  16.725   5.012  0.3851 -0.0646  0.1369
35150POPC   C1A67784   1.439  16.760   5.200  0.0528 -0.2011 -0.3537
35150POPC   D2A67785   1.872  16.620   5.240 -0.1236  0.2633  0.0477
35150POPC   C3A67786   2.086  16.615   5.661 -0.1146 -0.1956 -0.2332
35150POPC   C4A67787   2.161  16.557   6.132 -0.2866  0.1181  0.0339
35150POPC   C1B67788   0.612  16.649   5.246 -0.1148  0.1555 -0.0622
35150POPC   C2B67789   0.530  16.396   5.648 -0.3176 -0.2271  0.1625
35150POPC   C3B67790   0.272  16.051   5.754  0.0212 -0.1121  0.2414
35150POPC   C4B67791   0.139  15.645   5.974  0.0826 -0.0594 -0.0194
35151POPC   NC367792  12.565  25.284   6.497 -0.1118  0.0305  0.1055
35151POPC   PO467793  12.153  25.184   6.530  0.0679 -0.5518  0.0139
35151POPC   GL167794  12.084  25.458   6.808 -0.2865 -0.5778 -0.2058
35151POPC   GL267795  12.349  25.635   6.797  0.0457 -0.1363  0.4647
35151POPC   C1A67796  12.084  25.488   7.280  0.3341 -0.0503  0.2882
35151POPC   D2A67797  12.072  25.618   7.680 -0.0362  0.2345 -0.2058
35151POPC   C3A67798  12.149  25.943   8.007  0.0853  0.0164 -0.0138
35151POPC   C4A67799  12.113  25.965   8.474 -0.0766  0.0026 -0.0402
35151POPC   C1B67800  12.657  25.922   7.034  0.0591  0.2942 -0.2239
35151POPC   C2B67801  12.937  26.009   7.369  0.0065 -0.2569  0.2124
35151POPC   C3B67802  13.183  26.206   7.600 -0.1265  0.0431 -0.1531
35151POPC   C4B67803  13.509  26.341   7.885  0.1583  0.0402  0.0308
35152POPC   NC367804   5.244  28.139   5.122  0.1522  0.0020 -0.0847
35152POPC   PO467805   5.033  28.287   4.845 -0.3449  0.0951  0.4334
35152POPC   GL167806   5.060  28.590   5.149 -0.0551  0.5504 -0.0055
35152POPC   GL267807   5.297  28.803   5.143  0.2401  0.1676 -0.0177
35152POPC   C1A67808   4.881  28.529   5.580 -0.1094  0.0118  0.1551
35152POPC   D2A67809   4.857  28.612   6.037 -0.4562 -0.0752 -0.1533
35152POPC   C3A67810   5.243  28.701   6.321  0.1708 -0.1124 -0.1469
35152POPC   C4A67811   5.626  28.771   6.475  0.1840 -0.1612 -0.1122
35152POPC   C1B67812   5.073  29.013   5.572 -0.2463  0.1811 -0.4429
35152POPC   C2B67813   4.856  29.218   5.919 -0.0391 -0.0271 -0.1840
35152POPC   C3B67814   4.785  29.630   6.256  0.1765  0.1836  0.2602
35152POPC   C4B67815   4.992  29.784   6.573 -0.0406 -0.1236 -0.1784
35153POPC   NC367816   4.044  18.216   5.222 -0.0066  0.0891  0.3411
35153POPC   PO467817   4.124  18.581   5.274 -0.0850 -0.2385  0.2998
35153POPC   GL167818   4.256  18.450   5.572 -0.1490 -0.0485  0.0950
35153POPC   GL267819   4.508  18.527   5.700 -0.1959  0.1449 -0.0502
35153POPC   C1A67820   4.351  17.999   5.571 -0.3621  0.2674  0.0727
35153POPC   D2A67821   4.080  17.667   5.844  0.0881 -0.0749 -0.0054
35153POPC   C3A67822   3.759  17.695   6.179 -0.0218 -0.2526 -0.1539
35153POPC   C4A67823   3.805  17.878   6.600  0.2954 -0.1845 -0.1692
35153POPC   C1B67824   4.482  18.185   6.065 -0.0045 -0.4652 -0.0468
35153POPC   C2B67825   4.277  17.877   6.295 -0.3722  0.0748 -0.1812
35153POPC   C3B67826   4.193  17.506   6.575  0.2657  0.2455 -0.0541
35153POPC   C4B67827   4.231  17.319   7.009  0.4214 -0.1727  0.3407
35154POPC   NC367828   2.790  20.795   5.071  0.4234 -0.2696 -0.1932
35154POPC   PO467829   2.507  20.714   4.846 -0.0060 -0.1953  0.2548
35154POPC   GL167830   2.312  20.641   5.163  0.3064 -0.2298  0.0235
35154POPC   GL267831   2.460  20.424   5.298 -0.1289 -0.2800  0.2160
35154POPC   C1A67832   1.918  20.437   5.202  0.2211 -0.0073 -0.2834
35154POPC   D2A67833   1.622  20.356   5.559 -0.2004 -0.0346  0.0640
35154POPC   C3A67834   1.701  20.203   5.961 -0.1997  0.0964  0.0525
35154POPC   C4A67835   1.491  20.074   6.442 -0.0057 -0.3037  0.4475
35154POPC   C1B67836   2.569  20.592   5.688 -0.2878  0.3215 -0.0762
35154POPC   C2B67837   2.460  20.496   6.157 -0.1559 -0.2504  0.0227
35154POPC   C3B67838   2.298  20.249   6.510  0.0448 -0.2211 -0.1465
35154POPC   C4B67839   2.123  20.182   6.925  0.1011 -0.1926  0.0525
35155POPC   NC367840   8.925  22.038  11.784  0.1373 -0.0605  0.0989
35155POPC   PO467841   9.085  21.697  11.592  0.0315 -0.0874 -0.0785
35155POPC   GL167842   9.012  21.289  11.665  0.0685 -0.0658 -0.3259
35155POPC   GL267843   9.108  21.242  11.868 -0.1808  0.0456  0.1070
35155POPC   C1A67844   8.717  20.947  11.615  0.0501 -0.1563 -0.3674
35155POPC   D2A67845   8.277  20.790  11.419 -0.3055 -0.1098 -0.0080
35155POPC   C3A67846   8.082  20.530  11.727 -0.2421 -0.4054 -0.2035
35155POPC   C4A67847   7.908  20.128  11.789 -0.1025  0.0429  0.2774
35155POPC   C1B67848   9.211  20.768  11.918 -0.0424  0.2023  0.0884
35155POPC   C2B67849   9.098  20.331  11.892  0.1033 -0.3123 -0.0854
35155POPC   C3B67850   9.242  19.914  12.011 -0.1245 -0.1085  0.0392
35155POPC   C4B67851   9.353  19.515  11.744 -0.1385 -0.0347  0.1956
35156POPC   NC367852  32.620  20.486  15.305  0.1265 -0.0249 -0.1791
35156POPC   PO467853  32.576  20.313  15.608 -0.1022  0.4635 -0.1710
35156POPC   GL167854  32.490  20.326  15.991 -0.1909 -0.1421  0.4055
35156POPC   GL267855  32.396  20.570  16.117 -0.3557 -0.1988  0.1266
35156POPC   C1A67856  32.342  20.182  16.453  0.2027  0.0776  0.2577
35156POPC   D2A67857  32.172  20.088  16.868 -0.0523 -0.2984 -0.1848
35156POPC   C3A67858  32.284  19.705  17.110 -0.1521 -0.1185  0.1246
35156POPC   C4A67859  32.200  19.532  17.588  0.0608 -0.0978 -0.2162
35156POPC   C1B67860  32.112  20.747  16.357  0.0434  0.1824  0.4422
35156POPC   C2B67861  32.149  20.563  16.799  0.1243  0.1400  0.0866
35156POPC   C3B67862  32.224  20.600  17.294 -0.0023 -0.0559 -0.0832
35156POPC   C4B67863  31.908  20.657  17.627 -0.0977 -0.1822  0.1582
35157POPC   NC367864   7.914  32.133  15.540  0.1437 -0.2927  0.0515
35157POPC   PO467865   7.616  32.309  15.345  0.0290  0.1495 -0.1383
35157POPC   GL167866   7.955  32.571  15.533  0.1594  0.2790 -0.1000
35157POPC   GL267867   7.795  32.665  15.769  0.3089 -0.2086  0.0560
35157POPC   C1A67868   8.315  32.699  15.775 -0.3323 -0.0614 -0.0167
35157POPC   D2A67869   8.687  32.955  16.010  0.0495 -0.1167  0.1213
35157POPC   C3A67870   8.615  33.319  16.388  0.2032  0.2021  0.0360
35157POPC   C4A67871   8.835  33.481  16.749 -0.0253 -0.0397  0.1421
35157POPC   C1B67872   7.774  32.469  16.160  0.2910 -0.1370  0.1840
35157POPC   C2B67873   7.850  32.714  16.600 -0.1089  0.2640  0.0215
35157POPC   C3B67874   7.809  33.001  16.962 -0.5404 -0.0951  0.0688
35157POPC   C4B67875   8.082  32.869  17.271  0.3350 -0.1439 -0.2636
35158POPC   NC367876   4.099  18.083  15.040 -0.0825 -0.0197  0.0861
35158POPC   PO467877   4.207  18.452  15.037 -0.1476  0.1363  0.2117
35158POPC   GL167878   4.325  18.461  15.371 -0.2314  0.0081  0.2001
35158POPC   GL267879   4.243  18.141  15.495 -0.0968 -0.2883  0.1180
35158POPC   C1A67880   4.587  18.358  15.680 -0.1695  0.1444  0.1006
35158POPC   D2A67881   4.973  18.283  15.947 -0.0044  0.0052  0.1203
35158POPC   C3A67882   5.101  18.530  16.342  0.0680 -0.0709  0.2432
35158POPC   C4A67883   5.072  18.771  16.685 -0.3501  0.0977  0.3111
35158POPC   C1B67884   4.115  18.125  15.975 -0.2145 -0.3324  0.2632
35158POPC   C2B67885   4.026  18.065  16.387 -0.0730 -0.2562 -0.0157
35158POPC   C3B67886   3.819  18.079  16.802  0.0454  0.0622  0.4317
35158POPC   C4B67887   3.861  18.113  17.243  0.0218 -0.2171 -0.1371
35159POPC   NC367888  14.358  31.648  16.268 -0.1766 -0.2331 -0.2526
35159POPC   PO467889  14.605  31.552  16.505  0.2661  0.2008 -0.1602
35159POPC   GL167890  14.519  31.822  16.859  0.0057  0.1051  0.0582
35159POPC   GL267891  14.693  31.641  17.060 -0.5546 -0.0865 -0.0267
35159POPC   C1A67892  14.384  31.903  17.299  0.0051 -0.1639  0.0044
35159POPC   D2A67893  14.483  31.841  17.711 -0.1597 -0.1429 -0.3686
35159POPC   C3A67894  14.200  31.698  18.074 -0.3898  0.0087  0.0865
35159POPC   C4A67895  14.059  31.371  18.386 -0.0106 -0.0297 -0.0033
35159POPC   C1B67896  14.895  31.929  17.345  0.1511  0.1849  0.0563
35159POPC   C2B67897  15.109  31.867  17.762  0.2552  0.0158  0.1579
35159POPC   C3B67898  15.325  31.772  18.214  0.0204 -0.0521 -0.0128
35159POPC   C4B67899  15.079  31.698  18.617  0.2060 -0.1241 -0.2135
35160POPC   NC367900  15.676  29.081  16.435  0.0766 -0.1166  0.2973
35160POPC   PO467901  15.516  28.747  16.562  0.1484 -0.0893 -0.0277
35160POPC   GL167902  15.488  28.776  16.945  0.0257 -0.0731 -0.1734
35160POPC   GL267903  15.610  29.021  16.988  0.2265  0.0821 -0.2970
35160POPC   C1A67904  15.118  28.603  17.199 -0.2198 -0.0367 -0.3011
35160POPC   D2A67905  14.691  28.506  17.391  0.2692 -0.1608  0.1771
35160POPC   C3A67906  14.588  28.324  17.834  0.1258  0.1692  0.1696
35160POPC   C4A67907  14.784  27.898  18.013  0.1579  0.1131 -0.2093
35160POPC   C1B67908  15.403  29.117  17.364 -0.0483 -0.1660  0.0468
35160POPC   C2B67909  15.072  29.089  17.651  0.1181  0.1600 -0.2589
35160POPC   C3B67910  15.002  28.680  17.764  0.2589  0.0474 -0.1664
35160POPC   C4B67911  15.012  28.201  17.660  0.1484 -0.0334 -0.1183
35161POPC   NC367912   2.399  17.559  15.312 -0.3094 -0.0779 -0.0544
35161POPC   PO467913   2.682  17.458  15.588  0.1262 -0.0560 -0.1377
35161POPC   GL167914   2.733  17.792  15.853  0.0737  0.0666  0.3808
35161POPC   GL267915   2.966  17.681  16.012 -0.2663  0.3156  0.0725
35161POPC   C1A67916   2.607  17.947  16.245 -0.1680 -0.3253 -0.1178
35161POPC   D2A67917   2.372  18.334  16.325 -0.2310 -0.1076  0.3252
35161POPC   C3A67918   2.346  18.614  16.650  0.0917  0.1667 -0.0848
35161POPC   C4A67919   2.427  18.757  17.026 -0.1015 -0.0295  0.1724
35161POPC   C1B67920   3.029  18.055  16.373  0.2135  0.0815 -0.0737
35161POPC   C2B67921   2.860  18.266  16.763 -0.1870 -0.0678  0.2652
35161POPC   C3B67922   2.902  18.288  17.182 -0.0362 -0.0771  0.0314
35161POPC   C4B67923   2.635  18.363  17.554  0.0145  0.1495  0.2275
35162POPC   NC367924   7.742  28.438   9.623 -0.0410 -0.2402 -0.1260
35162POPC   PO467925   7.938  28.093   9.673  0.0033 -0.0805  0.0064
35162POPC   GL167926   7.938  27.827   9.364  0.0345  0.1390 -0.4295
35162POPC   GL267927   7.698  27.695   9.432  0.1171 -0.0991  0.1759
35162POPC   C1A67928   8.044  27.466   9.095 -0.0314  0.0768 -0.1090
35162POPC   D2A67929   8.040  27.057   8.903  0.0807 -0.1544 -0.0546
35162POPC   C3A67930   8.357  26.637   8.866  0.0769 -0.1017 -0.2519
35162POPC   C4A67931   8.535  26.297   8.708 -0.1973 -0.3445  0.1041
35162POPC   C1B67932   7.691  27.257   9.342 -0.1447 -0.0033  0.1352
35162POPC   C2B67933   7.628  26.866   9.127  0.2311 -0.1389 -0.1049
35162POPC   C3B67934   7.841  26.512   8.906 -0.0543 -0.2707 -0.1280
35162POPC   C4B67935   8.017  26.101   8.831  0.0573 -0.1439 -0.0144
35163POPC   NC367936   4.094  17.340  15.421  0.3661  0.0863  0.0335
35163POPC   PO467937   3.717  17.337  15.515  0.3988  0.0928  0.1202
35163POPC   GL167938   3.452  17.434  15.847  0.0883  0.2443  0.2791
35163POPC   GL267939   3.670  17.497  15.984 -0.1829 -0.3106  0.0791
35163POPC   C1A67940   3.273  17.478  16.331  0.2356  0.0058 -0.0306
35163POPC   D2A67941   3.336  17.560  16.772  0.0390 -0.0582 -0.0983
35163POPC   C3A67942   3.305  17.167  16.969 -0.1135  0.3373  0.2648
35163POPC   C4A67943   3.069  16.719  16.945  0.3027 -0.3266  0.3257
35163POPC   C1B67944   3.804  17.590  16.446 -0.0651 -0.0909 -0.4716
35163POPC   C2B67945   3.928  17.591  16.947  0.2481 -0.2813 -0.0238
35163POPC   C3B67946   4.026  17.688  17.416 -0.0382  0.3039  0.0480
35163POPC   C4B67947   4.324  17.677  17.818  0.2412  0.0292  0.1299
35164POPC   NC367948  11.751  17.737  11.002 -0.0392  0.1394  0.0952
35164POPC   PO467949  12.004  18.030  11.001 -0.2290 -0.0773 -0.0917
35164POPC   GL167950  11.742  18.314  10.923  0.1576  0.1081  0.0550
35164POPC   GL267951  11.488  18.204  11.074  0.2214 -0.3366 -0.1466
35164POPC   C1A67952  11.661  18.648  10.674 -0.0735 -0.0370 -0.0616
35164POPC   D2A67953  11.834  19.040  10.769  0.3861  0.0952  0.2981
35164POPC   C3A67954  12.093  19.259  10.519 -0.1398 -0.4521  0.1547
35164POPC   C4A67955  12.023  19.357  10.059 -0.1393 -0.4425 -0.1316
35164POPC   C1B67956  11.443  18.691  11.115 -0.0091 -0.2572 -0.1431
35164POPC   C2B67957  11.464  19.165  11.008 -0.1663 -0.1021 -0.0539
35164POPC   C3B67958  11.486  19.516  11.348  0.0837 -0.3021  0.2544
35164POPC   C4B67959  11.621  19.552  11.791  0.0091  0.3798 -0.1989
35165POPC   NC367960   0.863  15.873  16.611  0.1594  0.0044  0.5216
35165POPC   PO467961   0.828  16.265  16.414 -0.0285 -0.1213 -0.1520
35165POPC   GL167962   0.907  16.569  16.659  0.1580  0.2120 -0.1528
35165POPC   GL267963   1.146  16.745  16.730 -0.0217  0.0127  0.0649
35165POPC   C1A67964   0.726  16.771  17.024  0.0238  0.1145 -0.1585
35165POPC   D2A67965   0.532  16.642  17.402 -0.0017 -0.1680  0.2417
35165POPC   C3A67966   0.226  16.692  17.714 -0.1152  0.2575 -0.2051
35165POPC   C4A67967  -0.028  16.479  18.033  0.3331  0.0436  0.0137
35165POPC   C1B67968   1.387  16.946  17.034 -0.0215 -0.0914 -0.3783
35165POPC   C2B67969   1.480  17.114  17.487 -0.0812  0.1204  0.1401
35165POPC   C3B67970   1.598  17.063  17.960 -0.0670  0.2030 -0.0492
35165POPC   C4B67971   1.509  16.973  18.408 -0.1589 -0.2601  0.2328
35166POPC   NC367972  11.430  28.339  15.959 -0.0035 -0.2935 -0.1979
35166POPC   PO467973  11.577  28.632  16.143 -0.0014 -0.3376  0.2465
35166POPC   GL167974  11.617  28.426  16.515 -0.1544 -0.2286 -0.0993
35166POPC   GL267975  11.635  28.126  16.438  0.0478  0.0235 -0.1227
35166POPC   C1A67976  11.556  28.383  16.941  0.0082  0.0881  0.0079
35166POPC   D2A67977  11.437  28.257  17.390 -0.1629 -0.2470 -0.1592
35166POPC   C3A67978  11.713  28.033  17.672 -0.4027 -0.1734 -0.2196
35166POPC   C4A67979  11.997  27.732  17.780 -0.1432  0.3491  0.0641
35166POPC   C1B67980  11.405  27.785  16.607  0.0687  0.2165 -0.0285
35166POPC   C2B67981  11.353  27.503  16.960 -0.1136  0.2603 -0.0278
35166POPC   C3B67982  11.530  27.262  17.278  0.0753  0.2155  0.1773
35166POPC   C4B67983  11.937  27.245  17.514  0.0736  0.1742  0.1347
35167POPC   NC367984  14.586  25.167  15.063 -0.1009 -0.1166 -0.0974
35167POPC   PO467985  14.894  25.349  15.210  0.0760  0.0004  0.1271
35167POPC   GL167986  14.709  25.143  15.536  0.1741 -0.0014  0.1826
35167POPC   GL267987  14.711  24.852  15.563  0.0279  0.1484  0.0725
35167POPC   C1A67988  14.258  24.993  15.669 -0.3447  0.1520 -0.1194
35167POPC   D2A67989  13.965  24.661  15.878 -0.1160 -0.2359 -0.2233
35167POPC   C3A67990  13.965  24.203  16.060 -0.1627  0.3095 -0.0351
35167POPC   C4A67991  13.696  23.841  16.165 -0.3015 -0.1543  0.2453
35167POPC   C1B67992  14.767  24.757  16.076  0.2198  0.2236  0.1201
35167POPC   C2B67993  14.673  24.631  16.485  0.0699 -0.0552 -0.1236
35167POPC   C3B67994  14.605  24.613  16.946 -0.0841 -0.0700  0.0593
35167POPC   C4B67995  14.250  24.707  17.274 -0.0270 -0.3257  0.3264
35168POPC   NC367996   5.176  30.422  16.594 -0.2727 -0.3217  0.0043
35168POPC   PO467997   5.274  30.051  16.453 -0.1133  0.2162 -0.0131
35168POPC   GL167998   5.361  30.070  16.821 -0.1230 -0.2702  0.1635
35168POPC   GL267999   5.414  29.907  16.959 -0.0888 -0.1255 -0.4103
35168POPC   C1A68000   4.902  30.123  17.071 -0.3681 -0.0471  0.1144
35168POPC   D2A68001   4.636  30.121  17.472  0.1581  0.2378  0.1221
35168POPC   C3A68002   4.740  30.185  17.893 -0.0396 -0.0078  0.2169
35168POPC   C4A68003   4.895  30.404  18.260 -0.2720  0.1535  0.0883
35168POPC   C1B68004   5.234  29.919  17.398  0.2130  0.2491 -0.2133
35168POPC   C2B68005   4.914  29.728  17.685  0.3169  0.1122 -0.0849
35168POPC   C3B68006   4.759  29.685  18.155 -0.1336  0.0593  0.4131
35168POPC   C4B68007   4.700  29.480  18.571 -0.0818 -0.2461 -0.3443
35169POPC   NC368008  12.629  29.601  16.395  0.4844  0.1351 -0.2284
35169POPC   PO468009  12.945  29.428  16.529 -0.2243 -0.2092 -0.3243
35169POPC   GL168010  13.169  29.312  16.915  0.1065  0.1598 -0.0057
35169POPC   GL268011  13.041  29.588  17.085 -0.3343 -0.0208  0.0398
35169POPC   C1A68012  12.866  29.114  17.219 -0.3232  0.3641  0.1628
35169POPC   D2A68013  12.510  29.221  17.521 -0.0861 -0.1074  0.1009
35169POPC   C3A68014  12.429  29.260  17.951 -0.1708  0.0400 -0.1297
35169POPC   C4A68015  12.357  29.181  18.392  0.3280 -0.2403 -0.2899
35169POPC   C1B68016  13.331  29.673  17.414 -0.1050 -0.2295 -0.0972
35169POPC   C2B68017  13.383  29.713  17.866 -0.2803 -0.2074 -0.0780
35169POPC   C3B68018  13.435  29.535  18.223  0.0947 -0.0864 -0.0368
35169POPC   C4B68019  13.292  29.298  18.583  0.0135  0.0251 -0.2841
35170POPC   NC368020  11.942  27.678  15.410 -0.0266  0.3396  0.1310
35170POPC   PO468021  12.241  27.460  15.537  0.0640 -0.0982 -0.0683
35170POPC   GL168022  12.131  27.214  15.833  0.0143  0.2464  0.0588
35170POPC   GL268023  12.081  27.169  16.121  0.2130  0.3857 -0.0275
35170POPC   C1A68024  12.024  26.763  15.854  0.3032 -0.0038  0.0086
35170POPC   D2A68025  12.222  26.361  15.896  0.1480  0.0250 -0.1380
35170POPC   C3A68026  12.049  26.013  16.093 -0.2175  0.1724  0.0149
35170POPC   C4A68027  11.614  26.047  16.114 -0.0897  0.0244 -0.1846
35170POPC   C1B68028  12.192  26.792  16.350  0.1788  0.0709 -0.0510
35170POPC   C2B68029  12.275  26.337  16.509  0.0609  0.0058 -0.1901
35170POPC   C3B68030  12.339  25.873  16.548 -0.1951  0.1529 -0.1284
35170POPC   C4B68031  12.246  25.428  16.697  0.0824 -0.1661  0.0608
35171POPC   NC368032  15.514  23.144  14.779 -0.1883 -0.0921  0.0826
35171POPC   PO468033  15.377  23.477  14.881 -0.0385 -0.1825 -0.0118
35171POPC   GL168034  15.120  23.367  15.083 -0.3344 -0.0117  0.2678
35171POPC   GL268035  14.976  23.461  15.371  0.2083 -0.2636  0.1491
35171POPC   C1A68036  14.786  23.037  14.994 -0.0069 -0.3606  0.0569
35171POPC   D2A68037  14.631  22.673  14.755  0.0614  0.0168  0.2053
35171POPC   C3A68038  14.284  22.447  14.769  0.2525  0.1013 -0.0833
35171POPC   C4A68039  13.883  22.404  15.106 -0.2137 -0.1532  0.0613
35171POPC   C1B68040  14.681  23.521  15.754 -0.4565  0.0275  0.4843
35171POPC   C2B68041  14.377  23.582  16.096  0.0247  0.0789 -0.0420
35171POPC   C3B68042  14.233  23.884  16.452  0.0933  0.1727  0.2216
35171POPC   C4B68043  14.399  24.140  16.809 -0.0670  0.1778  0.1407
35172POPC   NC368044   1.341  32.505  15.828  0.0028  0.0674  0.2152
35172POPC   PO468045   1.439  32.492  16.159  0.0710  0.1292  0.1000
35172POPC   GL168046   1.564  32.664  16.436  0.0653 -0.5820  0.3095
35172POPC   GL268047   1.608  32.556  16.713 -0.1713 -0.1308  0.2878
35172POPC   C1A68048   1.497  33.028  16.723 -0.0841 -0.2211  0.2369
35172POPC   D2A68049   1.348  33.047  17.229 -0.1778 -0.2010  0.1925
35172POPC   C3A68050   1.590  33.280  17.518 -0.0590  0.1523  0.2056
35172POPC   C4A68051   1.862  33.361  17.897 -0.0123  0.1166  0.0435
35172POPC   C1B68052   1.713  32.642  17.145  0.3753  0.1597 -0.0493
35172POPC   C2B68053   1.558  32.807  17.578 -0.1259 -0.0312 -0.0212
35172POPC   C3B68054   1.561  33.018  17.979  0.1093  0.1727  0.3397
35172POPC   C4B68055   1.580  33.163  18.428  0.2410  0.0452  0.2264
35173POPC   NC368056  10.073  17.373  10.686 -0.0191 -0.0325  0.2404
35173POPC   PO468057  10.123  17.132  10.392  0.2033  0.3534  0.1966
35173POPC   GL168058  10.210  17.464  10.184  0.0771 -0.0633 -0.2644
35173POPC   GL268059  10.283  17.439   9.929  0.2902 -0.2455 -0.2475
35173POPC   C1A68060  10.203  17.916  10.020 -0.1366 -0.0232  0.0371
35173POPC   D2A68061  10.184  18.267  10.250 -0.1368 -0.2022 -0.0082
35173POPC   C3A68062  10.059  18.649   9.944 -0.1678 -0.0805 -0.3256
35173POPC   C4A68063   9.992  19.053   9.759  0.0166  0.2339  0.4501
35173POPC   C1B68064   9.865  17.540   9.809 -0.1679 -0.3705 -0.1815
35173POPC   C2B68065   9.692  17.790   9.510 -0.2914  0.0315 -0.1503
35173POPC   C3B68066   9.659  17.863   9.080 -0.0533  0.0927  0.0058
35173POPC   C4B68067   9.814  17.929   8.642 -0.1800 -0.1073  0.3651
35174POPC   NC368068  31.983  28.231  16.464 -0.1699 -0.0649  0.1233
35174POPC   PO468069  31.675  28.497  16.491 -0.3141 -0.2203  0.0939
35174POPC   GL168070  31.772  28.419  16.917 -0.0669  0.0993  0.2546
35174POPC   GL268071  32.113  28.436  16.941  0.2694  0.2789  0.1400
35174POPC   C1A68072  31.709  28.376  17.387  0.0170 -0.0792 -0.2655
35174POPC   D2A68073  31.874  28.473  17.788  0.1593  0.1421  0.1600
35174POPC   C3A68074  31.850  28.142  18.088 -0.2731 -0.1306  0.2138
35174POPC   C4A68075  31.737  27.907  18.492  0.0126  0.1149  0.0399
35174POPC   C1B68076  32.307  28.250  17.355  0.0710 -0.0517  0.0457
35174POPC   C2B68077  32.253  28.160  17.805 -0.1989 -0.4080  0.0042
35174POPC   C3B68078  32.321  27.936  18.173 -0.2181  0.2623  0.0429
35174POPC   C4B68079  32.266  27.684  18.583 -0.0152  0.1848 -0.0070
35175POPC   NC368080   8.353  31.289  15.422  0.0957  0.2845 -0.1187
35175POPC   PO468081   8.680  31.504  15.416  0.1410  0.2604  0.1851
35175POPC   GL168082   8.849  31.553  15.713  0.1010 -0.0121 -0.0175
35175POPC   GL268083   8.651  31.518  15.935  0.1036  0.0628 -0.3378
35175POPC   C1A68084   8.755  32.040  15.881 -0.2599  0.1367 -0.0861
35175POPC   D2A68085   8.628  32.411  16.160 -0.0944 -0.0813  0.1632
35175POPC   C3A68086   8.654  32.577  16.598  0.2696  0.0186 -0.0180
35175POPC   C4A68087   8.850  32.783  16.944  0.0320  0.0034  0.0484
35175POPC   C1B68088   8.763  31.749  16.345 -0.0094  0.1568  0.1644
35175POPC   C2B68089   8.543  32.083  16.569 -0.0350 -0.0842  0.0728
35175POPC   C3B68090   8.227  32.403  16.684 -0.0631 -0.2533  0.2029
35175POPC   C4B68091   8.356  32.847  16.854  0.0117  0.2347 -0.0180
35176POPC   NC368092  15.547  22.387  14.880  0.0625 -0.2147  0.0463
35176POPC   PO468093  15.374  22.688  14.681 -0.1343  0.0050  0.0226
35176POPC   GL168094  15.273  22.748  15.034  0.0526 -0.3751 -0.2557
35176POPC   GL268095  15.090  22.456  15.029  0.1243  0.0086 -0.3194
35176POPC   C1A68096  15.317  22.624  15.482  0.2358  0.0631  0.2563
35176POPC   D2A68097  15.357  22.303  15.889 -0.0029  0.3070  0.0630
35176POPC   C3A68098  15.069  22.351  16.228  0.4280  0.0777 -0.0197
35176POPC   C4A68099  14.625  22.285  16.242 -0.0652 -0.0968  0.0507
35176POPC   C1B68100  14.603  22.329  15.112  0.1212 -0.1645  0.1009
35176POPC   C2B68101  14.242  22.327  15.416 -0.1490  0.0571 -0.1207
35176POPC   C3B68102  13.970  22.610  15.593  0.0669 -0.4560  0.1006
35176POPC   C4B68103  13.529  22.668  15.419  0.1734 -0.2328 -0.0108
35177POPC   NC368104  14.811  20.970  11.994  0.1780 -0.0606  0.2766
35177POPC   PO468105  14.888  21.269  12.257  0.0390  0.0427  0.3027
35177POPC   GL168106  14.649  21.486  12.097 -0.0805 -0.0786 -0.0386
35177POPC   GL268107  14.556  21.681  12.249  0.0165 -0.0232 -0.0371
35177POPC   C1A68108  14.166  21.545  12.018 -0.1710  0.0415 -0.0305
35177POPC   D2A68109  13.821  21.334  11.762 -0.2960 -0.1112 -0.1014
35177POPC   C3A68110  13.455  21.152  11.987 -0.0675 -0.0273 -0.0907
35177POPC   C4A68111  13.088  21.088  12.213  0.0973  0.0489 -0.3145
35177POPC   C1B68112  14.237  21.816  12.445  0.1674 -0.0060  0.1735
35177POPC   C2B68113  13.856  21.902  12.260 -0.0515 -0.2176 -0.2537
35177POPC   C3B68114  13.578  21.710  11.901  0.0666  0.1472  0.3445
35177POPC   C4B68115  13.138  21.497  11.673 -0.0497  0.0199 -0.1850
35178POPC   NC368116  16.494  15.243  16.198  0.2804 -0.0271 -0.0158
35178POPC   PO468117  16.419  15.592  16.293 -0.1024 -0.1744 -0.0797
35178POPC   GL168118  16.331  15.678  16.613  0.2924 -0.4910  0.0924
35178POPC   GL268119  16.410  15.917  16.675 -0.1831  0.0375 -0.1890
35178POPC   C1A68120  16.038  15.666  16.975 -0.2279 -0.1852 -0.2360
35178POPC   D2A68121  15.952  15.661  17.389  0.0429  0.0302  0.1772
35178POPC   C3A68122  15.855  16.069  17.573 -0.0472  0.4474 -0.3451
35178POPC   C4A68123  15.819  16.400  17.893 -0.2666 -0.3429  0.0522
35178POPC   C1B68124  16.538  15.608  17.042 -0.0813 -0.1281 -0.0554
35178POPC   C2B68125  16.858  15.577  17.367 -0.0344 -0.0721  0.0310
35178POPC   C3B68126  17.207  15.635  17.628 -0.0501  0.0980 -0.2458
35178POPC   C4B68127  17.566  15.788  17.770 -0.0422 -0.0190  0.0129
35179POPC   NC368128   5.022  27.831  16.271 -0.0752 -0.2118  0.2120
35179POPC   PO468129   4.982  28.164  16.444 -0.0889  0.0757 -0.5208
35179POPC   GL168130   4.835  28.114  16.790  0.1774 -0.4613 -0.2001
35179POPC   GL268131   4.980  28.190  16.975  0.1629 -0.2007 -0.0351
35179POPC   C1A68132   4.790  27.687  17.003 -0.6767 -0.0253 -0.2094
35179POPC   D2A68133   4.820  27.216  17.024  0.1199 -0.0896 -0.2723
35179POPC   C3A68134   4.821  26.948  17.401 -0.3770  0.2424 -0.0251
35179POPC   C4A68135   4.752  26.694  17.777  0.0844 -0.2375  0.2532
35179POPC   C1B68136   5.206  27.867  17.219  0.1543  0.0157 -0.1037
35179POPC   C2B68137   5.363  27.939  17.635  0.4051  0.1017 -0.2556
35179POPC   C3B68138   5.786  27.842  17.790  0.1331  0.4393 -0.0041
35179POPC   C4B68139   6.191  27.537  17.804 -0.2258 -0.0739 -0.1215
35180POPC   NC368140   3.388  18.993  15.392 -0.2772 -0.0910  0.4032
35180POPC   PO468141   3.493  19.060  15.020  0.1779  0.4242  0.1834
35180POPC   GL168142   3.831  19.135  15.264  0.0220 -0.1256  0.1002
35180POPC   GL268143   4.074  19.301  15.233  0.0114  0.4088 -0.1207
35180POPC   C1A68144   3.762  19.184  15.707 -0.1255  0.2114  0.2559
35180POPC   D2A68145   3.659  19.090  16.108  0.1462 -0.2118 -0.3520
35180POPC   C3A68146   3.887  19.083  16.454 -0.2392 -0.2864 -0.1864
35180POPC   C4A68147   4.128  18.932  16.857  0.2661 -0.1317  0.0578
35180POPC   C1B68148   4.077  19.554  15.611  0.0025  0.0727  0.2598
35180POPC   C2B68149   4.171  19.425  16.042  0.1668 -0.1964 -0.0289
35180POPC   C3B68150   4.399  19.235  16.448 -0.0659  0.0182 -0.1102
35180POPC   C4B68151   4.613  19.314  16.833 -0.0403  0.1118 -0.0398
35181POPC   NC368152  13.405  29.789  16.707 -0.3185 -0.3294  0.1072
35181POPC   PO468153  13.406  30.176  16.581  0.1722 -0.0429  0.0295
35181POPC   GL168154  13.370  30.294  16.944  0.0339  0.2024 -0.0956
35181POPC   GL268155  13.216  30.047  17.072 -0.0353  0.0807 -0.0030
35181POPC   C1A68156  13.517  30.250  17.413  0.1395 -0.0861  0.1052
35181POPC   D2A68157  13.843  30.098  17.718  0.1623 -0.3187 -0.0300
35181POPC   C3A68158  13.796  29.964  18.115  0.3809 -0.0840  0.2435
35181POPC   C4A68159  13.902  29.610  18.418  0.0784  0.1195  0.1390
35181POPC   C1B68160  13.073  30.083  17.497 -0.2435  0.1344  0.0114
35181POPC   C2B68161  12.905  29.939  17.918  0.2955 -0.0084  0.2115
35181POPC   C3B68162  12.866  29.597  18.130 -0.0123 -0.0402 -0.2531
35181POPC   C4B68163  12.979  29.182  18.210 -0.3069  0.2385  0.0032
35182POPC   NC368164   9.804  27.030  12.841 -0.0030  0.0267  0.0373
35182POPC   PO468165   9.628  27.104  13.214  0.0618  0.0494  0.0046
35182POPC   GL168166   9.596  26.685  13.142  0.0574 -0.2596 -0.2099
35182POPC   GL268167   9.517  26.594  12.884  0.0778 -0.1636 -0.2383
35182POPC   C1A68168   9.646  26.297  13.407  0.2392  0.2220  0.1488
35182POPC   D2A68169   9.652  25.796  13.348  0.1344  0.0582 -0.0064
35182POPC   C3A68170   9.694  25.359  13.366  0.0001 -0.2058 -0.2345
35182POPC   C4A68171   9.657  24.922  13.241  0.0841 -0.0337 -0.0960
35182POPC   C1B68172   9.607  26.140  12.802 -0.2514 -0.1485  0.0319
35182POPC   C2B68173   9.863  25.976  12.530 -0.0106  0.0178 -0.4554
35182POPC   C3B68174  10.131  25.586  12.461 -0.0023 -0.0174  0.0575
35182POPC   C4B68175  10.246  25.144  12.506  0.0066 -0.1578 -0.1646
35183POPC   NC368176   1.771  24.480  15.906  0.2963  0.0014 -0.0646
35183POPC   PO468177   2.101  24.583  16.040  0.0687  0.0298 -0.2393
35183POPC   GL168178   2.155  24.511  16.402  0.1853  0.0549 -0.1147
35183POPC   GL268179   2.170  24.250  16.420  0.3636  0.2832 -0.0200
35183POPC   C1A68180   1.922  24.594  16.820  0.2197  0.0651  0.3983
35183POPC   D2A68181   2.124  24.445  17.225 -0.3839 -0.3299  0.0899
35183POPC   C3A68182   2.425  24.132  17.329  0.2921  0.1511 -0.0676
35183POPC   C4A68183   2.564  23.696  17.547 -0.1602 -0.1137  0.1663
35183POPC   C1B68184   2.353  24.073  16.784 -0.1328 -0.0373 -0.1047
35183POPC   C2B68185   2.282  23.694  17.010 -0.1548 -0.1425  0.0274
35183POPC   C3B68186   2.187  23.436  17.369 -0.1468  0.5614  0.0081
35183POPC   C4B68187   2.043  23.312  17.791  0.1199 -0.0604 -0.0316
35184POPC   NC368188  11.961  27.154  11.769 -0.1578  0.1057 -0.0965
35184POPC   PO468189  11.850  27.099  12.174 -0.0508 -0.2104 -0.1248
35184POPC   GL168190  11.673  26.829  12.033 -0.0612  0.1853 -0.0796
35184POPC   GL268191  11.918  26.632  11.896  0.0045 -0.0885  0.0705
35184POPC   C1A68192  11.574  26.420  12.182  0.1105 -0.1466  0.3437
35184POPC   D2A68193  11.321  26.055  12.247 -0.2141  0.1261 -0.1309
35184POPC   C3A68194  11.015  25.846  12.477 -0.1670 -0.1353  0.0870
35184POPC   C4A68195  10.889  25.834  12.917  0.0542 -0.0224  0.0619
35184POPC   C1B68196  11.733  26.240  11.771 -0.3128  0.0156  0.1761
35184POPC   C2B68197  11.797  25.875  11.492  0.1450 -0.1200 -0.5302
35184POPC   C3B68198  11.749  25.517  11.210 -0.1312 -0.2435 -0.0404
35184POPC   C4B68199  11.637  25.059  10.999  0.0135 -0.2009  0.0426
35185POPC   NC368200   6.767  26.633  15.557  0.1278  0.1583  0.2126
35185POPC   PO468201   6.445  26.824  15.484 -0.1746 -0.1600 -0.1546
35185POPC   GL168202   6.308  26.482  15.725 -0.0895  0.0964  0.0937
35185POPC   GL268203   6.500  26.228  15.746 -0.3018  0.0222 -0.2141
35185POPC   C1A68204   6.196  26.210  16.126 -0.0223 -0.0174  0.0573
35185POPC   D2A68205   5.859  26.173  16.467 -0.1340  0.0204  0.1810
35185POPC   C3A68206   5.922  25.862  16.730  0.0027 -0.0154 -0.1757
35185POPC   C4A68207   5.977  25.491  17.017  0.0539 -0.3160  0.1126
35185POPC   C1B68208   6.398  25.784  15.855 -0.2138  0.3305  0.1225
35185POPC   C2B68209   6.542  25.412  16.142 -0.3819 -0.3676  0.0511
35185POPC   C3B68210   6.726  25.103  16.440  0.0565  0.2488 -0.1421
35185POPC   C4B68211   7.028  24.910  16.652 -0.3349  0.0555 -0.1993
35186POPC   NC368212   3.515  25.160  15.484 -0.2968 -0.1069  0.0988
35186POPC   PO468213   3.790  25.390  15.680  0.0224  0.2252 -0.0797
35186POPC   GL168214   3.980  25.066  15.930 -0.2121 -0.1116 -0.0318
35186POPC   GL268215   3.896  24.784  15.908  0.5171 -0.0741 -0.3953
35186POPC   C1A68216   4.124  24.958  16.367  0.2035 -0.2849 -0.0227
35186POPC   D2A68217   4.115  24.863  16.809 -0.2030 -0.2496  0.1473
35186POPC   C3A68218   4.492  24.709  16.966 -0.2533  0.1023  0.0006
35186POPC   C4A68219   4.619  24.530  17.343  0.0243  0.0077  0.1182
35186POPC   C1B68220   3.913  24.278  15.977 -0.1179 -0.0883  0.0628
35186POPC   C2B68221   4.034  23.840  16.121 -0.1135  0.0811  0.0309
35186POPC   C3B68222   4.303  23.409  16.183  0.2812 -0.0460  0.0993
35186POPC   C4B68223   4.748  23.203  16.289 -0.0358 -0.2359 -0.1671
35187POPC   NC368224  14.332  29.814  16.969  0.0258 -0.1080 -0.1301
35187POPC   PO468225  14.366  29.749  16.585 -0.1104  0.0059 -0.1674
35187POPC   GL168226  14.207  30.130  16.659  0.0424  0.0793 -0.0754
35187POPC   GL268227  14.451  30.207  16.711  0.0159 -0.0761 -0.1868
35187POPC   C1A68228  14.117  30.501  16.944  0.3691  0.1108 -0.1246
35187POPC   D2A68229  13.776  30.660  17.192 -0.1472  0.1597  0.0282
35187POPC   C3A68230  13.736  30.761  17.616  0.0738 -0.0253 -0.0318
35187POPC   C4A68231  13.480  30.704  17.967 -0.1784 -0.0132 -0.1502
35187POPC   C1B68232  14.682  30.152  17.173  0.0665 -0.1495 -0.1103
35187POPC   C2B68233  14.595  29.997  17.594 -0.0918  0.2192 -0.1946
35187POPC   C3B68234  14.477  30.101  18.030  0.0977 -0.2774 -0.1815
35187POPC   C4B68235  14.196  30.051  18.393  0.0806  0.0466 -0.0588
35188POPC   NC368236  12.973  25.664  13.314 -0.0495  0.3168 -0.3305
35188POPC   PO468237  12.904  25.820  12.950 -0.0912  0.0605  0.3169
35188POPC   GL168238  12.619  25.560  12.845  0.1506 -0.0538  0.5555
35188POPC   GL268239  12.467  25.466  13.048  0.0140 -0.0561 -0.2640
35188POPC   C1A68240  12.311  25.434  12.540  0.3418  0.2309  0.0185
35188POPC   D2A68241  12.073  25.083  12.360  0.1497 -0.1943 -0.3296
35188POPC   C3A68242  11.828  24.687  12.382 -0.0338 -0.1385 -0.3008
35188POPC   C4A68243  11.713  24.327  12.599 -0.2815 -0.2029  0.3521
35188POPC   C1B68244  12.205  25.078  12.962 -0.0990  0.0255 -0.0924
35188POPC   C2B68245  11.912  24.688  12.933 -0.1709 -0.0173  0.0814
35188POPC   C3B68246  11.577  24.386  13.150 -0.0541 -0.1656  0.3138
35188POPC   C4B68247  11.130  24.325  13.341 -0.0006  0.0148 -0.0067
35189POPC   NC368248  10.776  31.768  15.438 -0.2921 -0.1130  0.1016
35189POPC   PO468249  10.793  31.536  15.731 -0.2586 -0.0809 -0.3287
35189POPC   GL168250  10.927  31.652  16.069  0.0812  0.1301  0.1882
35189POPC   GL268251  10.826  31.545  16.321  0.1714 -0.2195  0.0885
35189POPC   C1A68252  11.119  32.015  16.262 -0.1085 -0.2934 -0.0525
35189POPC   D2A68253  11.400  32.407  16.301 -0.3621  0.2367 -0.0543
35189POPC   C3A68254  11.551  32.402  16.730 -0.2087 -0.0648  0.3996
35189POPC   C4A68255  11.623  32.707  17.094 -0.0632  0.1610 -0.0735
35189POPC   C1B68256  11.021  31.552  16.771  0.0643 -0.1340  0.2003
35189POPC   C2B68257  11.143  31.607  17.225  0.0263  0.3063 -0.1837
35189POPC   C3B68258  11.282  31.670  17.663  0.4556  0.1126  0.1119
35189POPC   C4B68259  11.586  31.595  18.011  0.0506  0.3924  0.1015
35190POPC   NC368260  13.749  31.409  16.385  0.1241 -0.2285  0.3970
35190POPC   PO468261  13.778  31.808  16.445  0.3961  0.0870  0.0833
35190POPC   GL168262  13.552  31.799  16.754  0.1817 -0.1675  0.2684
35190POPC   GL268263  13.565  31.538  16.833 -0.0721  0.0945 -0.0088
35190POPC   C1A68264  13.458  31.989  17.179  0.0588 -0.1103 -0.2104
35190POPC   D2A68265  13.521  32.052  17.631  0.1180  0.2628 -0.3759
35190POPC   C3A68266  13.679  32.465  17.737 -0.2524 -0.0123 -0.1171
35190POPC   C4A68267  13.969  32.511  18.057 -0.0106  0.1818 -0.1297
35190POPC   C1B68268  13.282  31.522  17.182  0.4308 -0.1321 -0.0959
35190POPC   C2B68269  13.167  31.693  17.627  0.2561 -0.1722  0.0079
35190POPC   C3B68270  13.394  31.699  18.016 -0.3224  0.0181  0.2466
35190POPC   C4B68271  13.675  31.784  18.386  0.0471  0.1816 -0.0648
35191POPC   NC368272   2.832  26.295  15.967  0.3722 -0.2625  0.1348
35191POPC   PO468273   3.143  26.301  16.206 -0.0800  0.0370  0.2940
35191POPC   GL168274   3.142  26.280  16.666  0.3278 -0.0586  0.2656
35191POPC   GL268275   2.873  26.469  16.676 -0.1908 -0.0813 -0.3781
35191POPC   C1A68276   3.504  26.370  16.962 -0.2273 -0.4196 -0.0105
35191POPC   D2A68277   3.437  26.295  17.405  0.1262 -0.0678  0.0824
35191POPC   C3A68278   3.422  26.279  17.886  0.2981 -0.0441 -0.1930
35191POPC   C4A68279   3.777  26.415  18.198  0.0455  0.0996  0.0026
35191POPC   C1B68280   2.909  26.288  17.083 -0.0432  0.2806  0.0979
35191POPC   C2B68281   2.889  26.331  17.547 -0.1810 -0.1444 -0.0578
35191POPC   C3B68282   2.954  26.391  18.018  0.1810  0.1386 -0.0497
35191POPC   C4B68283   2.851  26.564  18.437  0.0610 -0.1034  0.3279
35192POPC   NC368284   3.228  24.168  15.612 -0.0081 -0.3020 -0.3280
35192POPC   PO468285   3.344  23.762  15.603 -0.2011  0.1888 -0.0333
35192POPC   GL168286   3.270  23.855  16.007 -0.0185  0.0866 -0.0900
35192POPC   GL268287   3.503  24.001  16.031  0.3982 -0.1917  0.1880
35192POPC   C1A68288   3.215  23.748  16.444  0.0446  0.1517  0.0161
35192POPC   D2A68289   3.311  23.714  16.874 -0.1716  0.2861 -0.1267
35192POPC   C3A68290   2.952  23.823  17.151 -0.0112  0.2432 -0.1208
35192POPC   C4A68291   2.893  24.121  17.536 -0.3177 -0.1963  0.0096
35192POPC   C1B68292   3.718  24.082  16.442  0.0365 -0.4808 -0.0527
35192POPC   C2B68293   3.741  23.973  16.854 -0.1368  0.1549 -0.1051
35192POPC   C3B68294   3.739  23.735  17.234  0.2030 -0.0934 -0.3654
35192POPC   C4B68295   3.854  23.732  17.672  0.1088 -0.1108 -0.3702
35193POPC   NC368296  10.822  29.022  16.211  0.3666 -0.0533 -0.1304
35193POPC   PO468297  11.178  29.001  16.411  0.0179  0.2876  0.2421
35193POPC   GL168298  10.977  28.898  16.728  0.0727  0.1911 -0.0975
35193POPC   GL268299  11.205  28.674  16.773  0.3272 -0.0519  0.1749
35193POPC   C1A68300  10.765  28.802  17.156  0.2243 -0.0602 -0.1037
35193POPC   D2A68301  10.683  28.836  17.595  0.0771  0.1000 -0.1861
35193POPC   C3A68302  10.538  28.662  18.051 -0.0528 -0.1179  0.2467
35193POPC   C4A68303  10.714  28.614  18.457  0.0210  0.0260  0.0220
35193POPC   C1B68304  11.228  28.804  17.191 -0.1695 -0.0250 -0.1496
35193POPC   C2B68305  11.077  28.534  17.556  0.0826  0.2050  0.0916
35193POPC   C3B68306  11.045  28.356  17.988 -0.1496 -0.0753  0.2549
35193POPC   C4B68307  11.235  28.511  18.352 -0.0495 -0.1439  0.0713
35194POPC   NC368308   3.583  28.208  16.534  0.2114  0.1469  0.4088
35194POPC   PO468309   3.681  27.812  16.579 -0.0144  0.1742 -0.1207
35194POPC   GL168310   3.551  27.716  16.949 -0.0773 -0.4620 -0.0052
35194POPC   GL268311   3.782  27.663  17.126 -0.0999  0.1197  0.0710
35194POPC   C1A68312   3.370  27.334  17.237 -0.0681 -0.0394 -0.0596
35194POPC   D2A68313   3.188  27.255  17.689 -0.3544 -0.1013  0.3074
35194POPC   C3A68314   3.507  27.260  18.008 -0.2874 -0.0442 -0.1042
35194POPC   C4A68315   3.900  27.394  18.223  0.1692 -0.1104 -0.1851
35194POPC   C1B68316   4.036  27.789  17.427  0.0237 -0.0010  0.0642
35194POPC   C2B68317   4.233  27.927  17.818  0.1204  0.1022  0.2531
35194POPC   C3B68318   4.239  27.817  18.264 -0.2611  0.1161  0.0112
35194POPC   C4B68319   4.434  27.880  18.724 -0.0888  0.2387  0.2367
35195POPC   NC368320   5.943  18.908  12.441  0.1343  0.0394  0.2172
35195POPC   PO468321   6.055  18.675  12.736  0.1411  0.0251  0.0529
35195POPC   GL168322   6.091  19.102  12.827 -0.3805  0.2247 -0.0471
35195POPC   GL268323   6.190  19.347  12.728  0.0646  0.0170  0.2154
35195POPC   C1A68324   6.455  19.116  13.137  0.1729 -0.1751 -0.0441
35195POPC   D2A68325   6.895  19.262  13.236 -0.0442  0.0175 -0.1004
35195POPC   C3A68326   7.134  19.674  13.293  0.2149 -0.0446 -0.0887
35195POPC   C4A68327   7.232  20.104  13.237  0.0311  0.0108  0.3854
35195POPC   C1B68328   6.266  19.671  12.332 -0.1643  0.0483  0.1691
35195POPC   C2B68329   6.594  20.007  12.283 -0.0489 -0.2761 -0.5249
35195POPC   C3B68330   6.927  20.373  12.275  0.0291 -0.1557  0.0278
35195POPC   C4B68331   7.364  20.604  12.202  0.1769  0.1204  0.0716
35196POPC   NC368332   8.736  28.845  16.070  0.1589  0.0406  0.1035
35196POPC   PO468333   8.771  28.495  16.189  0.0066 -0.0249  0.2212
35196POPC   GL168334   8.582  28.546  16.476  0.1249  0.0993 -0.1426
35196POPC   GL268335   8.681  28.392  16.687  0.1592 -0.0261  0.0116
35196POPC   C1A68336   8.172  28.472  16.712 -0.1631  0.1057 -0.0503
35196POPC   D2A68337   8.080  28.442  17.114  0.0324 -0.0414 -0.1928
35196POPC   C3A68338   8.428  28.341  17.442  0.0469 -0.5855  0.3930
35196POPC   C4A68339   8.590  28.106  17.819  0.0337  0.0129  0.1778
35196POPC   C1B68340   8.833  28.493  17.119 -0.1167 -0.1697 -0.1602
35196POPC   C2B68341   8.883  28.329  17.536 -0.2118 -0.1689  0.1830
35196POPC   C3B68342   8.860  28.534  17.943  0.2032 -0.1354 -0.4286
35196POPC   C4B68343   9.124  28.511  18.357 -0.0583  0.1011  0.2071
35197POPC   NC368344   3.001  19.128  14.941  0.0665 -0.3118  0.0336
35197POPC   PO468345   2.913  19.079  15.303 -0.1287  0.0053 -0.2718
35197POPC   GL168346   3.032  19.074  15.729 -0.0157 -0.0517  0.1453
35197POPC   GL268347   2.912  18.828  15.877 -0.3124 -0.2894  0.2439
35197POPC   C1A68348   3.143  19.444  16.000  0.0492 -0.0614 -0.1025
35197POPC   D2A68349   2.840  19.755  16.187 -0.0384  0.1742 -0.0096
35197POPC   C3A68350   2.760  20.009  16.600 -0.3075  0.0866  0.1243
35197POPC   C4A68351   2.737  19.915  17.086 -0.1750 -0.1514  0.1754
35197POPC   C1B68352   3.167  18.948  16.271  0.2296 -0.0086 -0.0299
35197POPC   C2B68353   3.330  19.338  16.480  0.0235 -0.4876  0.0241
35197POPC   C3B68354   3.640  19.388  16.844  0.0167 -0.0601 -0.1423
35197POPC   C4B68355   4.120  19.420  16.893  0.0114  0.3895 -0.2186
35198POPC   NC368356  12.348  26.272  13.058 -0.0062  0.0392  0.2002
35198POPC   PO468357  12.503  25.945  13.230 -0.1952  0.2411 -0.0621
35198POPC   GL168358  12.140  25.810  13.121 -0.4073  0.0060 -0.1994
35198POPC   GL268359  12.066  25.703  13.420 -0.1903  0.0759  0.1267
35198POPC   C1A68360  11.912  25.477  12.863 -0.0170 -0.2713 -0.4230
35198POPC   D2A68361  11.705  25.181  12.642 -0.3509 -0.1146  0.0000
35198POPC   C3A68362  11.337  25.329  12.843  0.1420  0.0692 -0.0965
35198POPC   C4A68363  11.088  25.342  13.221 -0.1298  0.0100  0.2554
35198POPC   C1B68364  11.895  25.311  13.402  0.2892 -0.1034  0.3089
35198POPC   C2B68365  11.600  25.085  13.144  0.1700  0.1846  0.1896
35198POPC   C3B68366  11.246  24.857  13.144  0.1204  0.0849 -0.0123
35198POPC   C4B68367  10.873  24.797  12.893 -0.2134  0.0967  0.1393
35199POPC   NC368368   1.351  20.462  15.831  0.2932  0.4338  0.0179
35199POPC   PO468369   1.674  20.614  15.932 -0.0154 -0.2107 -0.0740
35199POPC   GL168370   1.846  20.652  16.325 -0.0359 -0.0545 -0.2503
35199POPC   GL268371   1.892  20.900  16.386 -0.1267 -0.3386  0.3611
35199POPC   C1A68372   2.073  20.592  16.726  0.2268 -0.3033 -0.0418
35199POPC   D2A68373   2.117  20.624  17.148  0.1157  0.0511  0.2014
35199POPC   C3A68374   2.120  20.914  17.457  0.3522  0.1796  0.0062
35199POPC   C4A68375   2.438  21.080  17.692  0.5807 -0.2019  0.1801
35199POPC   C1B68376   1.621  20.870  16.748 -0.0674 -0.2336  0.1750
35199POPC   C2B68377   1.708  21.002  17.215 -0.0866 -0.0785  0.2684
35199POPC   C3B68378   1.898  21.313  17.517  0.1292 -0.0456  0.0494
35199POPC   C4B68379   2.096  21.444  17.940 -0.1544 -0.0417  0.2554
35200POPC   NC368380  16.608  24.018  15.330 -0.0329  0.1834  0.0642
35200POPC   PO468381  16.991  24.098  15.388 -0.0320 -0.1338  0.3343
35200POPC   GL168382  16.832  23.757  15.631  0.1359 -0.4258 -0.3472
35200POPC   GL268383  17.022  23.531  15.672 -0.0453 -0.1050 -0.0802
35200POPC   C1A68384  16.632  23.811  16.100 -0.2242 -0.1001  0.1626
35200POPC   D2A68385  16.372  23.732  16.430  0.1737  0.0645 -0.2550
35200POPC   C3A68386  16.123  23.685  16.800  0.3968  0.2070 -0.1353
35200POPC   C4A68387  16.149  23.478  17.221 -0.0564  0.3354  0.3704
35200POPC   C1B68388  16.968  23.372  16.069 -0.0558 -0.3565 -0.0701
35200POPC   C2B68389  16.811  23.462  16.487 -0.1629 -0.0268  0.0869
35200POPC   C3B68390  16.532  23.437  16.815 -0.0833  0.0181  0.1200
35200POPC   C4B68391  16.538  23.177  17.209 -0.3768 -0.1511  0.1763
35201POPC   NC368392   9.526  29.474  10.034  0.1246  0.1651 -0.2781
35201POPC   PO468393   9.534  29.359   9.648 -0.0188  0.0178 -0.1265
35201POPC   GL168394   9.576  29.031   9.380 -0.0518  0.0119  0.1026
35201POPC   GL268395   9.385  28.983   9.253 -0.2256 -0.2391 -0.0867
35201POPC   C1A68396   9.841  28.994   9.000 -0.0034 -0.0164 -0.0709
35201POPC   D2A68397   9.919  29.317   8.632 -0.0475  0.2827  0.0295
35201POPC   C3A68398   9.625  29.394   8.278  0.2421  0.1761 -0.1503
35201POPC   C4A68399   9.375  29.268   7.934 -0.1153  0.1637 -0.0922
35201POPC   C1B68400   9.473  29.393   8.963  0.0618 -0.0151  0.2046
35201POPC   C2B68401   9.511  29.776   8.672 -0.0237  0.1458 -0.3165
35201POPC   C3B68402   9.532  29.882   8.211  0.0376  0.1527  0.0831
35201POPC   C4B68403   9.527  29.688   7.780  0.1240  0.1219 -0.1755
35202POPC   NC368404   3.440  24.502  15.965  0.1737  0.4156  0.0050
35202POPC   PO468405   3.352  24.882  15.852  0.0306  0.3544  0.4028
35202POPC   GL168406   3.621  24.922  16.197  0.2491  0.2723 -0.0209
35202POPC   GL268407   3.524  25.047  16.436 -0.0748 -0.1354 -0.2592
35202POPC   C1A68408   3.874  24.531  16.400 -0.0777  0.1781 -0.0211
35202POPC   D2A68409   4.160  24.311  16.656  0.1249 -0.0047  0.1642
35202POPC   C3A68410   4.203  24.338  17.144  0.0301 -0.0800  0.2494
35202POPC   C4A68411   3.904  24.190  17.452 -0.2196  0.2584  0.0758
35202POPC   C1B68412   3.701  25.239  16.777  0.0301  0.0919 -0.1252
35202POPC   C2B68413   3.603  25.559  17.067 -0.1978  0.0031  0.0367
35202POPC   C3B68414   3.553  25.726  17.511  0.0482 -0.0521  0.3926
35202POPC   C4B68415   3.380  25.580  17.892  0.2344  0.1074  0.2919
35203POPC   NC368416   1.634  17.349  16.390 -0.2654  0.1537  0.1942
35203POPC   PO468417   1.454  17.023  16.284 -0.1307  0.1560 -0.0239
35203POPC   GL168418   1.092  17.158  16.545  0.0084  0.1663 -0.1277
35203POPC   GL268419   1.085  17.389  16.414 -0.1931  0.1586  0.1973
35203POPC   C1A68420   0.981  17.244  17.012 -0.0102  0.2077  0.1136
35203POPC   D2A68421   0.804  17.350  17.393 -0.0925 -0.3823  0.3421
35203POPC   C3A68422   0.596  17.096  17.704 -0.0060  0.0344 -0.2002
35203POPC   C4A68423   0.499  17.170  18.156 -0.0105 -0.2307  0.0331
35203POPC   C1B68424   0.724  17.484  16.690  0.0231  0.0331  0.0586
35203POPC   C2B68425   0.566  17.679  17.078  0.2855  0.0024  0.2291
35203POPC   C3B68426   0.572  17.745  17.528  0.2388 -0.2345  0.0520
35203POPC   C4B68427   0.753  17.582  17.952  0.1988 -0.0268  0.0609
35204POPC   NC368428  12.045  27.072  13.077 -0.1347  0.1233  0.2022
35204POPC   PO468429  12.047  26.693  13.200  0.1768 -0.2089  0.4811
35204POPC   GL168430  11.686  26.439  13.157 -0.2611 -0.1936 -0.2043
35204POPC   GL268431  11.843  26.300  13.042 -0.0487  0.0815 -0.0223
35204POPC   C1A68432  11.534  26.263  13.532  0.1682  0.0199  0.0158
35204POPC   D2A68433  11.696  25.945  13.792  0.0780  0.3062 -0.0816
35204POPC   C3A68434  11.608  25.548  13.845 -0.2559  0.2302  0.0806
35204POPC   C4A68435  11.465  25.140  13.605 -0.2728 -0.2058 -0.0487
35204POPC   C1B68436  11.783  25.942  12.816 -0.0165 -0.0534 -0.1943
35204POPC   C2B68437  11.549  25.734  12.533  0.6472  0.4365 -0.0386
35204POPC   C3B68438  11.268  25.405  12.334 -0.0986  0.0558 -0.0502
35204POPC   C4B68439  11.017  25.534  11.998 -0.0606 -0.2269  0.2586
35205POPC   NC368440  14.814  20.511  12.750  0.1141 -0.1803  0.1240
35205POPC   PO468441  14.786  20.883  12.661  0.1507  0.3057  0.1587
35205POPC   GL168442  14.427  20.949  12.725  0.0130  0.4490 -0.3316
35205POPC   GL268443  14.280  20.675  12.543  0.0300 -0.0125 -0.0772
35205POPC   C1A68444  14.161  21.286  12.894  0.0426 -0.1135  0.0549
35205POPC   D2A68445  13.732  21.348  13.057 -0.2193  0.1714 -0.1045
35205POPC   C3A68446  13.423  21.234  13.392  0.0241 -0.1200  0.1661
35205POPC   C4A68447  13.038  21.400  13.579  0.1498 -0.1888  0.0953
35205POPC   C1B68448  13.901  20.916  12.589 -0.1253  0.0587  0.1251
35205POPC   C2B68449  13.533  21.068  12.696 -0.2375 -0.1111  0.1627
35205POPC   C3B68450  13.260  21.438  12.920 -0.0283  0.0048 -0.1528
35205POPC   C4B68451  12.874  21.507  12.796 -0.0517  0.0946 -0.2262
35206POPC   NC368452  10.735  29.816  16.104 -0.0731 -0.1943  0.0019
35206POPC   PO468453  10.581  30.030  16.428 -0.2857  0.0666  0.2528
35206POPC   GL168454  10.513  30.167  16.682 -0.2557  0.1267 -0.2986
35206POPC   GL268455  10.301  30.436  16.767  0.5640 -0.0390 -0.0179
35206POPC   C1A68456  10.378  30.092  17.100  0.0248  0.0628  0.0046
35206POPC   D2A68457  10.002  30.114  17.388 -0.1509 -0.0976 -0.0940
35206POPC   C3A68458  10.005  30.336  17.765 -0.2581 -0.0620 -0.1625
35206POPC   C4A68459  10.211  30.620  18.093 -0.0907 -0.0070  0.0223
35206POPC   C1B68460   9.950  30.634  17.087  0.0241 -0.0324 -0.0985
35206POPC   C2B68461   9.831  30.798  17.519  0.1400 -0.4035 -0.0999
35206POPC   C3B68462   9.722  30.702  18.016  0.1399 -0.1432 -0.1416
35206POPC   C4B68463   9.404  30.524  18.300  0.0387 -0.0705 -0.1949
35207POPC   NC368464  31.988  20.014  15.244 -0.1198 -0.0312  0.4383
35207POPC   PO468465  32.374  19.905  15.311 -0.0537  0.2042 -0.4646
35207POPC   GL168466  32.172  20.088  15.664 -0.3315 -0.1124  0.0009
35207POPC   GL268467  31.956  20.312  15.688 -0.1191  0.1399 -0.4209
35207POPC   C1A68468  32.171  19.878  16.056  0.1554 -0.1939 -0.1051
35207POPC   D2A68469  32.203  19.590  16.385  0.1781  0.1815 -0.1929
35207POPC   C3A68470  31.937  19.539  16.751  0.0455 -0.0796 -0.0479
35207POPC   C4A68471  31.850  19.486  17.222  0.2334 -0.1424 -0.0491
35207POPC   C1B68472  31.916  20.283  16.167  0.1586 -0.0493 -0.0096
35207POPC   C2B68473  31.843  19.950  16.504 -0.1911  0.2300 -0.1642
35207POPC   C3B68474  31.633  19.968  16.902  0.1546 -0.1357 -0.1163
35207POPC   C4B68475  31.415  19.987  17.297 -0.0487  0.0116 -0.1935
35208POPC   NC368476  14.229  30.831  16.525  0.0489  0.1892 -0.1261
35208POPC   PO468477  14.204  31.185  16.446  0.1533 -0.0297  0.0765
35208POPC   GL168478  14.280  31.377  16.761  0.1771 -0.2522  0.0806
35208POPC   GL268479  14.065  31.576  16.827 -0.0221  0.1789  0.3597
35208POPC   C1A68480  14.304  31.388  17.214  0.1133  0.0729  0.0559
35208POPC   D2A68481  14.306  31.388  17.708  0.1875  0.0882  0.3187
35208POPC   C3A68482  14.166  31.068  17.975  0.0729 -0.1671 -0.2625
35208POPC   C4A68483  14.017  30.865  18.389 -0.0742  0.1552 -0.1231
35208POPC   C1B68484  13.896  31.694  17.205  0.1198  0.1094  0.3203
35208POPC   C2B68485  14.004  31.826  17.677  0.1260 -0.0138  0.0211
35208POPC   C3B68486  13.803  32.035  17.977 -0.1276  0.1093 -0.0204
35208POPC   C4B68487  13.440  32.228  18.173  0.0846 -0.0105 -0.0991
35209POPC   NC368488   3.931  30.139  16.768 -0.1735 -0.2572 -0.1002
35209POPC   PO468489   4.155  29.967  16.504 -0.1333 -0.2201 -0.1808
35209POPC   GL168490   4.430  29.736  16.792  0.0957 -0.2457 -0.0486
35209POPC   GL268491   4.167  29.768  17.031 -0.0416 -0.0201 -0.1416
35209POPC   C1A68492   4.629  29.630  17.179  0.0594 -0.0478 -0.2425
35209POPC   D2A68493   4.502  29.403  17.578  0.0201  0.1783 -0.0398
35209POPC   C3A68494   4.498  29.192  17.995 -0.4594 -0.3594  0.0160
35209POPC   C4A68495   4.822  29.075  18.328  0.0029  0.0392  0.0822
35209POPC   C1B68496   4.203  29.769  17.502 -0.2373 -0.3860  0.0643
35209POPC   C2B68497   4.329  29.802  17.924  0.3447 -0.5782  0.2403
35209POPC   C3B68498   4.271  29.597  18.292  0.2619 -0.0520  0.3455
35209POPC   C4B68499   4.025  29.600  18.623  0.1596  0.0075 -0.0212
35210POPC   NC368500  14.906  27.648  16.354  0.3013 -0.1670  0.4291
35210POPC   PO468501  14.581  27.720  16.565 -0.0870 -0.0516  0.1602
35210POPC   GL168502  14.483  27.554  16.906 -0.0378  0.4058 -0.4225
35210POPC   GL268503  14.362  27.787  16.997  0.1357 -0.0794 -0.0523
35210POPC   C1A68504  14.460  27.352  17.342  0.0336 -0.0388  0.2088
35210POPC   D2A68505  14.444  26.995  17.682  0.1572  0.0402 -0.0536
35210POPC   C3A68506  14.639  26.829  18.056  0.1036 -0.0458 -0.0913
35210POPC   C4A68507  14.754  26.385  18.237 -0.1609  0.0115 -0.2309
35210POPC   C1B68508  14.052  27.428  17.073  0.0163  0.2892 -0.0574
35210POPC   C2B68509  13.721  27.177  17.240  0.0370  0.0398  0.0495
35210POPC   C3B68510  13.403  26.847  17.311 -0.0225 -0.5016  0.0820
35210POPC   C4B68511  13.226  26.487  17.532  0.3592 -0.2246  0.2776
35211POPC   NC368512   5.775  16.871  15.423 -0.4323  0.0700 -0.0907
35211POPC   PO468513   6.062  16.651  15.421 -0.0687  0.1504  0.0898
35211POPC   GL168514   6.217  16.977  15.509 -0.3800 -0.0831 -0.2762
35211POPC   GL268515   6.110  17.190  15.606 -0.0205 -0.1446  0.2940
35211POPC   C1A68516   6.481  17.102  15.922 -0.0801 -0.0809  0.2223
35211POPC   D2A68517   6.848  17.274  16.048  0.2059 -0.1778 -0.3184
35211POPC   C3A68518   6.727  17.497  16.478 -0.0685 -0.1650  0.1526
35211POPC   C4A68519   6.854  17.675  16.868  0.0155  0.3007  0.0887
35211POPC   C1B68520   6.026  17.231  16.077 -0.2043  0.0108  0.1159
35211POPC   C2B68521   6.230  17.589  16.350  0.2210  0.0093  0.2047
35211POPC   C3B68522   6.245  17.844  16.747  0.5378  0.0887 -0.1865
35211POPC   C4B68523   6.213  18.259  17.006 -0.0850 -0.1853 -0.1354
35212POPC   NC368524  12.028  28.522  16.331  0.1424 -0.0180  0.0981
35212POPC   PO468525  12.065  28.881  16.291  0.1110  0.1954 -0.0931
35212POPC   GL168526  12.213  28.957  16.640  0.1234  0.1541 -0.0167
35212POPC   GL268527  12.106  28.707  16.796  0.1157 -0.0176  0.0656
35212POPC   C1A68528  12.258  29.068  17.110 -0.3696  0.2427  0.0673
35212POPC   D2A68529  12.004  29.223  17.473  0.2576  0.1892  0.0873
35212POPC   C3A68530  11.853  28.966  17.851  0.0183  0.0361 -0.0347
35212POPC   C4A68531  12.014  28.756  18.199 -0.1499  0.0084 -0.0035
35212POPC   C1B68532  12.363  28.523  17.104 -0.1189 -0.2138  0.1467
35212POPC   C2B68533  12.573  28.619  17.478 -0.0860 -0.0091  0.0604
35212POPC   C3B68534  12.475  28.759  17.920 -0.0503 -0.2071  0.2814
35212POPC   C4B68535  12.710  28.646  18.278 -0.2135 -0.1089  0.2177
35213POPC   NC368536   6.016  32.835  15.415 -0.0996  0.1863 -0.2151
35213POPC   PO468537   6.360  32.693  15.387  0.0304 -0.3282  0.1312
35213POPC   GL168538   6.441  33.032  15.525  0.1772 -0.2604 -0.1076
35213POPC   GL268539   6.254  33.204  15.689 -0.2562  0.4303 -0.0136
35213POPC   C1A68540   6.719  33.298  15.820 -0.1476  0.0411 -0.0133
35213POPC   D2A68541   6.760  33.490  16.183  0.1639 -0.0601 -0.1275
35213POPC   C3A68542   7.070  33.585  16.560  0.1253 -0.1597  0.3430
35213POPC   C4A68543   7.150  33.953  16.800 -0.0642 -0.3080  0.3212
35213POPC   C1B68544   6.255  33.264  16.112  0.1965 -0.2442  0.1583
35213POPC   C2B68545   6.194  33.464  16.517  0.2286 -0.0165 -0.0448
35213POPC   C3B68546   6.280  33.542  16.911  0.2323 -0.0988 -0.0587
35213POPC   C4B68547   6.378  33.532  17.354  0.0912 -0.0743  0.0652
35214POPC   NC368548   5.526  16.215  14.874  0.0918  0.4223  0.0690
35214POPC   PO468549   5.594  16.443  15.216 -0.0531  0.1708  0.2829
35214POPC   GL168550   5.495  16.335  15.673 -0.4100 -0.1884  0.0879
35214POPC   GL268551   5.698  16.496  15.841  0.1641 -0.2599 -0.0181
35214POPC   C1A68552   5.228  16.432  16.087 -0.2219  0.2174 -0.1019
35214POPC   D2A68553   5.167  16.750  16.379  0.2835  0.2056 -0.0081
35214POPC   C3A68554   5.199  16.703  16.895  0.1828  0.3266 -0.1027
35214POPC   C4A68555   5.482  16.831  17.187 -0.0021  0.0940 -0.1526
35214POPC   C1B68556   5.632  16.857  16.137  0.1451 -0.1983  0.0439
35214POPC   C2B68557   5.778  17.159  16.466  0.1365  0.0069  0.0737
35214POPC   C3B68558   5.909  17.486  16.768  0.1676  0.0660 -0.0744
35214POPC   C4B68559   5.996  17.665  17.202 -0.0807 -0.1437  0.0818
35215POPC   NC368560  12.630  26.710  11.957  0.0255  0.1452  0.0104
35215POPC   PO468561  12.399  26.830  11.666  0.0232 -0.0388 -0.4478
35215POPC   GL168562  12.357  26.517  11.582 -0.0884  0.0024 -0.0128
35215POPC   GL268563  12.531  26.294  11.588  0.0883  0.0680  0.0352
35215POPC   C1A68564  12.208  26.260  11.184 -0.4604 -0.4658 -0.0529
35215POPC   D2A68565  11.850  26.075  10.939  0.1362 -0.0032 -0.0403
35215POPC   C3A68566  11.396  25.901  10.978 -0.2010 -0.1676  0.0358
35215POPC   C4A68567  11.052  25.662  10.956 -0.0855  0.0142  0.0025
35215POPC   C1B68568  12.231  25.912  11.674  0.1460 -0.0274  0.0577
35215POPC   C2B68569  12.013  25.444  11.723 -0.0272 -0.2711 -0.0569
35215POPC   C3B68570  11.801  25.051  11.535  0.1216  0.2201 -0.4252
35215POPC   C4B68571  11.413  24.829  11.411 -0.1832  0.1103  0.0222
35216POPC   NC368572  13.122  27.444  16.168  0.0713 -0.1128 -0.2217
35216POPC   PO468573  12.865  27.764  16.170 -0.3203 -0.2657 -0.0805
35216POPC   GL168574  12.683  27.404  16.352  0.3186 -0.2068 -0.0361
35216POPC   GL268575  12.761  27.483  16.621 -0.0578  0.2257 -0.1577
35216POPC   C1A68576  12.335  27.227  16.616  0.0414  0.0103 -0.1579
35216POPC   D2A68577  12.245  26.933  16.916 -0.1479 -0.2407  0.0862
35216POPC   C3A68578  12.123  26.762  17.329  0.0557  0.1621 -0.0005
35216POPC   C4A68579  11.906  26.389  17.378 -0.1482 -0.0295 -0.2652
35216POPC   C1B68580  12.883  27.100  16.764  0.0423  0.1855 -0.4843
35216POPC   C2B68581  12.789  26.855  17.186  0.1492 -0.0055 -0.0803
35216POPC   C3B68582  12.696  26.515  17.459  0.0615 -0.1422  0.3875
35216POPC   C4B68583  12.849  26.247  17.827  0.1358  0.1647  0.2156
35217POPC   NC368584  12.354  26.396  14.543  0.4341  0.1472 -0.1980
35217POPC   PO468585  12.017  26.479  14.678 -0.0774 -0.0837 -0.0005
35217POPC   GL168586  11.854  26.144  14.849 -0.0325 -0.0115 -0.2139
35217POPC   GL268587  11.709  26.160  15.097  0.0020 -0.5408  0.0477
35217POPC   C1A68588  11.707  25.732  14.821  0.1863  0.2089  0.1381
35217POPC   D2A68589  11.473  25.331  14.758 -0.2060 -0.0599 -0.1380
35217POPC   C3A68590  11.389  25.077  15.115 -0.1082  0.0352 -0.1083
35217POPC   C4A68591  11.501  24.766  15.448 -0.0298 -0.1809 -0.5339
35217POPC   C1B68592  11.525  25.902  15.410  0.2888  0.0988  0.4722
35217POPC   C2B68593  11.240  25.550  15.274 -0.0772 -0.1637  0.3606
35217POPC   C3B68594  10.931  25.219  15.215  0.1329 -0.1199  0.2381
35217POPC   C4B68595  10.605  24.945  15.362  0.1993 -0.1024  0.2513
35218POPC   NC368596  15.281  26.555  15.680 -0.1828  0.0296 -0.0821
35218POPC   PO468597  15.556  26.662  15.942 -0.1077  0.0228 -0.1556
35218POPC   GL168598  15.473  26.662  16.251  0.0011 -0.0280  0.0849
35218POPC   GL268599  15.218  26.657  16.326 -0.0308 -0.0279  0.0335
35218POPC   C1A68600  15.717  26.657  16.663  0.2210  0.0650 -0.0780
35218POPC   D2A68601  15.662  26.594  17.076  0.1903  0.0496  0.1284
35218POPC   C3A68602  15.883  26.575  17.471  0.0002  0.0145 -0.2779
35218POPC   C4A68603  15.999  26.181  17.740 -0.1939 -0.2734  0.1363
35218POPC   C1B68604  15.075  26.309  16.594 -0.1180  0.1601  0.2097
35218POPC   C2B68605  14.955  25.990  16.903 -0.2069 -0.1452 -0.0677
35218POPC   C3B68606  14.830  25.738  17.342  0.2961  0.0039  0.0169
35218POPC   C4B68607  14.760  25.535  17.768 -0.3751 -0.0561 -0.1611
35219POPC   NC368608  11.045  27.017  13.879  0.1025 -0.1601  0.1014
35219POPC   PO468609  11.255  26.881  14.146  0.0123 -0.2749  0.1557
35219POPC   GL168610  11.011  26.490  14.108 -0.1541 -0.0089 -0.1354
35219POPC   GL268611  11.303  26.401  14.081  0.0505  0.0150  0.1888
35219POPC   C1A68612  10.602  26.378  14.276 -0.1414  0.0209 -0.1905
35219POPC   D2A68613  10.160  26.299  14.107  0.1942 -0.0746  0.0964
35219POPC   C3A68614  10.058  25.870  14.259  0.1363 -0.2805 -0.2704
35219POPC   C4A68615   9.805  25.523  14.419  0.2463 -0.0261 -0.0931
35219POPC   C1B68616  11.244  25.990  13.916  0.1557 -0.1375 -0.1870
35219POPC   C2B68617  10.964  25.692  14.123  0.6477  0.1018  0.0736
35219POPC   C3B68618  10.593  25.703  14.413 -0.1079  0.5060  0.1416
35219POPC   C4B68619  10.235  25.600  14.687 -0.2793 -0.0438 -0.0517
35220POPC   NC368620   4.627  24.521  14.418 -0.0591 -0.5260 -0.2435
35220POPC   PO468621   4.701  24.141  14.387  0.0818 -0.1747 -0.2250
35220POPC   GL168622   5.058  24.393  14.374 -0.2185  0.0720 -0.0030
35220POPC   GL268623   5.136  24.262  14.644 -0.0170 -0.1350 -0.1151
35220POPC   C1A68624   5.506  24.180  14.364  0.1173  0.1934  0.2779
35220POPC   D2A68625   6.025  24.232  14.372  0.1310  0.5451 -0.1947
35220POPC   C3A68626   6.389  24.000  14.178 -0.2529 -0.0987 -0.0739
35220POPC   C4A68627   6.660  23.752  13.959  0.0952  0.0283  0.3118
35220POPC   C1B68628   5.428  23.928  14.816 -0.1316  0.0454 -0.5334
35220POPC   C2B68629   5.773  23.666  15.010  0.1122  0.1889 -0.2512
35220POPC   C3B68630   6.160  23.415  14.959  0.0247  0.0289 -0.0494
35220POPC   C4B68631   6.609  23.193  15.059  0.6117 -0.1073 -0.0388
35221POPC   NC368632  10.184  28.490  10.452 -0.0548  0.3910  0.0433
35221POPC   PO468633  10.108  28.205  10.242  0.0053 -0.1479 -0.1525
35221POPC   GL168634  10.387  28.037  10.006 -0.3364 -0.3215 -0.0633
35221POPC   GL268635  10.470  27.776  10.011  0.0278 -0.1923  0.2664
35221POPC   C1A68636  10.362  27.981   9.528 -0.1009 -0.0448 -0.0181
35221POPC   D2A68637  10.013  27.856   9.252 -0.3580  0.0167 -0.2607
35221POPC   C3A68638   9.743  27.563   9.093  0.1179  0.0867  0.0568
35221POPC   C4A68639   9.856  27.128   8.873 -0.0113  0.2691 -0.3598
35221POPC   C1B68640  10.255  27.526   9.657 -0.0153 -0.0794 -0.0507
35221POPC   C2B68641  10.226  27.447   9.211  0.0282  0.0024 -0.3709
35221POPC   C3B68642  10.288  27.002   9.040  0.1056 -0.0436 -0.1454
35221POPC   C4B68643  10.207  26.591   9.217 -0.0669 -0.0550 -0.0358
35222POPC   NC368644  32.513  23.281  15.878  0.0330 -0.1026 -0.0210
35222POPC   PO468645  32.179  23.384  15.753  0.0462 -0.2890 -0.3647
35222POPC   GL168646  31.999  23.061  15.996  0.0531 -0.1406  0.4619
35222POPC   GL268647  32.171  23.049  16.253 -0.0340 -0.1037 -0.2219
35222POPC   C1A68648  31.704  23.229  16.304  0.2004  0.1151 -0.1975
35222POPC   D2A68649  31.532  23.165  16.733 -0.0364  0.0096  0.1813
35222POPC   C3A68650  31.269  23.464  16.941  0.1007  0.0981  0.1437
35222POPC   C4A68651  30.986  23.750  16.811  0.2740  0.0076  0.0113
35222POPC   C1B68652  32.075  22.848  16.648  0.0787  0.0729 -0.1392
35222POPC   C2B68653  31.930  22.723  17.076 -0.0661  0.1531 -0.1307
35222POPC   C3B68654  31.876  22.649  17.541 -0.1479  0.3573  0.1080
35222POPC   C4B68655  31.979  22.880  17.935  0.2018 -0.1458  0.0856
35223POPC   NC368656   2.730  18.535  15.533 -0.3462 -0.3793 -0.1548
35223POPC   PO468657   2.514  18.862  15.557  0.0445  0.3670 -0.1663
35223POPC   GL168658   2.492  19.088  15.772  0.4854  0.3753  0.0641
35223POPC   GL268659   2.296  19.335  15.826 -0.0455 -0.0686 -0.1407
35223POPC   C1A68660   2.706  19.233  16.086 -0.1016  0.3806 -0.1747
35223POPC   D2A68661   2.834  19.364  16.491 -0.0450 -0.2487  0.2797
35223POPC   C3A68662   3.077  19.605  16.827  0.1731  0.2194  0.3592
35223POPC   C4A68663   3.395  19.820  17.090 -0.3196  0.0723  0.0015
35223POPC   C1B68664   2.325  19.532  16.211  0.0009  0.3786  0.0568
35223POPC   C2B68665   2.405  19.667  16.668  0.1841  0.0792  0.3166
35223POPC   C3B68666   2.359  19.645  17.181 -0.3322  0.3112 -0.2897
35223POPC   C4B68667   2.117  19.739  17.540  0.4212 -0.0369  0.2448
35224POPC   NC368668   8.041  30.849  16.224  0.1121  0.0590 -0.0344
35224POPC   PO468669   8.294  30.590  16.100  0.0454  0.5513 -0.2025
35224POPC   GL168670   8.155  30.414  16.482  0.0356  0.0290  0.0755
35224POPC   GL268671   7.832  30.563  16.553 -0.2134  0.0304  0.0071
35224POPC   C1A68672   8.128  30.548  16.944 -0.0467 -0.1496  0.1154
35224POPC   D2A68673   8.087  30.565  17.384 -0.1447  0.0032 -0.3809
35224POPC   C3A68674   7.696  30.706  17.617 -0.1602 -0.1755 -0.0974
35224POPC   C4A68675   7.509  30.951  18.009 -0.3124  0.1731  0.2292
35224POPC   C1B68676   8.021  30.990  16.703 -0.2112  0.0065  0.0301
35224POPC   C2B68677   8.114  31.366  16.958 -0.3601 -0.0454 -0.2344
35224POPC   C3B68678   8.278  31.507  17.361 -0.0313  0.1097  0.3225
35224POPC   C4B68679   8.644  31.603  17.650 -0.3011  0.0081  0.0080
35225POPC   NC368680  15.275  22.266  14.447  0.0864 -0.1654 -0.1977
35225POPC   PO468681  15.031  22.278  14.171  0.0685  0.0853  0.1533
35225POPC   GL168682  14.798  22.087  14.360 -0.2539 -0.1830  0.2962
35225POPC   GL268683  14.902  21.826  14.485 -0.0289  0.2238  0.3101
35225POPC   C1A68684  14.401  21.874  14.239 -0.1506 -0.1083 -0.0982
35225POPC   D2A68685  14.281  21.521  13.987 -0.1883 -0.3958 -0.2743
35225POPC   C3A68686  13.865  21.376  14.160  0.1369  0.0818  0.1113
35225POPC   C4A68687  13.530  21.120  14.346  0.0548  0.3109  0.1685
35225POPC   C1B68688  14.574  21.932  14.821 -0.1165 -0.0714  0.0541
35225POPC   C2B68689  14.229  22.036  15.042 -0.0176  0.0031 -0.1945
35225POPC   C3B68690  13.974  21.840  15.335 -0.0401  0.2851 -0.2094
35225POPC   C4B68691  13.826  21.469  15.491 -0.2807  0.1349  0.2667
35226POPC   NC368692   4.768  24.358  11.285 -0.2307  0.0242  0.1288
35226POPC   PO468693   4.831  24.286  11.697 -0.1212 -0.0751 -0.1528
35226POPC   GL168694   5.205  24.193  11.469 -0.0044  0.1421  0.1241
35226POPC   GL268695   5.446  24.325  11.575 -0.1379  0.0703  0.0626
35226POPC   C1A68696   5.270  23.861  11.169 -0.1147  0.1964 -0.1886
35226POPC   D2A68697   5.212  23.480  10.949  0.1377 -0.1115 -0.2662
35226POPC   C3A68698   5.556  23.215  10.775  0.2598  0.3006 -0.4145
35226POPC   C4A68699   5.636  22.814  10.552  0.0824 -0.0323 -0.0676
35226POPC   C1B68700   5.864  24.321  11.781 -0.0222 -0.4390 -0.1204
35226POPC   C2B68701   6.071  24.300  12.202 -0.1092  0.0555 -0.1187
35226POPC   C3B68702   6.357  24.164  12.543  0.1012  0.0233 -0.3380
35226POPC   C4B68703   6.753  24.068  12.701  0.0961  0.0670  0.3677
35227POPC   NC368704  14.484  24.711  13.728  0.2360 -0.0521 -0.2103
35227POPC   PO468705  14.273  24.386  13.806 -0.0809  0.0513  0.1210
35227POPC   GL168706  13.840  24.206  13.850  0.1650 -0.0519 -0.0421
35227POPC   GL268707  13.754  23.955  13.656 -0.2812 -0.1192 -0.3120
35227POPC   C1A68708  13.407  24.058  14.008 -0.0271 -0.2836  0.0019
35227POPC   D2A68709  12.978  23.901  13.914 -0.2425 -0.1454  0.1800
35227POPC   C3A68710  12.587  23.889  14.080 -0.1424 -0.1244 -0.0747
35227POPC   C4A68711  12.236  24.156  14.189 -0.1578 -0.0370  0.0536
35227POPC   C1B68712  13.438  23.648  13.784 -0.2789  0.1870 -0.0289
35227POPC   C2B68713  13.103  23.320  13.769 -0.3323 -0.2873  0.2157
35227POPC   C3B68714  12.688  23.222  13.749  0.2208  0.2199 -0.0035
35227POPC   C4B68715  12.383  23.463  13.444  0.0919  0.2948  0.1289
35228POPC   NC368716  16.774  25.186  15.860 -0.1139  0.1993 -0.3064
35228POPC   PO468717  16.919  25.535  16.008  0.0025  0.1391 -0.0464
35228POPC   GL168718  16.902  25.463  16.344 -0.0381  0.0531 -0.0726
35228POPC   GL268719  17.023  25.171  16.296  0.4887  0.2864 -0.0002
35228POPC   C1A68720  16.759  25.575  16.771  0.1928  0.1475 -0.0299
35228POPC   D2A68721  16.662  26.033  16.977  0.4028 -0.1387 -0.0143
35228POPC   C3A68722  16.854  26.116  17.404  0.2443  0.0621 -0.0763
35228POPC   C4A68723  16.928  26.299  17.806 -0.0776  0.0808  0.0698
35228POPC   C1B68724  16.730  25.104  16.693  0.6118 -0.0176  0.1767
35228POPC   C2B68725  16.629  25.032  17.149 -0.0163 -0.0228 -0.0531
35228POPC   C3B68726  16.638  25.171  17.588  0.1314  0.0011  0.0803
35228POPC   C4B68727  16.817  25.012  18.019  0.0387  0.1917  0.2094
35229POPC   NC368728  10.270  30.499  16.233  0.0030  0.0932  0.1338
35229POPC   PO468729   9.883  30.522  16.383 -0.1950  0.2351  0.1208
35229POPC   GL168730   9.744  30.699  16.736 -0.0836  0.0552  0.2676
35229POPC   GL268731   9.835  31.005  16.667  0.0475  0.1319  0.0106
35229POPC   C1A68732   9.468  30.725  17.086 -0.1084 -0.1854 -0.0265
35229POPC   D2A68733   9.344  30.876  17.543  0.1294 -0.1050  0.1694
35229POPC   C3A68734   9.113  30.735  17.923  0.1633  0.1288  0.2528
35229POPC   C4A68735   8.940  30.658  18.359  0.0488  0.1682  0.1376
35229POPC   C1B68736   9.788  31.172  17.083  0.1941 -0.2914  0.2342
35229POPC   C2B68737   9.753  31.278  17.532  0.1284 -0.0392  0.2432
35229POPC   C3B68738   9.929  31.170  17.997 -0.1350  0.0750  0.1048
35229POPC   C4B68739  10.183  31.056  18.377  0.2200 -0.3655 -0.1303
35230POPC   NC368740  12.935  31.077  16.396  0.0304 -0.0744 -0.0648
35230POPC   PO468741  13.288  31.213  16.545  0.0508  0.3876 -0.1895
35230POPC   GL168742  13.124  31.196  16.920 -0.0570 -0.2351  0.0698
35230POPC   GL268743  13.294  31.010  17.067 -0.3672 -0.1729 -0.3460
35230POPC   C1A68744  12.910  31.097  17.358 -0.1560 -0.2391  0.0907
35230POPC   D2A68745  12.742  30.977  17.818 -0.0004  0.1360 -0.2782
35230POPC   C3A68746  12.672  30.538  18.030 -0.3713  0.2176  0.0981
35230POPC   C4A68747  12.674  30.167  18.322 -0.1818 -0.0795 -0.0984
35230POPC   C1B68748  13.328  31.086  17.523  0.0733 -0.0915  0.0247
35230POPC   C2B68749  13.236  31.194  17.960  0.0646  0.1120 -0.0602
35230POPC   C3B68750  12.930  31.502  18.134 -0.0621  0.1474  0.1569
35230POPC   C4B68751  12.530  31.379  18.000 -0.2909  0.0031 -0.0952
35231POPC   NC368752   2.164  26.982  15.822  0.2245  0.2374  0.2117
35231POPC   PO468753   2.460  26.985  15.998 -0.1290 -0.1101  0.2559
35231POPC   GL168754   2.377  27.128  16.449  0.0714 -0.0592 -0.0048
35231POPC   GL268755   2.374  26.938  16.644  0.0205  0.1212  0.2516
35231POPC   C1A68756   2.014  27.251  16.714 -0.1327 -0.3121  0.1084
35231POPC   D2A68757   1.644  27.082  16.963  0.1893  0.1845 -0.0659
35231POPC   C3A68758   1.550  27.004  17.427 -0.2946  0.0405  0.1964
35231POPC   C4A68759   1.677  26.971  17.879  0.0852 -0.0216 -0.1941
35231POPC   C1B68760   2.117  26.852  17.046  0.0730  0.0022 -0.2584
35231POPC   C2B68761   2.062  26.740  17.443  0.5546  0.2367  0.0821
35231POPC   C3B68762   1.881  26.454  17.690 -0.1934  0.1445 -0.2908
35231POPC   C4B68763   1.443  26.357  17.991 -0.2969  0.1136  0.4869
35232POPC   NC368764   0.693  28.096  16.473  0.1133 -0.0918  0.2424
35232POPC   PO468765   0.879  27.750  16.413  0.0325  0.0640 -0.0234
35232POPC   GL168766   0.962  27.755  16.813  0.2186  0.1427  0.0990
35232POPC   GL268767   1.160  27.515  16.826  0.0329 -0.1230  0.2424
35232POPC   C1A68768   1.301  27.934  17.092 -0.4346  0.0580  0.3581
35232POPC   D2A68769   1.345  28.108  17.493 -0.2684  0.0395 -0.0538
35232POPC   C3A68770   1.059  27.884  17.800 -0.2782  0.0692  0.2881
35232POPC   C4A68771   0.659  27.948  18.010 -0.2165 -0.2030  0.0644
35232POPC   C1B68772   0.969  27.575  17.242 -0.0213  0.3484  0.3369
35232POPC   C2B68773   0.759  27.494  17.678  0.1219  0.0612 -0.0248
35232POPC   C3B68774   0.781  27.487  18.167  0.0610 -0.2777  0.0363
35232POPC   C4B68775   0.706  27.635  18.577 -0.1087 -0.2773  0.0469
35233POPC   NC368776  16.658  26.403  16.634  0.2020  0.1214  0.1797
35233POPC   PO468777  16.522  26.603  16.308 -0.0063 -0.3336  0.1181
35233POPC   GL168778  16.590  26.872  16.620 -0.0456 -0.1051 -0.0285
35233POPC   GL268779  16.290  26.783  16.697  0.2172  0.3731  0.0619
35233POPC   C1A68780  16.934  26.965  16.878  0.0163  0.1392 -0.1826
35233POPC   D2A68781  16.948  27.020  17.324  0.2626 -0.0923  0.4619
35233POPC   C3A68782  16.672  27.222  17.601  0.0287  0.1636 -0.2291
35233POPC   C4A68783  16.576  27.593  17.827 -0.2308 -0.0142 -0.1556
35233POPC   C1B68784  16.241  26.518  17.078 -0.1604 -0.0560 -0.1394
35233POPC   C2B68785  16.287  26.149  17.350  0.1086 -0.2039 -0.1849
35233POPC   C3B68786  16.414  25.876  17.669  0.0098 -0.2271  0.0387
35233POPC   C4B68787  16.590  25.506  17.939 -0.2127 -0.1508  0.1038
35234POPC   NC368788  12.112  30.730  16.480 -0.0757 -0.0511 -0.1443
35234POPC   PO468789  12.340  30.449  16.729 -0.0281 -0.0253 -0.1937
35234POPC   GL168790  12.129  30.617  16.969 -0.0551 -0.1194 -0.0053
35234POPC   GL268791  11.837  30.471  16.893  0.0561  0.1438 -0.0716
35234POPC   C1A68792  12.150  30.552  17.479  0.2748  0.2370 -0.0052
35234POPC   D2A68793  12.000  30.221  17.757  0.2526  0.1412  0.1666
35234POPC   C3A68794  11.701  30.316  18.172 -0.1273 -0.0330  0.5438
35234POPC   C4A68795  11.910  30.466  18.543  0.0643  0.0603  0.2622
35234POPC   C1B68796  11.638  30.285  17.313 -0.2135  0.2116  0.0108
35234POPC   C2B68797  11.382  30.346  17.696  0.2998  0.0212 -0.0594
35234POPC   C3B68798  11.052  30.540  17.952 -0.0849 -0.1359  0.0522
35234POPC   C4B68799  10.759  30.591  18.315 -0.1427 -0.1426  0.2597
35235POPC   NC368800   2.980  17.148  15.941  0.0377  0.0428  0.2647
35235POPC   PO468801   2.706  16.825  15.884  0.1417 -0.0787 -0.2335
35235POPC   GL168802   2.612  16.901  16.308  0.1176  0.3846  0.0080
35235POPC   GL268803   2.673  17.213  16.359  0.0707 -0.1790 -0.0649
35235POPC   C1A68804   2.623  16.640  16.646  0.1513  0.3397  0.3403
35235POPC   D2A68805   2.352  16.332  16.939  0.0428  0.0608  0.2750
35235POPC   C3A68806   2.263  16.519  17.391  0.0605  0.3027 -0.1294
35235POPC   C4A68807   2.262  16.479  17.870  0.0844  0.0335 -0.2539
35235POPC   C1B68808   2.659  17.611  16.583  0.0180  0.0120 -0.1231
35235POPC   C2B68809   2.925  17.741  16.949  0.1169 -0.1992  0.3253
35235POPC   C3B68810   3.033  17.515  17.373 -0.2670 -0.1899  0.0525
35235POPC   C4B68811   3.355  17.257  17.669 -0.0917 -0.2318  0.3459
35236POPC   NC368812  10.389  27.965  11.234 -0.0441  0.0946 -0.2810
35236POPC   PO468813  10.507  27.745  10.951  0.1248  0.0430 -0.0510
35236POPC   GL168814  10.433  27.418  10.887 -0.2810 -0.1046  0.0534
35236POPC   GL268815  10.701  27.302  10.698  0.1590 -0.3402  0.1645
35236POPC   C1A68816  10.151  27.157  10.689  0.1195  0.0836  0.1605
35236POPC   D2A68817   9.936  26.875  10.418  0.1349 -0.0176 -0.1350
35236POPC   C3A68818  10.280  26.559  10.226  0.1018 -0.0031  0.1263
35236POPC   C4A68819  10.403  26.143  10.204  0.1072  0.1418  0.1977
35236POPC   C1B68820  10.601  26.935  10.413 -0.0473 -0.0261  0.0200
35236POPC   C2B68821  10.739  26.710  10.030  0.0245  0.2134  0.2200
35236POPC   C3B68822  10.434  26.379   9.759 -0.2858 -0.1168  0.3048
35236POPC   C4B68823  10.504  26.169   9.321 -0.0884  0.4273  0.1373
35237POPC   NC368824  12.817  31.153  15.692 -0.0734 -0.0409 -0.2126
35237POPC   PO468825  12.986  31.328  15.983 -0.0810  0.0630  0.0876
35237POPC   GL168826  12.782  31.480  16.245  0.0094 -0.3958 -0.1551
35237POPC   GL268827  12.799  31.812  16.265 -0.0157  0.0846 -0.2990
35237POPC   C1A68828  12.445  31.568  16.525  0.0930  0.2427 -0.1356
35237POPC   D2A68829  12.430  31.869  16.841  0.1002  0.1869 -0.1353
35237POPC   C3A68830  12.410  31.923  17.266  0.0918  0.3059  0.0427
35237POPC   C4A68831  12.501  32.301  17.491  0.0858 -0.1250  0.1114
35237POPC   C1B68832  12.828  32.196  16.455  0.0656  0.0182 -0.0175
35237POPC   C2B68833  12.632  32.366  16.804  0.1258 -0.1678 -0.0741
35237POPC   C3B68834  12.693  32.616  17.161  0.1004 -0.0570 -0.2409
35237POPC   C4B68835  12.524  32.898  17.519  0.1022  0.0671 -0.0189
35238POPC   NC368836  14.663  28.565  16.571  0.1387 -0.1082  0.1115
35238POPC   PO468837  14.736  28.221  16.797 -0.0655  0.2292  0.0991
35238POPC   GL168838  14.801  27.820  17.027 -0.2043 -0.1101 -0.1012
35238POPC   GL268839  14.890  27.954  17.227 -0.0164  0.1051 -0.1137
35238POPC   C1A68840  15.148  27.535  17.224 -0.2215  0.0837 -0.2542
35238POPC   D2A68841  15.477  27.201  17.253  0.2054 -0.0933  0.1625
35238POPC   C3A68842  15.313  26.845  17.481  0.1706 -0.0390 -0.1552
35238POPC   C4A68843  15.112  26.633  17.851  0.0371 -0.1374  0.0362
35238POPC   C1B68844  14.723  27.661  17.568 -0.0793  0.3691  0.1787
35238POPC   C2B68845  14.625  27.443  17.975  0.1628 -0.3016  0.2562
35238POPC   C3B68846  14.554  27.185  18.383  0.3596  0.0853 -0.0484
35238POPC   C4B68847  14.377  26.728  18.508  0.0225  0.0994  0.0486
35239POPC   NC368848  15.347  18.667  15.302  0.1208  0.0120  0.0098
35239POPC   PO468849  15.596  18.991  15.397  0.0465 -0.1248  0.1626
35239POPC   GL168850  15.309  18.962  15.683  0.1843 -0.2818 -0.1582
35239POPC   GL268851  15.066  19.073  15.527  0.1815 -0.0183  0.0496
35239POPC   C1A68852  15.086  19.182  16.050 -0.2291  0.3198 -0.0266
35239POPC   D2A68853  14.834  19.033  16.374  0.0310  0.1187  0.1911
35239POPC   C3A68854  14.473  18.969  16.681  0.0065 -0.0169  0.1629
35239POPC   C4A68855  14.101  19.220  16.886 -0.0809  0.1064  0.0957
35239POPC   C1B68856  14.666  19.065  15.776 -0.2107 -0.1067 -0.2170
35239POPC   C2B68857  14.348  19.015  16.163 -0.4473 -0.2043  0.3379
35239POPC   C3B68858  13.985  19.082  16.366  0.2841 -0.1993 -0.1277
35239POPC   C4B68859  13.716  19.359  16.535  0.0472 -0.0012 -0.0029
35240POPC   NC368860   4.591  17.282  15.166 -0.1287 -0.0515  0.2299
35240POPC   PO468861   4.965  17.237  15.094 -0.0157 -0.0220 -0.0943
35240POPC   GL168862   5.097  17.247  15.535 -0.2088 -0.0105 -0.1284
35240POPC   GL268863   5.317  16.947  15.500  0.0316 -0.0078 -0.1452
35240POPC   C1A68864   5.303  17.651  15.672  0.2153  0.0033 -0.0846
35240POPC   D2A68865   5.444  18.100  15.835  0.0517  0.1225  0.1971
35240POPC   C3A68866   5.569  18.361  16.198  0.4049 -0.0660 -0.1750
35240POPC   C4A68867   5.630  18.754  16.496  0.0057  0.1012 -0.1392
35240POPC   C1B68868   5.626  17.255  15.762  0.0518 -0.1325  0.3627
35240POPC   C2B68869   5.644  17.532  16.130 -0.2438  0.0216  0.2124
35240POPC   C3B68870   5.734  17.820  16.472 -0.1826 -0.0391 -0.2523
35240POPC   C4B68871   5.820  18.170  16.708  0.0439  0.0114 -0.1636
35241POPC   NC368872   3.078  30.452  16.581  0.1564  0.2416 -0.0392
35241POPC   PO468873   3.322  30.727  16.503  0.0809  0.0983  0.2963
35241POPC   GL168874   3.219  30.779  16.876  0.0926  0.2753  0.2259
35241POPC   GL268875   3.237  30.495  17.031 -0.0588 -0.1913  0.0367
35241POPC   C1A68876   3.559  30.858  17.128  0.0705 -0.2500  0.0052
35241POPC   D2A68877   3.725  30.995  17.512  0.0556 -0.0632 -0.0256
35241POPC   C3A68878   3.937  30.662  17.713  0.2040 -0.0053 -0.1768
35241POPC   C4A68879   3.733  30.451  18.055  0.0504 -0.1123 -0.1056
35241POPC   C1B68880   3.254  30.603  17.468  0.0626  0.3067 -0.3698
35241POPC   C2B68881   3.403  30.804  17.867  0.0244  0.0232  0.2108
35241POPC   C3B68882   3.194  31.134  18.134 -0.0607  0.0510 -0.1615
35241POPC   C4B68883   3.294  31.173  18.594 -0.2902  0.1137  0.1966
35242POPC   NC368884  13.558  29.963  16.137 -0.0047 -0.0860 -0.0867
35242POPC   PO468885  13.882  29.892  16.375  0.0004 -0.0177  0.1496
35242POPC   GL168886  13.916  29.830  16.811 -0.1913  0.2431 -0.1021
35242POPC   GL268887  13.786  30.099  16.912  0.2643  0.0152 -0.1513
35242POPC   C1A68888  13.805  29.774  17.266  0.0981  0.1490 -0.3213
35242POPC   D2A68889  13.709  29.478  17.624  0.0952 -0.0743  0.0161
35242POPC   C3A68890  13.709  29.255  18.011  0.1255 -0.1257  0.1663
35242POPC   C4A68891  13.742  29.128  18.462  0.0562  0.5190  0.0350
35242POPC   C1B68892  14.130  30.138  17.263  0.0850  0.2207  0.1506
35242POPC   C2B68893  14.208  30.491  17.530  0.1063  0.3331 -0.1665
35242POPC   C3B68894  13.976  30.537  17.951  0.0409  0.1400 -0.1374
35242POPC   C4B68895  13.811  30.404  18.370  0.3349  0.1516  0.0383
35243POPC   NC368896  11.270  27.328  11.200  0.1708  0.1404 -0.0859
35243POPC   PO468897  11.107  27.567  10.939  0.1454 -0.2813 -0.0482
35243POPC   GL168898  11.143  27.164  10.643 -0.2156 -0.1023  0.1739
35243POPC   GL268899  11.034  27.263  10.299  0.2022 -0.1945  0.0130
35243POPC   C1A68900  11.244  26.728  10.382  0.1871 -0.1576 -0.1288
35243POPC   D2A68901  11.228  26.472  10.039 -0.1550  0.4056 -0.4444
35243POPC   C3A68902  10.861  26.248  10.143 -0.0289  0.0159  0.1840
35243POPC   C4A68903  10.729  25.786  10.074 -0.1572 -0.0579 -0.2321
35243POPC   C1B68904  10.748  27.193   9.973  0.2157  0.0656  0.1690
35243POPC   C2B68905  10.487  26.991   9.668  0.2424  0.3991 -0.1018
35243POPC   C3B68906  10.686  26.721   9.314 -0.0367 -0.1735 -0.1738
35243POPC   C4B68907  10.630  26.559   8.919  0.0333 -0.1750 -0.1463
35244POPC   NC368908   5.407  18.089  14.639 -0.1357 -0.2559 -0.3159
35244POPC   PO468909   5.797  18.150  14.608  0.1167  0.4086  0.3110
35244POPC   GL168910   5.814  18.308  14.929  0.1757 -0.0588  0.0951
35244POPC   GL268911   5.574  18.438  14.947 -0.0399 -0.0036 -0.1682
35244POPC   C1A68912   6.098  18.476  15.276  0.1366 -0.0992  0.3346
35244POPC   D2A68913   6.472  18.682  15.494  0.2251  0.0918 -0.0427
35244POPC   C3A68914   6.850  18.930  15.651  0.0405  0.0773 -0.0414
35244POPC   C4A68915   7.091  19.251  15.905  0.3083  0.0645 -0.0317
35244POPC   C1B68916   5.502  18.794  15.237 -0.0420 -0.1087 -0.1107
35244POPC   C2B68917   5.372  19.084  15.534  0.2306 -0.0419 -0.1055
35244POPC   C3B68918   5.158  19.192  15.894 -0.1173  0.0219 -0.3043
35244POPC   C4B68919   5.304  19.126  16.371 -0.1647  0.1610  0.1417
35245POPC   NC368920   3.207  19.993  14.884  0.0786 -0.0665 -0.1357
35245POPC   PO468921   3.279  19.994  15.258 -0.0908 -0.0799  0.1759
35245POPC   GL168922   3.393  19.843  15.629  0.2488 -0.3211 -0.2989
35245POPC   GL268923   3.218  19.958  15.811 -0.1164  0.3677  0.1893
35245POPC   C1A68924   3.652  19.651  15.914  0.2074 -0.0404  0.1479
35245POPC   D2A68925   3.806  19.530  16.353  0.0863 -0.7243 -0.1462
35245POPC   C3A68926   3.793  19.837  16.750 -0.1012 -0.0773 -0.1585
35245POPC   C4A68927   4.075  19.920  17.076  0.1731  0.0076 -0.0353
35245POPC   C1B68928   3.623  20.123  15.874  0.3231 -0.1476 -0.0489
35245POPC   C2B68929   3.823  20.004  16.272 -0.1737 -0.0237  0.0382
35245POPC   C3B68930   4.197  19.856  16.442  0.1382  0.0498  0.2707
35245POPC   C4B68931   4.508  19.903  16.752 -0.0091 -0.3738  0.1571
35246POPC   NC368932   4.394  28.038   8.678  0.1435  0.1290  0.2351
35246POPC   PO468933   4.294  27.621   8.540 -0.1199 -0.2243  0.2837
35246POPC   GL168934   4.426  27.381   8.258  0.3684  0.1159  0.3032
35246POPC   GL268935   4.447  27.420   7.917  0.0568 -0.0565 -0.0403
35246POPC   C1A68936   4.483  26.890   8.315  0.2985 -0.0458  0.0476
35246POPC   D2A68937   4.674  26.574   8.028 -0.2123 -0.2133  0.1791
35246POPC   C3A68938   4.863  26.305   7.722 -0.0290 -0.1413  0.3035
35246POPC   C4A68939   5.241  26.216   7.445 -0.0053 -0.0731  0.2042
35246POPC   C1B68940   4.804  27.543   7.650  0.1419 -0.1819 -0.0912
35246POPC   C2B68941   5.156  27.615   7.364 -0.2349  0.3268  0.1365
35246POPC   C3B68942   5.595  27.603   7.222  0.1345  0.3921 -0.2734
35246POPC   C4B68943   6.044  27.504   7.257  0.1975 -0.0473  0.0947
35247POPC   NC368944  15.868  23.362  15.056 -0.2607  0.1725 -0.0074
35247POPC   PO468945  16.150  23.482  15.329 -0.0538 -0.2288  0.2090
35247POPC   GL168946  15.937  23.539  15.654  0.2815  0.0944 -0.1384
35247POPC   GL268947  15.821  23.312  15.702  0.0097 -0.3246 -0.1322
35247POPC   C1A68948  15.649  23.778  15.928  0.0707 -0.1647 -0.0656
35247POPC   D2A68949  15.346  23.929  16.272 -0.0279  0.0289  0.2656
35247POPC   C3A68950  15.236  23.799  16.716  0.3277 -0.0839 -0.1733
35247POPC   C4A68951  15.285  23.834  17.156 -0.0537 -0.2016 -0.1253
35247POPC   C1B68952  15.501  22.987  15.811 -0.1026  0.1196  0.3535
35247POPC   C2B68953  15.060  22.996  15.818 -0.2515 -0.1736 -0.3276
35247POPC   C3B68954  14.820  23.233  16.122 -0.3224 -0.0428  0.2843
35247POPC   C4B68955  14.451  23.112  16.240 -0.0748 -0.1690 -0.0064
35248POPC   NC368956  12.823  26.936  10.473  0.0855  0.1081  0.0575
35248POPC   PO468957  12.475  26.861  10.693 -0.1851 -0.0852  0.1942
35248POPC   GL168958  12.152  26.994  10.531  0.0724 -0.2220 -0.0305
35248POPC   GL268959  12.180  26.757  10.304  0.1079  0.0658 -0.2981
35248POPC   C1A68960  11.705  26.767  10.464 -0.1973  0.0658  0.0366
35248POPC   D2A68961  11.679  26.337  10.357 -0.0402 -0.1063 -0.0920
35248POPC   C3A68962  11.615  25.896  10.553 -0.1552 -0.0087  0.0962
35248POPC   C4A68963  11.558  25.452  10.670  0.2376  0.2766 -0.1202
35248POPC   C1B68964  11.977  26.459   9.994 -0.0195 -0.3515 -0.1573
35248POPC   C2B68965  11.614  26.317   9.726 -0.0514 -0.0829  0.1683
35248POPC   C3B68966  11.393  26.098   9.423 -0.2972 -0.0967 -0.0040
35248POPC   C4B68967  11.317  25.782   9.084 -0.1007 -0.1676 -0.0542
35249POPC   NC368968   1.506  28.975  16.538  0.2258 -0.3167  0.0698
35249POPC   PO468969   1.448  28.565  16.517  0.3113 -0.1995 -0.3117
35249POPC   GL168970   1.486  28.583  16.926  0.3321 -0.4244  0.0205
35249POPC   GL268971   1.636  28.278  16.945  0.3462 -0.0895 -0.1630
35249POPC   C1A68972   1.344  28.754  17.366  0.0728 -0.2041  0.1901
35249POPC   D2A68973   1.446  28.645  17.800 -0.0241 -0.0601  0.2574
35249POPC   C3A68974   1.557  28.366  18.132 -0.0609  0.1557 -0.1269
35249POPC   C4A68975   1.395  28.239  18.511 -0.1417 -0.0077  0.1076
35249POPC   C1B68976   1.752  28.463  17.341 -0.0376  0.0576 -0.1975
35249POPC   C2B68977   1.886  28.299  17.789  0.2390  0.1903 -0.0179
35249POPC   C3B68978   2.037  28.240  18.227 -0.2303 -0.0468 -0.1426
35249POPC   C4B68979   2.066  28.253  18.675 -0.0720 -0.0175 -0.2669
35250POPC   NC368980   9.965  28.602  16.506  0.2230  0.1761  0.4084
35250POPC   PO468981  10.235  28.356  16.445  0.0473 -0.0674  0.1339
35250POPC   GL168982  10.168  28.331  16.808 -0.2818  0.0391 -0.1682
35250POPC   GL268983  10.012  28.137  16.884 -0.1995  0.0307  0.0838
35250POPC   C1A68984  10.386  28.333  17.274  0.0431  0.0744  0.0698
35250POPC   D2A68985  10.588  28.370  17.676  0.2356  0.0442  0.1605
35250POPC   C3A68986  10.662  28.000  18.000  0.2040  0.2394  0.1145
35250POPC   C4A68987  10.632  27.728  18.364 -0.3047 -0.2091  0.3616
35250POPC   C1B68988   9.907  28.231  17.357  0.0007  0.1250  0.0320
35250POPC   C2B68989   9.722  28.078  17.781  0.0771  0.1535  0.3590
35250POPC   C3B68990   9.672  27.774  18.121  0.1965  0.0188 -0.1628
35250POPC   C4B68991   9.902  27.447  18.347 -0.0499 -0.0719  0.0156
35251POPC   NC368992  15.053  28.882  16.740  0.2980 -0.2602  0.2017
35251POPC   PO468993  15.181  29.285  16.680  0.4416  0.1268 -0.1804
35251POPC   GL168994  15.128  29.266  17.046 -0.0260  0.0045 -0.2520
35251POPC   GL268995  14.935  29.060  17.213  0.0328 -0.0642  0.2613
35251POPC   C1A68996  15.184  29.575  17.385  0.2445  0.1367  0.0642
35251POPC   D2A68997  15.115  29.600  17.852 -0.0535 -0.0035  0.0894
35251POPC   C3A68998  15.242  29.864  18.226 -0.1327  0.1590 -0.2185
35251POPC   C4A68999  15.397  30.308  18.225  0.0803 -0.1796  0.0972
35251POPC   C1B69000  14.600  28.954  17.501  0.0707 -0.0892 -0.1235
35251POPC   C2B69001  14.450  28.803  17.975  0.0613 -0.0523  0.0248
35251POPC   C3B69002  14.357  28.460  18.240  0.1537 -0.0090 -0.2364
35251POPC   C4B69003  14.444  28.140  18.511  0.0213  0.3083 -0.4561
35252POPC   NC369004   1.585  31.504  16.821  0.1738 -0.0735  0.1430
35252POPC   PO469005   1.388  31.260  16.554 -0.0153 -0.2010 -0.1578
35252POPC   GL169006   1.276  31.209  16.887  0.0663 -0.0532 -0.1831
35252POPC   GL269007   1.414  31.083  17.043  0.2193 -0.0239 -0.1253
35252POPC   C1A69008   0.951  31.465  17.160  0.3612 -0.0982  0.1698
35252POPC   D2A69009   0.578  31.438  17.428 -0.0949  0.1467  0.1842
35252POPC   C3A69010   0.259  31.473  17.777  0.0844  0.0523  0.3137
35252POPC   C4A69011   0.223  31.429  18.227 -0.1154  0.4049  0.1152
35252POPC   C1B69012   1.833  31.129  17.172 -0.0372  0.0567 -0.1617
35252POPC   C2B69013   2.209  31.122  17.449  0.2945  0.1962  0.2731
35252POPC   C3B69014   2.438  30.937  17.794  0.1934 -0.1701  0.1042
35252POPC   C4B69015   2.298  30.895  18.245 -0.3342 -0.1613  0.0330
35253POPC   NC369016  13.021  16.554  15.239 -0.1760 -0.2705 -0.1718
35253POPC   PO469017  13.070  16.188  15.203  0.0958 -0.1126 -0.1070
35253POPC   GL169018  13.138  16.183  15.626  0.1245 -0.1337 -0.2080
35253POPC   GL269019  13.372  16.002  15.637  0.0055 -0.1093  0.0686
35253POPC   C1A69020  12.950  16.035  15.987  0.2011  0.1315  0.0434
35253POPC   D2A69021  13.018  15.879  16.444 -0.2077  0.2353 -0.2289
35253POPC   C3A69022  12.886  16.228  16.697 -0.1139 -0.0048  0.2560
35253POPC   C4A69023  12.850  16.711  16.664  0.0184 -0.3118 -0.0397
35253POPC   C1B69024  13.302  16.367  15.948 -0.1879  0.1294 -0.0629
35253POPC   C2B69025  13.391  16.631  16.306 -0.2415 -0.2523 -0.1047
35253POPC   C3B69026  13.351  16.807  16.712 -0.1304 -0.1872 -0.1364
35253POPC   C4B69027  13.109  16.987  17.036 -0.2381  0.2537  0.2773
35254POPC   NC369028  12.895  26.121  12.427 -0.1912 -0.0150  0.0728
35254POPC   PO469029  12.690  26.467  12.422  0.0343  0.2625 -0.0372
35254POPC   GL169030  12.358  26.201  12.526  0.0090 -0.4902 -0.0965
35254POPC   GL269031  12.484  25.982  12.702  0.4818 -0.0828 -0.0878
35254POPC   C1A69032  11.959  26.318  12.585  0.0761 -0.1385 -0.0353
35254POPC   D2A69033  11.512  26.478  12.694  0.0538  0.1065  0.3474
35254POPC   C3A69034  11.067  26.319  12.762 -0.0375  0.0964  0.0686
35254POPC   C4A69035  10.705  26.240  12.557 -0.3870 -0.1855  0.2224
35254POPC   C1B69036  12.075  25.879  12.454 -0.1061  0.0442  0.1960
35254POPC   C2B69037  11.788  25.953  12.123  0.2212 -0.0675 -0.1476
35254POPC   C3B69038  11.530  25.648  11.895  0.3447  0.0087  0.0239
35254POPC   C4B69039  11.417  25.376  11.544 -0.0237  0.1451 -0.1644
35255POPC   NC369040   2.185  25.728  16.563 -0.1086  0.2329  0.0812
35255POPC   PO469041   2.083  25.343  16.419  0.0808  0.2690  0.0554
35255POPC   GL169042   2.182  25.222  16.746  0.3241 -0.2231 -0.1229
35255POPC   GL269043   2.260  24.969  16.659 -0.1880  0.0426  0.1954
35255POPC   C1A69044   2.226  25.016  17.191  0.3397  0.0209 -0.2668
35255POPC   D2A69045   2.102  24.810  17.593 -0.1608 -0.0009 -0.0645
35255POPC   C3A69046   2.370  24.511  17.703  0.2223  0.0934 -0.1857
35255POPC   C4A69047   2.547  24.096  17.923  0.1402 -0.3346  0.1932
35255POPC   C1B69048   2.523  24.709  16.903 -0.1161 -0.1097 -0.3275
35255POPC   C2B69049   2.659  24.615  17.347  0.2128 -0.0794  0.0709
35255POPC   C3B69050   3.011  24.655  17.672 -0.1271 -0.0865 -0.1256
35255POPC   C4B69051   3.398  24.932  17.744 -0.1067  0.3641 -0.0845
35256POPC   NC369052   8.316  27.916  11.078 -0.0701  0.0238  0.5645
35256POPC   PO469053   8.141  27.611  11.257  0.0028 -0.1263  0.1150
35256POPC   GL169054   8.299  27.430  11.062  0.1115  0.3990 -0.2197
35256POPC   GL269055   8.566  27.499  10.946  0.0864  0.1838  0.0382
35256POPC   C1A69056   8.526  26.985  11.074  0.0749  0.2107  0.2799
35256POPC   D2A69057   8.867  26.677  10.900  0.1697 -0.1847  0.2446
35256POPC   C3A69058   8.913  26.241  10.740 -0.1691 -0.3052  0.0461
35256POPC   C4A69059   9.074  25.851  10.628  0.1021 -0.4511 -0.2892
35256POPC   C1B69060   8.863  27.199  10.740 -0.1371 -0.3426 -0.0990
35256POPC   C2B69061   9.251  27.036  10.506 -0.2184 -0.3267  0.2419
35256POPC   C3B69062   9.481  26.727  10.239  0.1829 -0.0451  0.0647
35256POPC   C4B69063   9.519  26.450   9.866  0.0931  0.1113  0.1726
35257POPC   NC369064  16.458  17.389  16.409  0.2218  0.3384  0.1068
35257POPC   PO469065  16.255  17.055  16.260  0.1306 -0.0573 -0.1117
35257POPC   GL169066  16.223  17.080  16.693 -0.0462  0.1558  0.2489
35257POPC   GL269067  15.949  17.197  16.619 -0.0784  0.0809 -0.0674
35257POPC   C1A69068  16.249  16.980  17.140  0.1151  0.2578  0.2277
35257POPC   D2A69069  16.081  16.811  17.515 -0.0799  0.2423 -0.1950
35257POPC   C3A69070  15.646  16.779  17.588 -0.1339 -0.2165  0.1397
35257POPC   C4A69071  15.317  16.514  17.476 -0.1945  0.0121  0.2102
35257POPC   C1B69072  15.751  17.089  17.067  0.2885 -0.3264  0.1714
35257POPC   C2B69073  15.905  17.284  17.479 -0.0116 -0.1125  0.2418
35257POPC   C3B69074  15.612  17.239  17.859 -0.1401 -0.0011 -0.1220
35257POPC   C4B69075  15.616  16.891  18.166 -0.2083  0.0833  0.0721
35258POPC   NC369076   3.864  20.867  14.772  0.5446 -0.0886  0.0538
35258POPC   PO469077   4.037  21.184  14.951 -0.1309 -0.1261  0.2490
35258POPC   GL169078   4.183  21.122  15.231 -0.2497  0.0965  0.2968
35258POPC   GL269079   3.993  21.203  15.470  0.2440  0.0709  0.1749
35258POPC   C1A69080   4.594  21.141  15.445 -0.2104  0.1673 -0.3174
35258POPC   D2A69081   4.977  21.434  15.484 -0.0193  0.2161 -0.1150
35258POPC   C3A69082   5.268  21.514  15.867  0.0444  0.0212 -0.0448
35258POPC   C4A69083   5.381  21.921  16.153 -0.0260 -0.1692 -0.3171
35258POPC   C1B69084   4.180  21.034  15.850 -0.0335 -0.3125  0.2500
35258POPC   C2B69085   4.131  20.929  16.225 -0.3280  0.1339 -0.3002
35258POPC   C3B69086   4.399  20.774  16.582  0.0380  0.3533 -0.1058
35258POPC   C4B69087   4.661  20.782  16.962 -0.0820  0.1363  0.2048
35259POPC   NC369088  13.594  18.052  14.137  0.0019 -0.0132  0.1877
35259POPC   PO469089  13.500  18.448  14.144 -0.3059 -0.1271  0.3021
35259POPC   GL169090  13.118  18.579  14.331 -0.2253  0.0874  0.4191
35259POPC   GL269091  12.979  18.770  14.183 -0.2598 -0.1093 -0.1274
35259POPC   C1A69092  13.144  18.853  14.691  0.0906 -0.2839  0.0311
35259POPC   D2A69093  13.300  19.057  15.102 -0.1317  0.4639 -0.2319
35259POPC   C3A69094  13.060  19.302  15.320  0.1555 -0.1671 -0.3284
35259POPC   C4A69095  12.727  19.551  15.507  0.1581  0.3584 -0.1438
35259POPC   C1B69096  13.311  19.036  14.134  0.0234 -0.4254 -0.0662
35259POPC   C2B69097  13.341  19.350  14.477 -0.0531  0.0377 -0.2791
35259POPC   C3B69098  13.046  19.548  14.732  0.0712 -0.0432 -0.1110
35259POPC   C4B69099  12.659  19.526  14.963 -0.1744 -0.0797 -0.1508
35260POPC   NC369100   7.703  30.727  15.859 -0.2660 -0.3394 -0.2274
35260POPC   PO469101   7.490  30.759  16.163 -0.0888 -0.0780 -0.2147
35260POPC   GL169102   7.588  31.022  16.529  0.0944 -0.1347  0.0300
35260POPC   GL269103   7.299  30.962  16.678 -0.1575  0.3986 -0.0006
35260POPC   C1A69104   7.757  31.493  16.534  0.2435  0.0610 -0.1899
35260POPC   D2A69105   7.601  31.828  16.892  0.0491  0.3482 -0.0836
35260POPC   C3A69106   7.514  32.014  17.281  0.1250 -0.1560 -0.2489
35260POPC   C4A69107   7.512  32.210  17.658  0.1815 -0.1581  0.1647
35260POPC   C1B69108   7.554  31.261  16.922  0.1105 -0.1155  0.1317
35260POPC   C2B69109   7.635  31.573  17.314 -0.2553 -0.5746 -0.2027
35260POPC   C3B69110   7.840  31.776  17.663 -0.0118  0.1282 -0.0524
35260POPC   C4B69111   8.241  31.809  17.830 -0.1157  0.1202  0.1712
35261POPC   NC369112   7.409  26.578  13.735 -0.1861 -0.4627  0.1672
35261POPC   PO469113   7.463  26.176  13.670  0.0076 -0.0019  0.1614
35261POPC   GL169114   7.633  25.815  13.530 -0.1532 -0.2337 -0.0070
35261POPC   GL269115   7.307  25.636  13.534  0.3275 -0.2285  0.1727
35261POPC   C1A69116   7.900  25.445  13.639  0.0343  0.0994  0.1414
35261POPC   D2A69117   8.126  25.082  13.422  0.1272 -0.1223  0.1866
35261POPC   C3A69118   8.402  24.860  13.713 -0.0093 -0.0333  0.1025
35261POPC   C4A69119   8.343  24.427  13.946  0.0126  0.1214  0.0833
35261POPC   C1B69120   7.251  25.289  13.848 -0.1358 -0.0871  0.1530
35261POPC   C2B69121   7.334  24.823  13.998 -0.1759 -0.0702  0.1063
35261POPC   C3B69122   7.349  24.366  14.160  0.0205  0.0823 -0.0238
35261POPC   C4B69123   7.337  24.153  14.571 -0.2802  0.0737 -0.1554
35262POPC   NC369124   4.438  32.508  16.111 -0.2910 -0.1640 -0.2751
35262POPC   PO469125   4.694  32.693  15.861 -0.0145  0.0362  0.0141
35262POPC   GL169126   4.903  32.644  16.226  0.3227  0.0813 -0.2452
35262POPC   GL269127   5.020  32.931  16.205  0.4611  0.1556  0.2136
35262POPC   C1A69128   4.789  32.786  16.625  0.3715 -0.1307  0.0251
35262POPC   D2A69129   4.555  32.653  16.969 -0.3188  0.2419 -0.0592
35262POPC   C3A69130   4.778  32.767  17.378 -0.1799 -0.1443 -0.2824
35262POPC   C4A69131   4.983  32.827  17.802 -0.1077 -0.3209  0.1121
35262POPC   C1B69132   5.257  33.154  16.458  0.1493 -0.0567  0.0473
35262POPC   C2B69133   5.196  33.645  16.577 -0.1135 -0.0878 -0.3735
35262POPC   C3B69134   5.293  33.913  16.899  0.0004 -0.2524  0.1230
35262POPC   C4B69135   5.464  33.962  17.363  0.0438 -0.3362  0.1625
35263POPC   NC369136  15.456  23.949  14.830 -0.2613 -0.0523 -0.0433
35263POPC   PO469137  15.436  24.005  15.195  0.2120 -0.0365 -0.0636
35263POPC   GL169138  15.281  23.777  15.343  0.3046  0.2199  0.1258
35263POPC   GL269139  15.498  23.527  15.368  0.2793  0.1477 -0.0019
35263POPC   C1A69140  15.125  23.881  15.820  0.0177 -0.0593  0.3169
35263POPC   D2A69141  14.856  23.851  16.196 -0.0975  0.1591  0.2066
35263POPC   C3A69142  14.797  23.583  16.546 -0.0117 -0.0382 -0.1772
35263POPC   C4A69143  14.815  23.705  16.994  0.2115 -0.0274  0.1016
35263POPC   C1B69144  15.326  23.431  15.762 -0.0615 -0.2147  0.0089
35263POPC   C2B69145  15.388  23.296  16.176 -0.1725  0.0507 -0.1913
35263POPC   C3B69146  15.289  23.199  16.634 -0.2879 -0.4707 -0.0485
35263POPC   C4B69147  15.096  23.325  17.002  0.5249  0.3159 -0.1929
35264POPC   NC369148   8.170  27.170  11.438  0.1902 -0.0188  0.3937
35264POPC   PO469149   8.268  27.040  11.779 -0.2212  0.2043 -0.2210
35264POPC   GL169150   8.435  26.746  11.952  0.3792 -0.2860 -0.0741
35264POPC   GL269151   8.680  26.646  11.775 -0.1324 -0.0659 -0.0604
35264POPC   C1A69152   8.268  26.352  12.140  0.0943  0.1139 -0.1020
35264POPC   D2A69153   8.180  25.912  12.210  0.2413 -0.0052 -0.0380
35264POPC   C3A69154   8.437  25.682  11.958  0.0847  0.4097 -0.3471
35264POPC   C4A69155   8.759  25.371  11.792 -0.2501 -0.1001 -0.2126
35264POPC   C1B69156   8.993  26.313  11.663  0.1062  0.2238 -0.3666
35264POPC   C2B69157   9.426  26.151  11.499 -0.1269 -0.1791 -0.0076
35264POPC   C3B69158   9.842  25.982  11.565  0.0215 -0.2524  0.1147
35264POPC   C4B69159   9.908  25.624  11.281 -0.1600  0.1364  0.3005
35265POPC   NC369160   5.184  24.157  12.008  0.3102 -0.3486  0.3964
35265POPC   PO469161   5.233  24.107  12.369  0.0068 -0.1300 -0.0203
35265POPC   GL169162   5.525  23.856  12.416 -0.2810  0.4072  0.1056
35265POPC   GL269163   5.704  23.964  12.239 -0.0808 -0.1851 -0.0271
35265POPC   C1A69164   5.623  23.445  12.293 -0.1011 -0.0477  0.0287
35265POPC   D2A69165   5.905  23.039  12.232 -0.0703 -0.0293  0.1584
35265POPC   C3A69166   6.344  22.874  12.339  0.3288 -0.0046 -0.2835
35265POPC   C4A69167   6.712  22.702  12.525  0.0386  0.0449  0.0617
35265POPC   C1B69168   6.127  23.815  12.225  0.2282  0.1100 -0.1968
35265POPC   C2B69169   6.635  23.868  12.197  0.0569  0.0834 -0.4173
35265POPC   C3B69170   6.881  23.644  11.962  0.0370 -0.1606  0.2024
35265POPC   C4B69171   6.841  23.469  11.520 -0.0076 -0.0953 -0.2310
35266POPC   NC369172   5.771  31.500  16.235  0.1730 -0.2786  0.0941
35266POPC   PO469173   5.476  31.243  16.258 -0.1801  0.3624 -0.2646
35266POPC   GL169174   5.424  31.048  16.649 -0.3144 -0.4618 -0.4117
35266POPC   GL269175   5.177  31.169  16.680 -0.0864 -0.1033 -0.1887
35266POPC   C1A69176   5.434  31.000  17.128 -0.1941  0.5276 -0.0243
35266POPC   D2A69177   5.476  30.781  17.526  0.0131  0.0298  0.3082
35266POPC   C3A69178   5.438  30.867  17.957 -0.2028  0.1555  0.2738
35266POPC   C4A69179   5.241  30.739  18.316 -0.1629 -0.0749  0.1026
35266POPC   C1B69180   4.821  31.035  16.936  0.0076 -0.2665 -0.1408
35266POPC   C2B69181   4.478  31.017  17.223 -0.0603 -0.1776  0.0681
35266POPC   C3B69182   4.241  31.056  17.601  0.1060 -0.1713  0.1349
35266POPC   C4B69183   4.138  30.964  18.015 -0.1761 -0.2301  0.0429
35267POPC   NC369184  10.977  15.989  15.196  0.1984 -0.0579 -0.1241
35267POPC   PO469185  10.719  16.269  15.040  0.1732  0.0715  0.0829
35267POPC   GL169186  10.512  16.506  15.241  0.0042 -0.0879 -0.1278
35267POPC   GL269187  10.667  16.555  15.437 -0.1736 -0.1124 -0.0228
35267POPC   C1A69188  10.115  16.598  15.385 -0.0460 -0.2614  0.0184
35267POPC   D2A69189  10.088  17.014  15.561  0.1947 -0.0070 -0.2034
35267POPC   C3A69190  10.017  17.275  15.940 -0.2725 -0.0358 -0.0262
35267POPC   C4A69191   9.826  17.448  16.325 -0.2197 -0.0866 -0.2021
35267POPC   C1B69192  10.503  16.785  15.737 -0.0447 -0.2238 -0.0434
35267POPC   C2B69193  10.476  17.126  16.034  0.0820  0.2451  0.2415
35267POPC   C3B69194  10.339  17.480  16.325 -0.1701  0.1471  0.3060
35267POPC   C4B69195  10.355  17.913  16.554  0.2479  0.1933  0.1182
35268POPC   NC369196   1.060  16.671  16.202 -0.0479  0.0280 -0.0992
35268POPC   PO469197   0.714  16.861  16.073  0.2149  0.1753 -0.0252
35268POPC   GL169198   0.593  17.061  16.333 -0.5422 -0.1336  0.1624
35268POPC   GL269199   0.639  16.980  16.585 -0.1355 -0.2171  0.0727
35268POPC   C1A69200   0.171  17.083  16.568 -0.1008 -0.1948  0.1634
35268POPC   D2A69201  -0.142  17.060  16.892  0.0081 -0.3057 -0.1695
35268POPC   C3A69202  -0.254  17.248  17.333  0.0107 -0.0930 -0.0235
35268POPC   C4A69203  -0.543  17.163  17.707  0.0892 -0.0404 -0.3022
35268POPC   C1B69204   0.450  17.172  16.948 -0.3499  0.0457  0.0052
35268POPC   C2B69205   0.267  17.226  17.366  0.4609 -0.0990 -0.4984
35268POPC   C3B69206   0.120  17.179  17.802 -0.0425 -0.1104  0.0280
35268POPC   C4B69207  -0.150  17.051  18.118 -0.2403 -0.2051  0.3713
35269POPC   NC369208   5.078  21.522  13.326 -0.4469  0.0024  0.1193
35269POPC   PO469209   5.148  21.892  13.333  0.1160 -0.2020 -0.2534
35269POPC   GL169210   5.566  21.918  13.399  0.3413 -0.1786 -0.2656
35269POPC   GL269211   5.574  21.850  13.691  0.1914  0.0778  0.0317
35269POPC   C1A69212   5.972  22.158  13.501  0.1474  0.2248  0.2340
35269POPC   D2A69213   6.357  22.105  13.688 -0.2178 -0.0972 -0.5115
35269POPC   C3A69214   6.607  22.474  13.588  0.2034 -0.1557 -0.1499
35269POPC   C4A69215   6.925  22.828  13.618  0.1940 -0.1368 -0.4984
35269POPC   C1B69216   5.910  21.939  13.977 -0.0189 -0.3642  0.1295
35269POPC   C2B69217   6.066  22.176  14.316 -0.1071  0.1109 -0.3634
35269POPC   C3B69218   6.339  22.389  14.642  0.1199  0.2402 -0.0288
35269POPC   C4B69219   6.704  22.628  14.883 -0.4053  0.0380 -0.0777
35270POPC   NC369220  10.217  29.577  16.364  0.1702 -0.1623 -0.2667
35270POPC   PO469221  10.496  29.416  16.142 -0.0562  0.0208  0.0240
35270POPC   GL169222  10.606  29.513  16.535 -0.0901  0.1618 -0.1507
35270POPC   GL269223  10.655  29.241  16.634 -0.2353  0.1296 -0.0363
35270POPC   C1A69224  10.337  29.670  16.904  0.0024 -0.0581 -0.0677
35270POPC   D2A69225  10.038  29.331  17.117  0.2013  0.0181  0.2943
35270POPC   C3A69226  10.004  29.178  17.592  0.2781  0.0366  0.1525
35270POPC   C4A69227  10.285  29.010  17.910 -0.2554  0.1809 -0.0301
35270POPC   C1B69228  10.481  29.208  17.051  0.0521 -0.0417 -0.0077
35270POPC   C2B69229  10.255  28.869  17.320 -0.0495 -0.1006  0.1248
35270POPC   C3B69230  10.111  28.576  17.662  0.2994  0.0313  0.3159
35270POPC   C4B69231  10.116  28.316  18.008  0.1405  0.2383  0.3859
35271POPC   NC369232   6.516  17.810  14.716 -0.1253  0.3106  0.1554
35271POPC   PO469233   6.829  17.920  14.503  0.2130  0.0864  0.0635
35271POPC   GL169234   7.036  18.108  14.862  0.1510  0.0906  0.1689
35271POPC   GL269235   6.782  18.287  14.877  0.2716  0.1530 -0.0179
35271POPC   C1A69236   7.131  17.936  15.281 -0.0034  0.1793 -0.3412
35271POPC   D2A69237   7.377  18.142  15.633 -0.0930 -0.1595  0.0677
35271POPC   C3A69238   7.226  18.592  15.628  0.0308  0.1927 -0.0055
35271POPC   C4A69239   7.508  18.944  15.641  0.0408  0.0831  0.0528
35271POPC   C1B69240   7.229  18.409  15.134 -0.0195  0.1416 -0.0323
35271POPC   C2B69241   7.470  18.820  15.156 -0.0736 -0.1157  0.1492
35271POPC   C3B69242   7.879  18.946  15.167  0.4038  0.3234  0.0877
35271POPC   C4B69243   8.125  19.370  15.188 -0.1605 -0.3566 -0.2310
35272POPC   NC369244   4.135  27.873  16.749  0.1859  0.2597 -0.2239
35272POPC   PO469245   4.063  27.499  16.585  0.1260 -0.0229  0.2549
35272POPC   GL169246   4.415  27.451  16.821  0.3133  0.0595 -0.2829
35272POPC   GL269247   4.455  27.195  16.682  0.0613  0.0451 -0.3048
35272POPC   C1A69248   4.384  27.362  17.284  0.1655  0.0153  0.0582
35272POPC   D2A69249   4.503  27.155  17.666 -0.1075 -0.2523  0.0238
35272POPC   C3A69250   4.502  27.519  17.936 -0.1343 -0.0032  0.1993
35272POPC   C4A69251   4.735  27.761  18.217 -0.1303 -0.0880  0.0043
35272POPC   C1B69252   4.413  26.917  17.053  0.3004 -0.1177 -0.0546
35272POPC   C2B69253   4.387  26.597  17.419 -0.1181  0.1740 -0.2579
35272POPC   C3B69254   4.303  26.294  17.747  0.1937 -0.1579 -0.0832
35272POPC   C4B69255   4.282  25.843  17.891 -0.0923  0.0539 -0.0520
35273POPC   NC369256  10.561  27.312  12.508  0.0173  0.2575 -0.0701
35273POPC   PO469257  10.207  27.237  12.721 -0.2746  0.0129  0.3109
35273POPC   GL169258  10.140  26.843  12.563 -0.3268 -0.1632  0.1560
35273POPC   GL269259  10.391  26.752  12.454 -0.0737  0.0217  0.1107
35273POPC   C1A69260   9.822  26.513  12.398  0.1411 -0.0857  0.1783
35273POPC   D2A69261   9.800  26.206  12.084  0.0086 -0.0931  0.0563
35273POPC   C3A69262  10.008  25.839  12.024 -0.1785 -0.0567  0.2819
35273POPC   C4A69263  10.308  25.456  12.059  0.3130 -0.1408  0.2119
35273POPC   C1B69264  10.457  26.448  12.117  0.2312 -0.2776  0.1259
35273POPC   C2B69265  10.295  26.177  11.853 -0.0667  0.3159 -0.2626
35273POPC   C3B69266  10.310  25.912  11.466  0.0613 -0.0105  0.0983
35273POPC   C4B69267  10.331  25.436  11.438  0.0767  0.1631  0.0887
35274POPC   NC369268   4.338  21.541  14.809 -0.4165  0.3012 -0.2246
35274POPC   PO469269   4.337  21.236  14.540  0.0222 -0.1305 -0.0782
35274POPC   GL169270   4.491  21.090  14.886 -0.2084 -0.0217 -0.0550
35274POPC   GL269271   4.351  20.796  14.833  0.2124 -0.0795 -0.0264
35274POPC   C1A69272   4.741  21.426  15.082 -0.5035 -0.1809  0.0835
35274POPC   D2A69273   4.835  21.846  15.175 -0.0191  0.3488  0.0784
35274POPC   C3A69274   5.183  21.873  15.559 -0.1123  0.1236 -0.0980
35274POPC   C4A69275   5.624  21.900  15.715  0.1873 -0.1001  0.1932
35274POPC   C1B69276   4.130  20.565  15.103 -0.0603  0.2384 -0.0918
35274POPC   C2B69277   4.008  20.638  15.560  0.3031 -0.2215 -0.1359
35274POPC   C3B69278   4.129  20.435  15.965 -0.4511  0.2463 -0.1246
35274POPC   C4B69279   4.112  20.353  16.448 -0.0372  0.1271 -0.0049
35275POPC   NC369280   5.265  15.952  15.635 -0.1510  0.0153 -0.2571
35275POPC   PO469281   4.852  15.979  15.680 -0.1822 -0.1455  0.0153
35275POPC   GL169282   4.658  16.066  15.960 -0.1667 -0.1688 -0.3543
35275POPC   GL269283   4.695  16.305  16.171 -0.3280  0.1589  0.0130
35275POPC   C1A69284   4.313  16.052  16.228  0.1720  0.0675 -0.0132
35275POPC   D2A69285   4.235  16.269  16.595  0.0133  0.1592  0.0806
35275POPC   C3A69286   4.472  16.139  17.009  0.0714 -0.3113 -0.0935
35275POPC   C4A69287   4.656  15.992  17.407 -0.1715  0.0880  0.2291
35275POPC   C1B69288   4.791  16.428  16.628  0.4083  0.1296 -0.0433
35275POPC   C2B69289   4.684  16.604  17.042  0.0627 -0.1210  0.1428
35275POPC   C3B69290   4.651  17.015  17.322  0.0047  0.2220 -0.0439
35275POPC   C4B69291   4.372  17.224  17.632  0.1850  0.3183 -0.1215
35276POPC   NC369292  13.654  25.046  14.276 -0.1554 -0.0817  0.2280
35276POPC   PO469293  13.918  24.745  14.175 -0.2297 -0.3134 -0.0633
35276POPC   GL169294  13.789  24.425  14.465  0.0294  0.2439 -0.2153
35276POPC   GL269295  13.688  24.182  14.394  0.0208 -0.0294 -0.3027
35276POPC   C1A69296  13.802  24.299  14.906  0.4494  0.0281  0.1236
35276POPC   D2A69297  13.607  24.087  15.225 -0.0337  0.0666  0.0808
35276POPC   C3A69298  13.271  23.896  15.480 -0.4046  0.1103 -0.0652
35276POPC   C4A69299  13.265  23.819  15.931 -0.1924  0.0475  0.2157
35276POPC   C1B69300  13.323  24.147  14.729 -0.0494  0.0181  0.1797
35276POPC   C2B69301  13.013  24.027  15.076  0.1073  0.1227 -0.0053
35276POPC   C3B69302  12.859  23.628  15.285 -0.0003  0.0128 -0.0146
35276POPC   C4B69303  13.065  23.427  15.672 -0.0890 -0.0740  0.3770
35277POPC   NC369304  12.177  27.331  10.858 -0.3007 -0.2831 -0.0025
35277POPC   PO469305  12.403  27.411  10.491  0.1029 -0.0172  0.2285
35277POPC   GL169306  12.459  27.115  10.247  0.0535 -0.1251 -0.1069
35277POPC   GL269307  12.421  27.140   9.962 -0.0597 -0.1543 -0.0519
35277POPC   C1A69308  12.587  26.721  10.064  0.0420  0.0300 -0.1407
35277POPC   D2A69309  12.423  26.276   9.863 -0.1548 -0.1482  0.1087
35277POPC   C3A69310  12.039  26.058   9.618 -0.0034  0.1136  0.1329
35277POPC   C4A69311  11.811  25.740   9.327  0.1434  0.2120 -0.1164
35277POPC   C1B69312  12.248  26.755   9.731  0.0752  0.0859  0.0471
35277POPC   C2B69313  12.172  26.665   9.279 -0.1442 -0.2535 -0.1257
35277POPC   C3B69314  12.313  26.592   8.827 -0.2391 -0.2449 -0.1322
35277POPC   C4B69315  12.613  26.800   8.673 -0.0505 -0.0514 -0.0612
35278POPC   NC369316  12.682  17.713   9.479 -0.0335 -0.0403  0.0972
35278POPC   PO469317  12.335  17.539   9.590 -0.2179 -0.0818  0.0735
35278POPC   GL169318  12.156  17.838   9.311  0.0231 -0.0070 -0.3457
35278POPC   GL269319  12.225  18.026   9.514 -0.2402 -0.0007  0.2011
35278POPC   C1A69320  11.970  17.641   8.917  0.1363 -0.3697  0.0794
35278POPC   D2A69321  11.795  17.665   8.504 -0.1156  0.0585 -0.1012
35278POPC   C3A69322  11.734  18.124   8.379  0.1735 -0.1039 -0.2475
35278POPC   C4A69323  11.750  18.507   8.097  0.2976  0.1694  0.1604
35278POPC   C1B69324  11.847  18.330   9.541 -0.0874 -0.0268 -0.1208
35278POPC   C2B69325  11.612  18.710   9.319 -0.2709  0.0919 -0.2177
35278POPC   C3B69326  11.481  19.181   9.330 -0.3791 -0.1414 -0.1192
35278POPC   C4B69327  11.504  19.469   9.668  0.2828  0.0891 -0.0182
35279POPC   NC369328   2.689  25.362  16.015 -0.2349  0.1906  0.1726
35279POPC   PO469329   2.454  25.593  16.168  0.0154 -0.0846  0.0923
35279POPC   GL169330   2.603  25.547  16.527  0.0434  0.1517  0.2483
35279POPC   GL269331   2.756  25.317  16.525 -0.0261  0.0260 -0.2354
35279POPC   C1A69332   2.899  25.604  16.873  0.0645 -0.1363  0.3464
35279POPC   D2A69333   3.194  25.839  17.188 -0.0335 -0.0419  0.1436
35279POPC   C3A69334   3.384  25.883  16.837 -0.0099 -0.1248 -0.0243
35279POPC   C4A69335   3.800  25.829  16.594  0.1313  0.3150  0.0214
35279POPC   C1B69336   2.672  25.173  16.947 -0.2441 -0.1430 -0.0194
35279POPC   C2B69337   2.751  25.104  17.384 -0.1168 -0.1425 -0.2169
35279POPC   C3B69338   2.542  24.958  17.786 -0.1209 -0.2180 -0.1366
35279POPC   C4B69339   2.364  24.771  18.152 -0.3656  0.3381 -0.1909
35280POPC   NC369340   3.663  23.638  14.654  0.3350  0.2242  0.0608
35280POPC   PO469341   4.053  23.675  14.537  0.0718 -0.0670 -0.0999
35280POPC   GL169342   4.360  23.417  14.490 -0.4377  0.0770 -0.4134
35280POPC   GL269343   4.588  23.653  14.492  0.1202  0.1158 -0.0027
35280POPC   C1A69344   4.646  23.372  14.868 -0.2921 -0.0686  0.0329
35280POPC   D2A69345   5.133  23.431  14.942  0.1503 -0.2169 -0.5766
35280POPC   C3A69346   5.313  23.018  14.951  0.0109 -0.1169  0.2672
35280POPC   C4A69347   5.502  22.586  15.039  0.2758 -0.2501 -0.1435
35280POPC   C1B69348   5.057  23.631  14.518 -0.0281  0.1441  0.0458
35280POPC   C2B69349   5.468  23.440  14.617  0.3142  0.0539  0.2919
35280POPC   C3B69350   5.779  23.124  14.813 -0.1120  0.2783 -0.1101
35280POPC   C4B69351   5.851  22.880  15.258  0.0367 -0.2168 -0.0523
35281POPC   NC369352  10.621  27.161  15.346  0.2308 -0.0974  0.0575
35281POPC   PO469353  10.933  27.287  15.533  0.2503  0.1338  0.0222
35281POPC   GL169354  10.754  26.974  15.755 -0.3710 -0.0596  0.1907
35281POPC   GL269355  10.697  27.000  16.043 -0.1269  0.0433  0.0766
35281POPC   C1A69356  10.662  26.539  15.623  0.1592  0.0370 -0.0638
35281POPC   D2A69357  10.323  26.189  15.701 -0.2370  0.0450 -0.1721
35281POPC   C3A69358  10.427  25.781  15.857 -0.0173 -0.0412  0.0521
35281POPC   C4A69359  10.634  25.388  16.055  0.1745  0.1671  0.1447
35281POPC   C1B69360  10.816  26.653  16.310 -0.1622  0.0651 -0.2488
35281POPC   C2B69361  10.943  26.499  16.709  0.4737 -0.0765 -0.0416
35281POPC   C3B69362  10.741  26.541  17.157  0.2266  0.1340 -0.1179
35281POPC   C4B69363  10.767  26.451  17.663  0.1204  0.0866 -0.2182
35282POPC   NC369364   7.855  30.008  16.637 -0.0438 -0.0107 -0.2092
35282POPC   PO469365   7.524  30.126  16.504 -0.0650 -0.1148  0.0503
35282POPC   GL169366   7.424  30.326  16.835  0.0693  0.1168 -0.1682
35282POPC   GL269367   7.574  30.124  17.013  0.0580 -0.1361  0.1304
35282POPC   C1A69368   7.572  30.719  17.032  0.0098 -0.0366 -0.3111
35282POPC   D2A69369   7.884  31.009  17.206  0.2088  0.1092  0.2661
35282POPC   C3A69370   7.877  31.225  17.656 -0.1264 -0.0529 -0.0468
35282POPC   C4A69371   7.824  31.332  18.119  0.1288  0.1675 -0.1421
35282POPC   C1B69372   7.677  30.221  17.447 -0.0843 -0.2259 -0.3396
35282POPC   C2B69373   7.790  30.135  17.892  0.0018  0.1244 -0.0509
35282POPC   C3B69374   7.945  29.781  18.219  0.0400  0.1758 -0.0572
35282POPC   C4B69375   8.190  29.344  18.177  0.0777 -0.1010  0.1069
35283POPC   NC369376  17.202  22.247  15.484 -0.0133 -0.0952  0.2313
35283POPC   PO469377  17.035  21.909  15.542 -0.0123  0.0671 -0.0678
35283POPC   GL169378  16.936  21.846  15.895  0.3089  0.0060  0.1413
35283POPC   GL269379  16.955  22.162  16.034  0.0681  0.0742  0.1900
35283POPC   C1A69380  17.158  21.769  16.321  0.1593  0.2178  0.2846
35283POPC   D2A69381  16.914  21.869  16.693  0.2103  0.1492 -0.3943
35283POPC   C3A69382  16.892  21.664  17.118  0.2257 -0.3713  0.1980
35283POPC   C4A69383  16.730  21.465  17.453  0.0696 -0.0205 -0.2128
35283POPC   C1B69384  16.845  22.332  16.476  0.0053 -0.0601  0.0648
35283POPC   C2B69385  16.890  22.327  16.944  0.0591 -0.1867  0.0685
35283POPC   C3B69386  16.675  22.252  17.336  0.2688  0.3529  0.0163
35283POPC   C4B69387  16.303  22.290  17.586 -0.0261 -0.1708 -0.3515
35284POPC   NC369388  16.175  22.627  15.157  0.0730  0.1036 -0.1663
35284POPC   PO469389  15.823  22.766  14.993 -0.3613 -0.3847  0.2609
35284POPC   GL169390  15.767  22.529  15.299 -0.0028  0.1751 -0.0330
35284POPC   GL269391  15.861  22.233  15.302  0.0050 -0.2224 -0.0116
35284POPC   C1A69392  15.734  22.553  15.760 -0.1398 -0.2015 -0.1208
35284POPC   D2A69393  15.637  22.549  16.208  0.2503 -0.0967  0.2348
35284POPC   C3A69394  15.247  22.804  16.270  0.0492 -0.2073 -0.1827
35284POPC   C4A69395  14.766  22.746  16.311 -0.0040  0.0979 -0.0694
35284POPC   C1B69396  15.421  22.124  15.396  0.0603 -0.3910 -0.2326
35284POPC   C2B69397  15.045  22.181  15.520 -0.0517  0.1230  0.1255
35284POPC   C3B69398  14.872  22.469  15.831  0.0361 -0.2570 -0.1278
35284POPC   C4B69399  14.441  22.636  15.893  0.0073 -0.2974  0.2225
35285POPC   NC369400   6.986   0.071  15.584  0.3070 -0.1047  0.1783
35285POPC   PO469401   7.350  -0.145  15.578  0.1045 -0.1001  0.1298
35285POPC   GL169402   7.225   0.008  15.973  0.1448 -0.2227 -0.2218
35285POPC   GL269403   7.305  -0.091  16.251 -0.1959  0.2450  0.1151
35285POPC   C1A69404   7.236   0.406  16.123 -0.0195  0.0657 -0.2561
35285POPC   D2A69405   7.491   0.739  16.258 -0.0356  0.2348 -0.2682
35285POPC   C3A69406   7.905   0.751  16.112 -0.0913 -0.1197  0.2885
35285POPC   C4A69407   8.121   1.085  15.824 -0.0239 -0.0264  0.0676
35285POPC   C1B69408   7.313  -0.132  16.717  0.2654  0.1934 -0.3908
35285POPC   C2B69409   7.318   0.184  17.067 -0.2027 -0.0043  0.1212
35285POPC   C3B69410   7.486   0.563  17.133  0.2042  0.0490 -0.0539
35285POPC   C4B69411   7.970   0.731  17.078 -0.3804  0.2023 -0.1205
35286POPC   NC369412   6.294  28.301  16.620  0.0298 -0.2548 -0.1573
35286POPC   PO469413   6.020  28.066  16.473 -0.1440 -0.4219 -0.1474
35286POPC   GL169414   5.951  28.009  16.858  0.2036  0.4142  0.2790
35286POPC   GL269415   6.220  27.929  16.981 -0.0943  0.1350 -0.1577
35286POPC   C1A69416   5.743  27.851  17.268  0.1589 -0.2264  0.1749
35286POPC   D2A69417   5.833  27.431  17.499  0.1201 -0.2216  0.0414
35286POPC   C3A69418   5.495  27.292  17.781 -0.5193 -0.1930 -0.0599
35286POPC   C4A69419   5.360  27.149  18.216 -0.0073  0.2545 -0.4407
35286POPC   C1B69420   6.413  27.972  17.417  0.0979 -0.2094  0.0664
35286POPC   C2B69421   6.599  27.863  17.799  0.0379 -0.0863 -0.1858
35286POPC   C3B69422   6.424  27.769  18.183 -0.0210  0.0828  0.3138
35286POPC   C4B69423   6.071  27.676  18.447  0.1297 -0.1635  0.0109
35287POPC   NC369424   7.124  30.259   9.023 -0.1270 -0.2131 -0.1616
35287POPC   PO469425   7.322  29.988   8.834 -0.2576  0.0454 -0.2195
35287POPC   GL169426   7.337  29.839   8.533 -0.1750 -0.0740 -0.0239
35287POPC   GL269427   7.452  30.029   8.312 -0.1063  0.1261  0.2210
35287POPC   C1A69428   7.387  29.560   8.160  0.2397  0.5979  0.0375
35287POPC   D2A69429   7.152  29.353   7.806 -0.0937  0.1447 -0.0244
35287POPC   C3A69430   7.139  28.848   7.747  0.2266  0.0986 -0.1240
35287POPC   C4A69431   7.120  28.350   7.781 -0.1049 -0.0635 -0.0346
35287POPC   C1B69432   7.818  29.802   8.147  0.2148 -0.0246 -0.0331
35287POPC   C2B69433   7.784  29.466   7.835 -0.1245 -0.0328 -0.0204
35287POPC   C3B69434   7.849  29.503   7.421 -0.0381  0.3163 -0.1073
35287POPC   C4B69435   8.142  29.432   7.094 -0.0182 -0.1160  0.0666
35288POPC   NC369436   6.151  26.694  16.328 -0.1367  0.1591 -0.1155
35288POPC   PO469437   6.038  27.048  16.315  0.0640  0.1039 -0.1241
35288POPC   GL169438   6.228  27.072  16.642 -0.1092  0.1063 -0.1320
35288POPC   GL269439   6.469  26.941  16.610 -0.2173  0.2160  0.0952
35288POPC   C1A69440   6.228  26.867  17.063 -0.1408  0.0759  0.1810
35288POPC   D2A69441   6.308  27.028  17.516  0.1867  0.2390 -0.2364
35288POPC   C3A69442   6.540  26.855  17.878 -0.0378 -0.1541  0.0278
35288POPC   C4A69443   6.687  26.917  18.315 -0.3395  0.0905 -0.0077
35288POPC   C1B69444   6.494  26.578  16.801  0.0847 -0.0384  0.2034
35288POPC   C2B69445   6.632  26.291  17.064  0.1512 -0.1441 -0.0319
35288POPC   C3B69446   6.986  26.207  17.242  0.1474 -0.0822 -0.1029
35288POPC   C4B69447   7.374  26.181  17.487  0.1773 -0.0452 -0.0048
35289POPC   NC369448   6.369  26.140  14.770  0.0536  0.0289  0.0264
35289POPC   PO469449   6.253  25.922  15.076  0.2457  0.1158  0.1063
35289POPC   GL169450   6.223  25.550  15.139  0.0915 -0.0299  0.0409
35289POPC   GL269451   5.973  25.418  15.060 -0.3106 -0.0336 -0.0306
35289POPC   C1A69452   6.403  25.405  15.550 -0.2117 -0.0111 -0.1985
35289POPC   D2A69453   6.540  24.996  15.741 -0.2634  0.0129 -0.0605
35289POPC   C3A69454   6.915  24.990  16.027  0.3575 -0.0127  0.1877
35289POPC   C4A69455   7.323  25.024  16.262 -0.1412  0.1970  0.2126
35289POPC   C1B69456   6.051  25.118  15.455  0.0293 -0.1310 -0.2881
35289POPC   C2B69457   6.079  24.859  15.895  0.1687  0.0387  0.0225
35289POPC   C3B69458   6.492  24.763  16.223  0.0983 -0.2757 -0.2005
35289POPC   C4B69459   6.835  24.534  16.459  0.2820  0.2550 -0.2881
35290POPC   NC369460  11.820  29.327  16.378 -0.2503  0.1871 -0.1072
35290POPC   PO469461  12.202  29.390  16.444 -0.0688  0.0417 -0.1147
35290POPC   GL169462  12.029  29.433  16.811  0.1860 -0.1190  0.1816
35290POPC   GL269463  11.875  29.221  16.877  0.1275 -0.1123  0.4782
35290POPC   C1A69464  12.296  29.573  17.211  0.1359  0.0121  0.0628
35290POPC   D2A69465  12.203  29.742  17.665  0.1644  0.0323 -0.2510
35290POPC   C3A69466  11.948  29.528  17.983 -0.0268 -0.0423 -0.0214
35290POPC   C4A69467  11.945  29.555  18.439 -0.2516  0.1774 -0.3950
35290POPC   C1B69468  11.750  28.870  17.110  0.1029  0.3473  0.1337
35290POPC   C2B69469  11.725  28.663  17.496 -0.0489  0.3277  0.1541
35290POPC   C3B69470  12.054  28.509  17.768 -0.0069  0.1602 -0.0123
35290POPC   C4B69471  12.185  28.280  18.104 -0.1856  0.4717 -0.1448
35291POPC   NC369472   8.836  16.623  14.095  0.1496 -0.0097 -0.1580
35291POPC   PO469473   8.764  17.000  14.139  0.0189 -0.3299  0.3571
35291POPC   GL169474   8.811  17.289  14.426  0.1246  0.1878 -0.5794
35291POPC   GL269475   8.565  17.384  14.466 -0.1486  0.0785 -0.0239
35291POPC   C1A69476   8.867  17.509  14.844 -0.0715 -0.0065 -0.2301
35291POPC   D2A69477   8.917  17.548  15.322 -0.0994 -0.1508  0.1546
35291POPC   C3A69478   8.688  17.944  15.496 -0.3141  0.0489  0.0561
35291POPC   C4A69479   8.571  18.418  15.416 -0.1905 -0.2216  0.0504
35291POPC   C1B69480   8.912  17.713  14.391 -0.2155  0.1843  0.0239
35291POPC   C2B69481   8.996  18.110  14.604  0.0275 -0.1292  0.2077
35291POPC   C3B69482   9.385  18.386  14.826  0.0336  0.2433  0.0208
35291POPC   C4B69483   9.605  18.481  15.153 -0.1489  0.0978  0.0447
35292POPC   NC369484   5.237  28.540  16.766 -0.0346 -0.0490 -0.2099
35292POPC   PO469485   5.445  28.829  16.622 -0.2984 -0.1714 -0.2351
35292POPC   GL169486   5.552  28.925  16.986 -0.2274  0.1393 -0.1896
35292POPC   GL269487   5.716  29.074  17.130  0.1326 -0.1768 -0.2201
35292POPC   C1A69488   5.419  28.938  17.451 -0.0285  0.3022 -0.1175
35292POPC   D2A69489   5.497  28.806  17.923  0.0432  0.0941  0.1648
35292POPC   C3A69490   5.299  28.937  18.261 -0.1170 -0.0230 -0.2478
35292POPC   C4A69491   5.153  28.995  18.691  0.0015  0.2893  0.1306
35292POPC   C1B69492   5.908  29.322  17.436 -0.1639  0.0951 -0.0417
35292POPC   C2B69493   6.194  29.389  17.826  0.0074 -0.4320 -0.2308
35292POPC   C3B69494   6.348  29.674  18.172 -0.1168 -0.1146 -0.1203
35292POPC   C4B69495   6.494  29.953  18.518 -0.3472  0.1763 -0.2099
35293POPC   NC369496   9.230  31.302  15.848 -0.0093 -0.2812  0.1822
35293POPC   PO469497   9.143  30.957  16.056 -0.0334 -0.0988  0.1022
35293POPC   GL169498   9.120  31.243  16.326 -0.0140 -0.1102 -0.3434
35293POPC   GL269499   8.828  31.177  16.470  0.0642 -0.1060  0.0277
35293POPC   C1A69500   9.145  31.558  16.745  0.0384  0.3125  0.0766
35293POPC   D2A69501   9.043  31.996  16.784 -0.0667 -0.1063 -0.0803
35293POPC   C3A69502   8.694  32.275  16.971 -0.0494  0.2807  0.1502
35293POPC   C4A69503   8.323  32.468  17.195  0.1499  0.1552  0.0660
35293POPC   C1B69504   8.470  30.934  16.692  0.0009 -0.0307 -0.1268
35293POPC   C2B69505   8.343  30.936  17.155  0.0727 -0.1806 -0.0537
35293POPC   C3B69506   8.363  31.088  17.583 -0.2134 -0.1006 -0.2274
35293POPC   C4B69507   8.304  31.230  18.020  0.0836 -0.2995 -0.2893
35294POPC   NC369508   4.428  28.802  16.795  0.1921 -0.0829  0.2271
35294POPC   PO469509   4.729  28.568  16.660  0.1027 -0.3491 -0.2060
35294POPC   GL169510   4.540  28.332  17.040 -0.0688 -0.3156  0.1471
35294POPC   GL269511   4.481  28.079  17.025  0.0116  0.0522 -0.0948
35294POPC   C1A69512   4.252  28.340  17.415 -0.3323  0.2855 -0.1885
35294POPC   D2A69513   4.276  28.387  17.953 -0.1669  0.1387  0.4573
35294POPC   C3A69514   4.371  28.716  18.286 -0.0087  0.0179  0.0625
35294POPC   C4A69515   4.326  29.145  18.498 -0.0134  0.0225 -0.1833
35294POPC   C1B69516   4.547  27.829  17.429  0.4074  0.3419 -0.0929
35294POPC   C2B69517   4.899  27.731  17.739 -0.2971 -0.1910  0.1546
35294POPC   C3B69518   5.239  27.682  18.072  0.0416 -0.3797  0.1776
35294POPC   C4B69519   5.612  27.619  18.227  0.1583 -0.0187 -0.1309
35295POPC   NC369520  13.883  25.156  13.296  0.2317  0.1321  0.0912
35295POPC   PO469521  13.854  24.794  13.193 -0.3410 -0.3564 -0.2520
35295POPC   GL169522  13.494  24.723  13.324  0.2193 -0.0454  0.1026
35295POPC   GL269523  13.322  24.987  13.279  0.1801  0.1360  0.0317
35295POPC   C1A69524  13.310  24.333  13.509  0.3412 -0.1553 -0.2162
35295POPC   D2A69525  13.204  23.906  13.376  0.1452  0.0419  0.0316
35295POPC   C3A69526  12.798  23.642  13.274 -0.1479  0.2549  0.2135
35295POPC   C4A69527  12.564  23.314  13.059  0.1277  0.1797  0.4356
35295POPC   C1B69528  12.994  24.709  13.433  0.2863 -0.0822  0.2523
35295POPC   C2B69529  12.619  24.525  13.530  0.1122  0.1800  0.2873
35295POPC   C3B69530  12.464  24.132  13.664  0.1621  0.1073 -0.0917
35295POPC   C4B69531  12.074  23.926  13.814 -0.1471  0.1680  0.1828
35296POPC   NC369532   1.205  30.391  16.965 -0.3777 -0.1020 -0.0795
35296POPC   PO469533   1.080  30.077  16.763 -0.1724 -0.2183  0.1184
35296POPC   GL169534   1.220  29.952  17.171 -0.1358 -0.2472  0.0450
35296POPC   GL269535   0.966  30.058  17.289 -0.4332 -0.1880  0.1239
35296POPC   C1A69536   1.147  29.650  17.509  0.1016 -0.0415 -0.0763
35296POPC   D2A69537   0.908  29.471  17.859 -0.0117 -0.2477 -0.2871
35296POPC   C3A69538   1.167  29.271  18.221 -0.1230 -0.1595  0.0589
35296POPC   C4A69539   1.385  28.839  18.237  0.1499 -0.0044 -0.1512
35296POPC   C1B69540   1.243  30.197  17.600  0.0461  0.2058 -0.0150
35296POPC   C2B69541   1.287  30.210  18.049 -0.3148 -0.1541 -0.2234
35296POPC   C3B69542   1.428  30.216  18.504 -0.1165  0.0264 -0.1151
35296POPC   C4B69543   1.397  30.127  18.992  0.2005 -0.1977 -0.3410
35297POPC   NC369544   6.717  28.160  16.877 -0.1663 -0.0377 -0.0191
35297POPC   PO469545   6.982  28.118  16.588  0.1120 -0.3263  0.1698
35297POPC   GL169546   7.159  27.929  16.956  0.4049 -0.1903  0.0923
35297POPC   GL269547   7.381  27.813  16.812  0.0901 -0.0221  0.0552
35297POPC   C1A69548   6.954  27.984  17.400 -0.0894  0.3209  0.1328
35297POPC   D2A69549   7.125  27.919  17.809  0.0103  0.0976 -0.2349
35297POPC   C3A69550   7.014  28.320  17.956  0.1932  0.0621  0.5036
35297POPC   C4A69551   6.797  28.746  17.978  0.0138  0.0710 -0.2960
35297POPC   C1B69552   7.598  28.156  17.030  0.0638 -0.2318  0.1272
35297POPC   C2B69553   7.800  28.199  17.451  0.3603 -0.0808  0.0695
35297POPC   C3B69554   8.091  28.289  17.790 -0.3783 -0.4230 -0.0949
35297POPC   C4B69555   7.874  28.102  18.149  0.1771  0.0077  0.2679
35298POPC   NC369556   8.291  30.627   9.221  0.0569 -0.1722  0.0002
35298POPC   PO469557   8.224  30.284   9.039  0.1880  0.2239 -0.0555
35298POPC   GL169558   8.280  30.464   8.650 -0.6305  0.2567  0.0084
35298POPC   GL269559   8.237  30.268   8.434 -0.1415 -0.0729 -0.0497
35298POPC   C1A69560   8.036  30.752   8.382 -0.0772  0.2398 -0.4004
35298POPC   D2A69561   8.093  30.801   7.939 -0.2554  0.1750 -0.0419
35298POPC   C3A69562   7.805  30.720   7.592  0.1542  0.0893  0.2320
35298POPC   C4A69563   7.445  30.475   7.375 -0.2590 -0.2062 -0.0578
35298POPC   C1B69564   7.996  30.271   8.060 -0.1197  0.1206  0.1384
35298POPC   C2B69565   7.824  30.164   7.623 -0.2118 -0.0371 -0.3612
35298POPC   C3B69566   7.618  29.956   7.252  0.0864 -0.2271  0.3810
35298POPC   C4B69567   7.625  29.562   6.956 -0.0991  0.1011  0.0913
35299POPC   NC369568   5.723  27.599   9.639 -0.2212 -0.3250  0.1694
35299POPC   PO469569   6.135  27.554   9.532  0.3199 -0.2782  0.1367
35299POPC   GL169570   6.198  27.511   9.270  0.0853 -0.1010  0.0658
35299POPC   GL269571   6.070  27.310   9.042 -0.3257  0.1196  0.1352
35299POPC   C1A69572   6.550  27.297   9.017  0.2140  0.4846  0.1631
35299POPC   D2A69573   6.700  27.106   8.643  0.1138  0.1813 -0.0296
35299POPC   C3A69574   6.965  26.753   8.653 -0.1252  0.3027 -0.0713
35299POPC   C4A69575   7.102  26.364   8.437 -0.1610 -0.0186  0.0206
35299POPC   C1B69576   6.228  27.288   8.578  0.4362  0.1202 -0.0195
35299POPC   C2B69577   6.489  27.307   8.233 -0.1846  0.0586  0.0926
35299POPC   C3B69578   6.732  27.126   7.907 -0.2129  0.1608 -0.1555
35299POPC   C4B69579   6.729  26.842   7.507  0.2755  0.0856 -0.0811
35300POPC   NC369580  15.187  30.330  16.497 -0.1236 -0.0282  0.0245
35300POPC   PO469581  14.853  30.525  16.602 -0.0381 -0.1247 -0.0662
35300POPC   GL169582  14.637  30.733  16.747  0.0470  0.1346  0.3526
35300POPC   GL269583  14.592  31.069  16.739 -0.3129 -0.0210 -0.1938
35300POPC   C1A69584  14.588  30.688  17.205  0.0618 -0.0857 -0.4772
35300POPC   D2A69585  14.757  30.465  17.593  0.0843 -0.2024  0.4828
35300POPC   C3A69586  14.484  30.555  17.886 -0.2526 -0.1760  0.0321
35300POPC   C4A69587  14.416  30.545  18.385 -0.3991  0.1971 -0.0001
35300POPC   C1B69588  14.796  31.162  17.160  0.1530  0.1147  0.0949
35300POPC   C2B69589  14.767  31.419  17.558 -0.2516 -0.1316 -0.0351
35300POPC   C3B69590  14.687  31.489  18.010 -0.0900 -0.0356  0.0752
35300POPC   C4B69591  14.547  31.552  18.443  0.0101  0.1339  0.1433
35301POPC   NC369592   3.272  28.890  16.603 -0.0167  0.0281 -0.4113
35301POPC   PO469593   3.200  28.489  16.579 -0.0113 -0.0513 -0.1732
35301POPC   GL169594   3.430  28.385  16.922 -0.1553  0.8084  0.1458
35301POPC   GL269595   3.581  28.667  16.980  0.0135  0.3327 -0.0319
35301POPC   C1A69596   3.467  28.068  17.271 -0.0057 -0.0135  0.0654
35301POPC   D2A69597   3.657  28.070  17.712  0.0786  0.0544  0.0137
35301POPC   C3A69598   3.787  27.633  17.787  0.3344  0.0400  0.0206
35301POPC   C4A69599   4.093  27.356  17.714  0.0030  0.0541  0.1612
35301POPC   C1B69600   3.623  28.902  17.364  0.1063  0.1930  0.0955
35301POPC   C2B69601   3.541  28.947  17.820  0.3243  0.1582 -0.1409
35301POPC   C3B69602   3.308  28.792  18.214  0.0467 -0.2546  0.0794
35301POPC   C4B69603   3.500  28.624  18.594  0.2005  0.1460 -0.3107
35302POPC   NC369604  16.354  19.877  15.488 -0.2710  0.3038 -0.1352
35302POPC   PO469605  16.660  20.123  15.576 -0.1064 -0.0662  0.0361
35302POPC   GL169606  16.462  20.219  15.888 -0.0410 -0.2369 -0.1108
35302POPC   GL269607  16.144  20.214  15.807 -0.2133 -0.0609  0.0578
35302POPC   C1A69608  16.432  20.212  16.354  0.3138 -0.1630 -0.1129
35302POPC   D2A69609  16.284  20.279  16.768  0.0278  0.1665  0.0609
35302POPC   C3A69610  16.048  20.264  17.132 -0.1335  0.2739  0.1101
35302POPC   C4A69611  15.722  20.262  17.423 -0.4049  0.0519 -0.0750
35302POPC   C1B69612  15.941  20.239  16.218  0.1066  0.0553  0.0988
35302POPC   C2B69613  15.735  20.328  16.602  0.1538 -0.1558 -0.2610
35302POPC   C3B69614  15.683  20.620  16.960 -0.0258  0.2099  0.1269
35302POPC   C4B69615  15.824  20.767  17.398  0.1425  0.0530  0.2171
35303POPC   NC369616  14.193  28.153   8.963 -0.3037  0.0616 -0.0462
35303POPC   PO469617  13.957  27.993   9.228  0.1639  0.0779 -0.1208
35303POPC   GL169618  13.741  28.140   9.008 -0.0734  0.0399  0.4870
35303POPC   GL269619  13.545  27.922   8.900 -0.1757 -0.2086 -0.2074
35303POPC   C1A69620  13.844  28.322   8.597  0.0966  0.0058  0.0308
35303POPC   D2A69621  13.945  28.736   8.337 -0.1220 -0.1293 -0.1313
35303POPC   C3A69622  13.958  28.554   7.910 -0.3694  0.1114  0.0275
35303POPC   C4A69623  13.915  28.812   7.517 -0.1444  0.0612 -0.0445
35303POPC   C1B69624  13.402  27.914   8.469 -0.1923  0.3082 -0.1695
35303POPC   C2B69625  13.074  28.080   8.281 -0.0184 -0.4256  0.2157
35303POPC   C3B69626  12.978  27.994   7.840 -0.2862 -0.0087 -0.0921
35303POPC   C4B69627  13.208  28.131   7.406  0.0112 -0.0197  0.0514
35304POPC   NC369628   4.768  25.316  15.703  0.2440  0.1318 -0.0612
35304POPC   PO469629   4.431  25.101  15.638  0.0890 -0.0768 -0.4272
35304POPC   GL169630   4.503  24.943  15.980  0.0260 -0.0871 -0.5148
35304POPC   GL269631   4.419  24.668  15.933  0.2465  0.1771 -0.3306
35304POPC   C1A69632   4.793  24.872  16.403  0.2288  0.0680  0.0312
35304POPC   D2A69633   4.901  24.559  16.727  0.0748 -0.0247  0.0613
35304POPC   C3A69634   5.092  24.564  17.074  0.1311 -0.0591  0.1817
35304POPC   C4A69635   5.107  24.384  17.445 -0.0169  0.1192 -0.1359
35304POPC   C1B69636   4.494  24.449  16.351 -0.0197 -0.1624  0.1312
35304POPC   C2B69637   4.614  24.120  16.642 -0.1509 -0.0807  0.1315
35304POPC   C3B69638   4.762  24.104  17.101 -0.0974  0.2066  0.0557
35304POPC   C4B69639   4.950  23.939  17.454 -0.1290  0.1135 -0.0580
35305POPC   NC369640  11.507  31.035  16.125 -0.1954 -0.2537 -0.1012
35305POPC   PO469641  11.431  31.359  15.923  0.2383  0.0028  0.1145
35305POPC   GL169642  11.510  31.505  16.299 -0.2200 -0.3915 -0.0041
35305POPC   GL269643  11.319  31.356  16.413  0.0427 -0.1281 -0.1206
35305POPC   C1A69644  11.827  31.646  16.539  0.0477 -0.2081  0.2809
35305POPC   D2A69645  12.068  31.504  16.937 -0.1638 -0.1423 -0.0445
35305POPC   C3A69646  12.126  31.536  17.395  0.1408  0.0341 -0.2647
35305POPC   C4A69647  12.083  31.557  17.828  0.1442 -0.5358  0.1607
35305POPC   C1B69648  11.450  31.431  16.842  0.3196  0.0569  0.1080
35305POPC   C2B69649  11.628  31.704  17.121  0.0242 -0.0277 -0.1883
35305POPC   C3B69650  11.895  31.947  17.381 -0.0529 -0.1504 -0.0059
35305POPC   C4B69651  12.097  32.149  17.699  0.2266  0.0017 -0.2098
35306POPC   NC369652   5.338  25.551  11.929  0.2496 -0.0068 -0.0254
35306POPC   PO469653   5.216  25.209  11.854  0.2072  0.2375  0.0104
35306POPC   GL169654   5.474  25.008  11.597  0.3676 -0.1399 -0.1325
35306POPC   GL269655   5.602  24.749  11.709  0.0744 -0.2092 -0.3112
35306POPC   C1A69656   5.692  24.861  11.216 -0.1610  0.0532 -0.1603
35306POPC   D2A69657   5.833  24.416  11.213 -0.0743 -0.0144 -0.0965
35306POPC   C3A69658   6.205  24.176  11.438  0.1856  0.0328  0.0788
35306POPC   C4A69659   6.422  23.897  11.780 -0.0857 -0.1425  0.3397
35306POPC   C1B69660   6.033  24.746  11.542  0.0713 -0.0023 -0.3016
35306POPC   C2B69661   6.464  24.603  11.393 -0.1844  0.0733 -0.1225
35306POPC   C3B69662   6.781  24.440  11.095  0.1043  0.0830  0.0815
35306POPC   C4B69663   7.260  24.348  11.093  0.3927 -0.0218  0.2232
35307POPC   NC369664   6.514  17.637  10.326  0.0622 -0.0050  0.1705
35307POPC   PO469665   6.396  18.012  10.421  0.2845 -0.2350  0.0476
35307POPC   GL169666   6.348  18.317  10.130  0.0500  0.0626  0.1213
35307POPC   GL269667   6.620  18.469  10.191  0.0646 -0.2224  0.2189
35307POPC   C1A69668   6.493  18.420   9.710  0.0165 -0.0683 -0.1300
35307POPC   D2A69669   6.621  18.812   9.477  0.1714 -0.1998 -0.2621
35307POPC   C3A69670   6.581  19.068   9.137 -0.0793  0.0660 -0.1168
35307POPC   C4A69671   6.799  19.287   8.865 -0.2252  0.0436 -0.0888
35307POPC   C1B69672   6.571  18.859   9.934 -0.3524 -0.0107 -0.3841
35307POPC   C2B69673   6.566  19.256   9.654 -0.2030 -0.0114 -0.0096
35307POPC   C3B69674   6.952  19.336   9.372 -0.0828 -0.1232 -0.0147
35307POPC   C4B69675   7.384  19.606   9.328  0.3524  0.1488  0.2998
35308POPC   NC369676   0.881  29.664  17.010 -0.0423  0.0943  0.3281
35308POPC   PO469677   0.602  29.994  16.951  0.3014 -0.0467 -0.0834
35308POPC   GL169678   0.490  29.602  17.265  0.0905  0.2343 -0.1466
35308POPC   GL269679   0.543  29.790  17.489  0.1386  0.2783  0.2530
35308POPC   C1A69680   0.483  29.315  17.653  0.1190  0.0979  0.0804
35308POPC   D2A69681   0.605  29.174  18.067  0.3003  0.0836 -0.1084
35308POPC   C3A69682   0.384  28.851  18.315  0.0167 -0.0043  0.0675
35308POPC   C4A69683   0.071  28.602  18.589 -0.2214  0.2182 -0.1316
35308POPC   C1B69684   0.850  29.965  17.781 -0.2169 -0.1670  0.2987
35308POPC   C2B69685   0.723  30.231  18.204 -0.4831 -0.0839  0.3188
35308POPC   C3B69686   0.459  30.479  18.587  0.1981  0.2849  0.0055
35308POPC   C4B69687   0.271  30.367  19.020 -0.0338 -0.0407  0.2516
35309POPC   NC369688  14.796  23.653  12.019  0.0548 -0.0439 -0.1326
35309POPC   PO469689  14.642  23.810  11.702 -0.1252 -0.2449  0.4009
35309POPC   GL169690  14.312  23.673  11.694 -0.0113  0.1966 -0.0828
35309POPC   GL269691  14.065  23.785  11.817  0.2812 -0.0538  0.1504
35309POPC   C1A69692  14.252  23.263  11.456 -0.1069  0.0114  0.0742
35309POPC   D2A69693  14.195  22.891  11.118 -0.0439 -0.0218  0.2086
35309POPC   C3A69694  14.018  22.473  11.156  0.0217  0.1196 -0.3362
35309POPC   C4A69695  13.727  22.163  11.364  0.0806 -0.0802 -0.0405
35309POPC   C1B69696  13.700  23.839  11.595  0.1330  0.0736  0.3327
35309POPC   C2B69697  13.248  23.978  11.574  0.1570 -0.2120 -0.1204
35309POPC   C3B69698  12.891  24.132  11.286  0.1328 -0.2337 -0.0281
35309POPC   C4B69699  12.416  24.254  11.224  0.0029  0.3295  0.1464
35310POPC   NC369700  13.578  18.822  13.338 -0.0594  0.1630  0.1349
35310POPC   PO469701  13.620  19.075  13.617  0.4590  0.1637 -0.3224
35310POPC   GL169702  13.542  19.368  13.970 -0.3021 -0.0580 -0.0791
35310POPC   GL269703  13.766  19.442  14.084  0.0905 -0.2350 -0.0089
35310POPC   C1A69704  13.293  19.753  14.139  0.0373 -0.1187  0.1286
35310POPC   D2A69705  12.848  19.860  14.203 -0.2731 -0.0807 -0.3895
35310POPC   C3A69706  12.740  20.321  14.268 -0.0667 -0.2224  0.1442
35310POPC   C4A69707  12.352  20.634  14.339 -0.1594  0.0821  0.1431
35310POPC   C1B69708  13.713  19.790  14.394  0.2959 -0.3560  0.0700
35310POPC   C2B69709  13.381  19.945  14.663  0.2253 -0.2464 -0.1070
35310POPC   C3B69710  13.228  20.206  15.032  0.3373 -0.1351  0.0356
35310POPC   C4B69711  12.839  20.434  15.249  0.0483 -0.0600  0.1456
35311POPC   NC369712   7.185  26.422  14.580 -0.0423  0.2585 -0.1277
35311POPC   PO469713   7.247  26.084  14.464  0.2010  0.0313  0.0963
35311POPC   GL169714   7.286  25.877  14.840 -0.1105 -0.0047 -0.1487
35311POPC   GL269715   7.577  25.733  14.811  0.2528  0.1513 -0.4844
35311POPC   C1A69716   7.192  25.532  15.157 -0.2395  0.1731  0.0331
35311POPC   D2A69717   7.370  25.245  15.504 -0.0560  0.3045 -0.1347
35311POPC   C3A69718   7.440  24.900  15.766  0.0761 -0.2374  0.3411
35311POPC   C4A69719   7.658  24.613  16.098  0.4242 -0.0050 -0.2180
35311POPC   C1B69720   7.833  25.397  14.651  0.0539 -0.1989 -0.0931
35311POPC   C2B69721   8.229  25.161  14.627 -0.0784 -0.0154  0.2688
35311POPC   C3B69722   8.572  24.845  14.740 -0.1215  0.2133 -0.1882
35311POPC   C4B69723   8.660  24.464  14.811  0.2534  0.0878 -0.0024
35312POPC   NC369724  32.736  30.161  16.461  0.0823  0.0757 -0.1009
35312POPC   PO469725  32.475  29.858  16.540  0.0054  0.1142  0.1418
35312POPC   GL169726  32.496  30.074  16.859  0.0223 -0.0473  0.1282
35312POPC   GL269727  32.746  30.216  16.961  0.1848 -0.1331  0.0204
35312POPC   C1A69728  32.116  30.117  17.212 -0.0886 -0.0450  0.4278
35312POPC   D2A69729  32.056  30.420  17.488  0.0552  0.0826  0.1225
35312POPC   C3A69730  31.653  30.402  17.744 -0.1534 -0.1275  0.0108
35312POPC   C4A69731  31.368  30.350  18.149  0.0646 -0.0886  0.1521
35312POPC   C1B69732  32.611  30.188  17.393 -0.2480 -0.0608  0.2418
35312POPC   C2B69733  32.563  30.091  17.842  0.1680 -0.0483  0.2147
35312POPC   C3B69734  32.732  29.940  18.231  0.0565  0.0665 -0.0380
35312POPC   C4B69735  33.057  29.847  18.487  0.1542 -0.1656  0.0064
35313POPC   NC369736   4.384  19.476  14.845  0.2462 -0.0437  0.0247
35313POPC   PO469737   4.441  19.444  14.439 -0.2481  0.0768  0.1794
35313POPC   GL169738   4.773  19.627  14.644  0.2027 -0.1618  0.0361
35313POPC   GL269739   4.989  19.551  14.457  0.3155 -0.2130 -0.2559
35313POPC   C1A69740   4.861  19.695  15.078 -0.1931  0.1109  0.1580
35313POPC   D2A69741   5.061  19.589  15.485 -0.1903  0.0983  0.2596
35313POPC   C3A69742   5.030  19.861  15.857 -0.1525 -0.2306 -0.0249
35313POPC   C4A69743   5.102  20.175  16.167  0.0251  0.0093 -0.2035
35313POPC   C1B69744   5.256  19.709  14.753  0.1491 -0.3407 -0.0351
35313POPC   C2B69745   5.241  20.045  15.024 -0.0684 -0.2373 -0.1287
35313POPC   C3B69746   5.358  19.962  15.436 -0.0138 -0.0238 -0.0043
35313POPC   C4B69747   5.585  19.685  15.713 -0.2580  0.2768 -0.1024
35314POPC   NC369748   7.773  18.042  12.646 -0.1112 -0.0825 -0.0925
35314POPC   PO469749   8.116  17.991  12.579  0.5911  0.1707 -0.1709
35314POPC   GL169750   8.260  18.224  12.333 -0.0494  0.0071 -0.2262
35314POPC   GL269751   8.009  18.401  12.336 -0.0035 -0.0638  0.4611
35314POPC   C1A69752   8.540  18.545  12.203 -0.1596 -0.2939 -0.0460
35314POPC   D2A69753   8.958  18.820  12.244  0.1499  0.0412 -0.1558
35314POPC   C3A69754   9.282  19.059  12.064  0.1143 -0.1204 -0.1190
35314POPC   C4A69755   9.656  19.353  12.100 -0.1293 -0.1948 -0.1988
35314POPC   C1B69756   8.001  18.661  12.727  0.1173  0.1579 -0.0527
35314POPC   C2B69757   8.222  19.016  12.892 -0.1999 -0.0182  0.3369
35314POPC   C3B69758   8.631  19.208  12.999 -0.3642 -0.0498 -0.3946
35314POPC   C4B69759   8.943  19.529  13.058 -0.1934 -0.3132 -0.0785
35315POPC   NC369760   5.374  27.630  16.002 -0.0836 -0.1706  0.1705
35315POPC   PO469761   5.419  27.500  16.364 -0.0588  0.2089 -0.0717
35315POPC   GL169762   5.752  27.377  16.631  0.2799  0.5548  0.1823
35315POPC   GL269763   5.699  27.627  16.771  0.2274 -0.1680  0.1642
35315POPC   C1A69764   6.075  27.320  16.973 -0.0485 -0.0087 -0.0475
35315POPC   D2A69765   6.323  27.505  17.307 -0.2212  0.3414  0.1283
35315POPC   C3A69766   6.654  27.424  17.620 -0.1685  0.0931  0.1860
35315POPC   C4A69767   6.739  27.411  18.087  0.0437  0.2390 -0.0234
35315POPC   C1B69768   5.411  27.421  17.089 -0.2034 -0.1522  0.1215
35315POPC   C2B69769   5.089  27.333  17.414 -0.0630 -0.1342 -0.1114
35315POPC   C3B69770   4.966  27.225  17.828 -0.2806  0.0640  0.0371
35315POPC   C4B69771   4.865  27.297  18.288 -0.0355 -0.0731  0.0605
35316POPC   NC369772   3.427  17.905  15.643 -0.0910 -0.1666 -0.3113
35316POPC   PO469773   3.053  18.019  15.582  0.0613  0.0302  0.1491
35316POPC   GL169774   3.257  18.130  15.964  0.1914 -0.1566 -0.1486
35316POPC   GL269775   3.164  18.407  16.002 -0.0759 -0.0064 -0.1685
35316POPC   C1A69776   3.525  18.075  16.300 -0.0412  0.0718 -0.1101
35316POPC   D2A69777   3.308  18.089  16.743 -0.0587  0.2182  0.0179
35316POPC   C3A69778   3.415  17.908  17.162  0.0761 -0.3640  0.1211
35316POPC   C4A69779   3.521  17.672  17.519 -0.2070 -0.1620 -0.2100
35316POPC   C1B69780   3.263  18.489  16.435  0.2145  0.0920  0.0412
35316POPC   C2B69781   3.193  18.584  16.927  0.1260  0.2976 -0.3803
35316POPC   C3B69782   2.908  18.801  17.198 -0.2234  0.0904  0.0441
35316POPC   C4B69783   2.690  18.914  17.622 -0.0615 -0.1431  0.3058
35317POPC   NC369784  15.141  23.739  14.508 -0.0155 -0.1539  0.2647
35317POPC   PO469785  14.902  23.954  14.291 -0.1419 -0.0256  0.2227
35317POPC   GL169786  14.726  23.603  14.385  0.0099  0.2472 -0.3406
35317POPC   GL269787  14.423  23.709  14.272 -0.2067  0.1798 -0.0203
35317POPC   C1A69788  14.628  23.483  14.882 -0.0659  0.4011  0.0731
35317POPC   D2A69789  14.459  23.291  15.284 -0.0457  0.3580  0.0853
35317POPC   C3A69790  13.994  23.153  15.421 -0.2270 -0.1629  0.0133
35317POPC   C4A69791  13.521  23.143  15.546 -0.2326 -0.0259 -0.1339
35317POPC   C1B69792  14.114  23.470  14.539 -0.0666 -0.0584  0.0035
35317POPC   C2B69793  13.829  23.349  14.944 -0.2931  0.0365  0.1311
35317POPC   C3B69794  13.716  23.548  15.342 -0.1780  0.2108 -0.1525
35317POPC   C4B69795  13.705  23.797  15.686 -0.0124 -0.0427 -0.4133
35318POPC   NC369796   2.295  22.492  15.667  0.0101 -0.4076 -0.0955
35318POPC   PO469797   2.610  22.569  15.883  0.2112 -0.1413 -0.0729
35318POPC   GL169798   3.002  22.432  16.186  0.5199 -0.0100 -0.1999
35318POPC   GL269799   2.930  22.172  16.246 -0.2359 -0.0531  0.3159
35318POPC   C1A69800   2.995  22.579  16.642 -0.0196  0.1142  0.1300
35318POPC   D2A69801   2.886  22.792  17.062  0.0939 -0.0878  0.1647
35318POPC   C3A69802   3.178  22.869  17.397  0.1843 -0.0451  0.2295
35318POPC   C4A69803   3.232  22.625  17.735 -0.0366 -0.0629  0.0663
35318POPC   C1B69804   3.108  22.023  16.682 -0.3965  0.0612  0.1510
35318POPC   C2B69805   3.390  21.838  17.003  0.0296 -0.2066 -0.0843
35318POPC   C3B69806   3.644  21.641  17.323  0.0129  0.2519 -0.1226
35318POPC   C4B69807   3.965  21.271  17.275 -0.1386  0.1239 -0.1953
35319POPC   NC369808  14.626  19.913  12.324 -0.0745 -0.0777 -0.0076
35319POPC   PO469809  14.361  19.783  12.620 -0.1032 -0.0799  0.0472
35319POPC   GL169810  13.961  19.915  12.667 -0.0452  0.1328  0.0476
35319POPC   GL269811  13.694  19.960  12.438 -0.3227  0.0413 -0.1089
35319POPC   C1A69812  13.867  20.123  13.047  0.2770 -0.2343  0.1426
35319POPC   D2A69813  13.808  20.456  13.365  0.0340  0.4184 -0.0989
35319POPC   C3A69814  13.800  20.388  13.828  0.0715 -0.1805 -0.2501
35319POPC   C4A69815  13.746  19.955  13.955 -0.1499 -0.0687  0.2695
35319POPC   C1B69816  13.396  20.302  12.323 -0.0486 -0.0022  0.3397
35319POPC   C2B69817  12.997  20.556  12.160  0.2162 -0.1057 -0.2533
35319POPC   C3B69818  12.659  20.875  12.114 -0.1837 -0.0972  0.1129
35319POPC   C4B69819  12.257  21.094  12.125  0.3077  0.0445  0.1387
35320POPC   NC369820   3.359  26.731  16.673  0.0546  0.1901  0.1801
35320POPC   PO469821   3.659  26.852  16.505  0.2793 -0.0154 -0.2055
35320POPC   GL169822   3.673  26.876  16.941  0.0412  0.1447  0.2342
35320POPC   GL269823   3.935  27.101  16.877 -0.2240  0.1123  0.2255
35320POPC   C1A69824   3.551  26.844  17.387 -0.1890  0.0333  0.0165
35320POPC   D2A69825   3.623  26.691  17.819  0.0445  0.0728 -0.3081
35320POPC   C3A69826   3.884  26.904  18.121  0.2374 -0.0928  0.1616
35320POPC   C4A69827   4.291  27.144  18.212 -0.0226  0.2319 -0.1984
35320POPC   C1B69828   3.985  27.042  17.321 -0.1909  0.0383  0.1200
35320POPC   C2B69829   4.089  26.844  17.714 -0.0345 -0.1025 -0.1441
35320POPC   C3B69830   4.315  26.610  18.101  0.1063  0.1046 -0.4751
35320POPC   C4B69831   4.684  26.368  18.273 -0.0260 -0.2540 -0.1759
35321POPC   NC369832   6.871  16.906  14.493  0.1003 -0.0700 -0.1607
35321POPC   PO469833   7.209  17.097  14.435  0.1012 -0.0885 -0.3494
35321POPC   GL169834   7.142  17.227  14.793  0.1247  0.1689 -0.1751
35321POPC   GL269835   7.203  16.910  14.925 -0.0296 -0.1517  0.0316
35321POPC   C1A69836   7.380  17.608  15.040 -0.0520 -0.0428  0.1891
35321POPC   D2A69837   7.472  18.023  14.875 -0.1673 -0.0545 -0.1503
35321POPC   C3A69838   7.675  18.291  15.267 -0.2999 -0.1433 -0.1011
35321POPC   C4A69839   7.932  18.626  15.565 -0.0945 -0.0726  0.1815
35321POPC   C1B69840   7.430  17.056  15.311 -0.0702  0.1675  0.0586
35321POPC   C2B69841   7.766  17.264  15.554  0.2007  0.2066 -0.2629
35321POPC   C3B69842   8.061  17.612  15.619  0.0674 -0.1143  0.1935
35321POPC   C4B69843   8.496  17.624  15.818  0.0509  0.2230 -0.1051
35322POPC   NC369844   0.113  20.182  15.991 -0.0931  0.1282 -0.0716
35322POPC   PO469845   0.123  20.578  16.027  0.0483 -0.2624 -0.0094
35322POPC   GL169846   0.189  20.536  16.281 -0.0771 -0.0452  0.0704
35322POPC   GL269847   0.422  20.348  16.360  0.2421 -0.1327  0.1313
35322POPC   C1A69848  -0.118  20.653  16.580  0.0461  0.1093 -0.2145
35322POPC   D2A69849  -0.266  20.780  17.032 -0.1297 -0.1485  0.1963
35322POPC   C3A69850  -0.268  21.190  17.192  0.1465  0.1565  0.1919
35322POPC   C4A69851  -0.077  21.514  16.912  0.0662  0.2161 -0.2443
35322POPC   C1B69852   0.442  20.152  16.786 -0.1557 -0.0242 -0.1554
35322POPC   C2B69853   0.064  19.936  16.999  0.1755  0.0427 -0.2951
35322POPC   C3B69854  -0.105  19.737  17.389  0.1725 -0.1758  0.1317
35322POPC   C4B69855  -0.235  19.305  17.339 -0.6870  0.0621  0.2923
35323POPC   NC369856   7.306  26.519  16.200  0.2392 -0.2018  0.3279
35323POPC   PO469857   6.983  26.419  15.925 -0.1138 -0.0260  0.3291
35323POPC   GL169858   7.106  26.125  15.906  0.0509 -0.2607 -0.0244
35323POPC   GL269859   6.930  25.903  16.006 -0.1002 -0.1489 -0.4282
35323POPC   C1A69860   7.421  25.995  16.186 -0.0326  0.4376  0.0708
35323POPC   D2A69861   7.813  26.046  16.368  0.1391  0.0833  0.0337
35323POPC   C3A69862   7.755  26.214  16.766  0.0016 -0.1599  0.0156
35323POPC   C4A69863   7.481  26.416  17.079 -0.0453 -0.3230  0.0478
35323POPC   C1B69864   6.803  25.874  16.427  0.0780  0.1515 -0.0520
35323POPC   C2B69865   6.792  25.831  16.885  0.0978 -0.3508 -0.0976
35323POPC   C3B69866   6.851  25.691  17.331  0.0336 -0.4172  0.1323
35323POPC   C4B69867   7.040  25.886  17.672 -0.1378 -0.1585 -0.1961
35324POPC   NC369868   7.033  27.625  16.518 -0.0571 -0.4196 -0.0169
35324POPC   PO469869   7.351  27.591  16.350 -0.0747  0.0343 -0.0556
35324POPC   GL169870   7.444  27.372  16.591  0.2622  0.1928 -0.1093
35324POPC   GL269871   7.411  27.106  16.498 -0.0091  0.0847 -0.2758
35324POPC   C1A69872   7.571  27.450  17.076 -0.0585 -0.1018  0.0060
35324POPC   D2A69873   7.459  27.763  17.359  0.1231  0.0585 -0.0744
35324POPC   C3A69874   7.627  27.679  17.816  0.1281  0.1057  0.0714
35324POPC   C4A69875   7.921  27.418  18.039  0.0744 -0.3145 -0.1544
35324POPC   C1B69876   7.812  27.226  16.752 -0.0151  0.1125 -0.1473
35324POPC   C2B69877   7.962  27.130  17.155 -0.0627 -0.0210 -0.1931
35324POPC   C3B69878   8.170  26.789  17.447  0.1892 -0.2309 -0.1513
35324POPC   C4B69879   8.436  26.383  17.540  0.1812 -0.3100 -0.3345
35325POPC   NC369880  13.102  17.063   9.138 -0.4037 -0.0818 -0.0052
35325POPC   PO469881  13.409  17.329   8.960 -0.2281 -0.1315  0.0153
35325POPC   GL169882  13.297  17.528   8.671 -0.3242 -0.0194 -0.1415
35325POPC   GL269883  13.204  17.809   8.713  0.1638 -0.3278  0.1756
35325POPC   C1A69884  12.925  17.530   8.443  0.1619 -0.0671  0.1929
35325POPC   D2A69885  12.570  17.764   8.322  0.3261  0.2462 -0.2155
35325POPC   C3A69886  12.655  18.072   8.014 -0.2030  0.2781  0.1252
35325POPC   C4A69887  12.672  18.470   7.897 -0.3355 -0.0169 -0.3955
35325POPC   C1B69888  12.873  18.180   8.525 -0.1736 -0.2237 -0.0279
35325POPC   C2B69889  12.667  18.578   8.430 -0.1816  0.1527 -0.0765
35325POPC   C3B69890  12.622  18.944   8.120 -0.3527  0.0666 -0.3196
35325POPC   C4B69891  12.773  18.995   7.657  0.0512 -0.3036 -0.0535
35326POPC   NC369892   9.770  18.149  11.657  0.0287 -0.0298  0.1846
35326POPC   PO469893   9.713  18.032  11.259 -0.1611 -0.0858  0.0473
35326POPC   GL169894   9.768  18.447  11.206  0.4370  0.2460 -0.2472
35326POPC   GL269895   9.846  18.358  10.947  0.0556 -0.1087  0.1390
35326POPC   C1A69896   9.752  18.880  11.171  0.1449 -0.2264 -0.0185
35326POPC   D2A69897   9.744  19.292  11.050 -0.0997  0.0293 -0.1173
35326POPC   C3A69898   9.671  19.736  11.254 -0.1088 -0.1321  0.3740
35326POPC   C4A69899   9.683  20.211  11.174  0.2024  0.2348 -0.3520
35326POPC   C1B69900   9.918  18.678  10.590 -0.2494  0.2787 -0.0899
35326POPC   C2B69901   9.781  19.002  10.258 -0.1049 -0.0454 -0.0635
35326POPC   C3B69902   9.896  19.438  10.134 -0.1036 -0.1530 -0.0073
35326POPC   C4B69903   9.844  19.850  10.253  0.2056  0.2263  0.3560
35327POPC   NC369904   7.512  27.300  15.988  0.0812  0.1244 -0.1541
35327POPC   PO469905   7.514  26.915  16.052 -0.0116  0.0017 -0.3385
35327POPC   GL169906   7.757  26.690  16.312 -0.2086  0.1968 -0.1579
35327POPC   GL269907   7.645  26.635  16.586  0.2415  0.1947  0.0834
35327POPC   C1A69908   8.156  26.476  16.465  0.0860 -0.1176  0.2158
35327POPC   D2A69909   8.290  26.159  16.786  0.2091  0.0722 -0.1240
35327POPC   C3A69910   8.295  25.767  16.536  0.1387  0.1959  0.1109
35327POPC   C4A69911   8.530  25.365  16.556  0.0589 -0.0751 -0.1270
35327POPC   C1B69912   7.880  26.652  16.964  0.0436  0.1282  0.3223
35327POPC   C2B69913   7.981  26.378  17.346  0.2222  0.1505  0.1628
35327POPC   C3B69914   7.907  26.205  17.793  0.2504 -0.1885  0.0496
35327POPC   C4B69915   7.996  25.876  18.096 -0.1411 -0.0015  0.0617
35328POPC   NC369916  12.008  27.849  11.342  0.0351 -0.0321 -0.2204
35328POPC   PO469917  11.858  27.682  11.047 -0.2905 -0.1351  0.0172
35328POPC   GL169918  11.699  27.346  10.938  0.0570 -0.1318 -0.1852
35328POPC   GL269919  11.687  27.242  10.707 -0.0766 -0.2364  0.0411
35328POPC   C1A69920  11.541  26.913  11.054 -0.0053 -0.4947  0.4954
35328POPC   D2A69921  11.464  26.486  10.824  0.1717  0.1969 -0.0038
35328POPC   C3A69922  11.170  26.264  10.595 -0.3153 -0.0628  0.1765
35328POPC   C4A69923  11.109  25.844  10.451 -0.1147 -0.0183 -0.1583
35328POPC   C1B69924  11.490  27.241  10.291  0.0183  0.1062  0.3667
35328POPC   C2B69925  11.303  27.001   9.958  0.0985  0.1168 -0.1012
35328POPC   C3B69926  11.102  26.785   9.616 -0.1305 -0.1368 -0.1085
35328POPC   C4B69927  10.924  26.379   9.676 -0.0739  0.0555  0.1537
35329POPC   NC369928   2.304  25.071  16.118 -0.2585 -0.1464 -0.0334
35329POPC   PO469929   2.572  24.891  15.895 -0.2718 -0.3513  0.1449
35329POPC   GL169930   2.597  24.690  16.249 -0.1162 -0.1386  0.3408
35329POPC   GL269931   2.684  24.859  16.428  0.1050  0.1097 -0.0708
35329POPC   C1A69932   2.698  24.344  16.507  0.1167  0.0099  0.2508
35329POPC   D2A69933   2.877  24.329  16.962  0.0745  0.2721  0.0755
35329POPC   C3A69934   3.113  24.702  17.153  0.1517 -0.1917  0.0693
35329POPC   C4A69935   3.474  24.915  17.200  0.2881 -0.0524  0.2279
35329POPC   C1B69936   3.079  24.659  16.617  0.1962  0.0679  0.3436
35329POPC   C2B69937   3.538  24.720  16.773  0.1534 -0.3576  0.1477
35329POPC   C3B69938   3.702  24.478  17.120 -0.4594 -0.2574  0.1447
35329POPC   C4B69939   3.618  24.568  17.576  0.1296 -0.0633  0.1037
35330POPC   NC369940  16.452  28.697  16.681  0.2143  0.0793  0.0906
35330POPC   PO469941  16.827  28.663  16.583  0.1245  0.2070  0.2241
35330POPC   GL169942  16.875  28.843  17.006  0.2058 -0.1536 -0.0724
35330POPC   GL269943  16.617  28.792  17.151 -0.3748 -0.0894  0.0313
35330POPC   C1A69944  17.115  28.896  17.399 -0.0365  0.0271 -0.1123
35330POPC   D2A69945  17.116  28.738  17.840 -0.0910 -0.0901  0.4414
35330POPC   C3A69946  17.301  28.958  18.212 -0.1144 -0.2123  0.3232
35330POPC   C4A69947  17.433  28.761  18.653  0.2766  0.1453  0.2589
35330POPC   C1B69948  16.643  28.654  17.608  0.1023 -0.2146 -0.2064
35330POPC   C2B69949  16.524  28.428  18.015 -0.5037  0.0895 -0.2078
35330POPC   C3B69950  16.201  28.163  18.148  0.0157  0.2334  0.1134
35330POPC   C4B69951  15.800  28.108  18.315  0.1613  0.0650 -0.2356
35331POPC   NC369952   5.438  32.135  16.043  0.2423 -0.3506  0.0948
35331POPC   PO469953   5.638  31.971  16.337 -0.1530  0.1671 -0.1169
35331POPC   GL169954   5.560  32.078  16.678  0.1419 -0.0960 -0.2946
35331POPC   GL269955   5.704  32.022  16.903  0.1463  0.0343  0.0726
35331POPC   C1A69956   5.245  31.962  16.960  0.1685 -0.0875 -0.1331
35331POPC   D2A69957   5.270  31.925  17.433  0.0966  0.0365  0.2609
35331POPC   C3A69958   5.028  31.672  17.778  0.0510 -0.0500  0.0901
35331POPC   C4A69959   4.882  31.611  18.267  0.2102 -0.1777 -0.1544
35331POPC   C1B69960   5.680  31.564  17.102  0.0951  0.0886  0.1918
35331POPC   C2B69961   5.846  31.237  17.433  0.0216  0.0360 -0.1654
35331POPC   C3B69962   5.865  31.060  17.806  0.1113 -0.0707  0.2646
35331POPC   C4B69963   6.025  31.242  18.210 -0.0328  0.0782 -0.0622
35332POPC   NC369964  11.011  17.280  13.890  0.1727  0.3457  0.4050
35332POPC   PO469965  10.855  17.101  14.198  0.1945 -0.0747  0.0781
35332POPC   GL169966  10.710  17.312  14.543 -0.3356  0.3003  0.0318
35332POPC   GL269967  10.568  17.526  14.434  0.4086 -0.0104  0.0005
35332POPC   C1A69968  10.877  17.710  14.754  0.0880  0.1398 -0.2337
35332POPC   D2A69969  10.829  18.167  14.868 -0.1257  0.2984  0.1535
35332POPC   C3A69970  10.943  18.554  14.782 -0.2439  0.0794 -0.0743
35332POPC   C4A69971  11.030  18.990  14.741  0.0116  0.0896  0.2559
35332POPC   C1B69972  10.364  17.789  14.744  0.0502 -0.2188 -0.1843
35332POPC   C2B69973  10.298  18.159  15.002 -0.3265  0.1299  0.1086
35332POPC   C3B69974  10.516  18.566  15.072  0.2381  0.0092 -0.0413
35332POPC   C4B69975  10.557  18.942  14.795 -0.0219 -0.2680 -0.1027
35333POPC   NC369976   2.034  18.058  16.042 -0.2170 -0.0717  0.1874
35333POPC   PO469977   1.841  17.722  16.059  0.0653  0.0744  0.0514
35333POPC   GL169978   1.964  17.770  16.479  0.3211  0.0539 -0.0745
35333POPC   GL269979   1.777  17.753  16.599 -0.1369 -0.1814  0.1669
35333POPC   C1A69980   2.313  17.954  16.738  0.3215 -0.2748  0.0767
35333POPC   D2A69981   2.526  17.979  17.157 -0.2417  0.2239 -0.1951
35333POPC   C3A69982   2.746  17.922  17.555 -0.0850  0.0550  0.1404
35333POPC   C4A69983   3.050  17.667  17.842  0.0086  0.0989  0.1492
35333POPC   C1B69984   1.648  17.982  16.966  0.1398 -0.0186 -0.2690
35333POPC   C2B69985   1.669  18.458  17.079 -0.1558 -0.1626 -0.1254
35333POPC   C3B69986   1.964  18.818  17.215 -0.2718 -0.2468  0.1889
35333POPC   C4B69987   2.262  19.167  17.361  0.2808 -0.2972  0.0670
35334POPC   NC369988   6.149  27.562  16.549 -0.2259 -0.1550 -0.1722
35334POPC   PO469989   6.443  27.395  16.326  0.0021  0.1205  0.3555
35334POPC   GL169990   6.780  27.239  16.416  0.2341 -0.1452 -0.1123
35334POPC   GL269991   6.917  27.080  16.264  0.2174 -0.1335 -0.1430
35334POPC   C1A69992   7.043  27.181  16.793 -0.1842  0.2311 -0.3292
35334POPC   D2A69993   7.467  26.945  16.956 -0.2309 -0.0697  0.2550
35334POPC   C3A69994   7.579  26.827  17.358 -0.0158 -0.2664  0.0101
35334POPC   C4A69995   7.597  26.572  17.733  0.4242 -0.0863 -0.0947
35334POPC   C1B69996   7.062  26.747  16.544  0.1434  0.1657 -0.0027
35334POPC   C2B69997   7.069  26.665  16.998 -0.1107 -0.0973  0.1294
35334POPC   C3B69998   7.113  26.673  17.442 -0.0535  0.0566 -0.0879
35334POPC   C4B69999   6.998  26.983  17.784  0.0305  0.3191 -0.2594
35335POPC   NC370000   9.898  16.031  14.529  0.1786  0.2263 -0.1495
35335POPC   PO470001   9.585  16.268  14.661  0.1893  0.0266  0.2741
35335POPC   GL170002   9.360  16.549  14.942  0.1402  0.0498  0.2367
35335POPC   GL270003   9.374  16.348  15.174  0.0163  0.3161 -0.0268
35335POPC   C1A70004   9.548  16.881  15.109  0.1897 -0.2039 -0.0522
35335POPC   D2A70005   9.896  17.212  15.068 -0.1199 -0.0419  0.0160
35335POPC   C3A70006  10.142  17.540  15.322  0.2644 -0.2458  0.3124
35335POPC   C4A70007  10.131  18.016  15.433 -0.1420  0.1320  0.0224
35335POPC   C1B70008   9.525  16.590  15.534 -0.1818 -0.0162  0.0623
35335POPC   C2B70009   9.643  16.900  15.883 -0.0308  0.0664  0.0764
35335POPC   C3B70010   9.601  17.046  16.303 -0.0996  0.0615  0.2759
35335POPC   C4B70011   9.635  17.162  16.761 -0.0345 -0.0198  0.2778
35336POPC   NC370012   2.485  24.348  15.906  0.0319  0.1888 -0.1049
35336POPC   PO470013   2.678  24.097  15.664  0.2102 -0.0482 -0.0082
35336POPC   GL170014   2.619  23.902  16.100  0.0985 -0.1424 -0.1044
35336POPC   GL270015   2.866  24.027  16.124 -0.0534 -0.1241  0.1214
35336POPC   C1A70016   2.757  23.803  16.531  0.0187  0.2350 -0.0136
35336POPC   D2A70017   2.918  23.402  16.761 -0.0297 -0.1116 -0.0313
35336POPC   C3A70018   3.120  23.329  17.182 -0.0599  0.0051  0.0050
35336POPC   C4A70019   3.415  23.274  17.476 -0.1460 -0.1376 -0.1575
35336POPC   C1B70020   3.158  24.249  16.377  0.1304  0.3304 -0.0933
35336POPC   C2B70021   3.352  24.220  16.783 -0.0870  0.1202  0.3074
35336POPC   C3B70022   3.367  24.168  17.223 -0.1156  0.0643  0.1186
35336POPC   C4B70023   3.465  24.091  17.688  0.0611 -0.2555 -0.1281
35337POPC   NC370024   6.720  25.895  15.081  0.3984 -0.0795  0.2334
35337POPC   PO470025   6.874  26.230  14.939 -0.2650  0.0605 -0.0956
35337POPC   GL170026   6.893  26.209  15.357 -0.4741  0.0552 -0.3059
35337POPC   GL270027   7.140  26.176  15.436  0.2267 -0.0443  0.0288
35337POPC   C1A70028   6.811  25.796  15.528  0.1455 -0.1033  0.1081
35337POPC   D2A70029   6.945  25.407  15.725 -0.2169  0.2204  0.1183
35337POPC   C3A70030   7.072  25.477  16.183 -0.0128 -0.0463  0.0858
35337POPC   C4A70031   7.139  25.450  16.667 -0.1595  0.0340 -0.0436
35337POPC   C1B70032   7.322  25.773  15.602  0.0432 -0.2904  0.0926
35337POPC   C2B70033   7.489  25.475  15.929 -0.2554 -0.0483 -0.1282
35337POPC   C3B70034   7.579  25.502  16.421 -0.0052  0.1410 -0.0970
35337POPC   C4B70035   7.841  25.676  16.778  0.2204  0.2896 -0.3932
35338POPC   NC370036   9.167  27.739  15.997  0.0434  0.2248  0.2386
35338POPC   PO470037   9.296  28.019  16.241 -0.2435 -0.0304 -0.0008
35338POPC   GL170038   9.173  27.960  16.680 -0.2191 -0.0273  0.4214
35338POPC   GL270039   9.087  28.172  16.844 -0.1076  0.0650 -0.2020
35338POPC   C1A70040   9.175  27.574  16.948 -0.1154  0.0529  0.3109
35338POPC   D2A70041   9.297  27.239  17.306 -0.0432  0.1321 -0.2870
35338POPC   C3A70042   9.742  27.173  17.312 -0.0116  0.0716 -0.3512
35338POPC   C4A70043  10.214  27.172  17.357 -0.1206  0.2287  0.2393
35338POPC   C1B70044   8.944  27.973  17.194 -0.0212 -0.0166  0.3150
35338POPC   C2B70045   8.917  27.822  17.605 -0.1199  0.3581  0.0150
35338POPC   C3B70046   9.104  27.908  18.000 -0.3007 -0.1391  0.1203
35338POPC   C4B70047   9.305  28.061  18.369 -0.0726 -0.1259 -0.2401
35339POPC   NC370048  10.931  26.728  14.505 -0.1421  0.1629 -0.0263
35339POPC   PO470049  11.265  26.705  14.709 -0.0361 -0.3486 -0.2254
35339POPC   GL170050  11.197  26.374  14.920 -0.4321  0.0713  0.3088
35339POPC   GL270051  11.317  26.463  15.198 -0.0830  0.0794 -0.1891
35339POPC   C1A70052  11.303  25.938  14.890 -0.1046 -0.1069  0.0923
35339POPC   D2A70053  11.029  25.597  14.703  0.0585 -0.2332  0.0052
35339POPC   C3A70054  10.966  25.160  14.566  0.1313  0.0735 -0.0541
35339POPC   C4A70055  10.725  24.761  14.534 -0.2547 -0.1046 -0.3752
35339POPC   C1B70056  11.023  26.114  15.318  0.0816 -0.2038 -0.2086
35339POPC   C2B70057  10.884  25.714  15.522  0.1288 -0.5596  0.0234
35339POPC   C3B70058  10.964  25.289  15.671 -0.1497  0.1068 -0.0546
35339POPC   C4B70059  11.264  25.075  15.836 -0.1140 -0.0516 -0.1311
35340POPC   NC370060   9.572  30.985  16.233 -0.0604 -0.1938 -0.3924
35340POPC   PO470061   9.701  31.194  15.933  0.1769 -0.0319 -0.0993
35340POPC   GL170062   9.559  31.419  16.179 -0.0378 -0.1145  0.1910
35340POPC   GL270063   9.777  31.558  16.412  0.2514  0.0954 -0.3575
35340POPC   C1A70064   9.226  31.733  16.185  0.2569 -0.0379 -0.3287
35340POPC   D2A70065   9.055  32.165  16.301 -0.1090  0.0508  0.0253
35340POPC   C3A70066   9.248  32.421  16.651  0.3190 -0.1075 -0.0026
35340POPC   C4A70067   9.449  32.801  16.764  0.0303  0.1703 -0.0035
35340POPC   C1B70068   9.623  31.582  16.843 -0.2134  0.2326  0.0424
35340POPC   C2B70069   9.526  31.639  17.305  0.0253  0.0656 -0.3812
35340POPC   C3B70070   9.535  31.625  17.808  0.0118 -0.0364 -0.0658
35340POPC   C4B70071   9.729  31.649  18.206  0.1002  0.0297 -0.0439
35341POPC   NC370072   4.824  16.886  15.450 -0.0348 -0.1401  0.2086
35341POPC   PO470073   4.453  16.805  15.343  0.1223  0.3050  0.1053
35341POPC   GL170074   4.471  17.105  15.715 -0.1502  0.2602  0.0391
35341POPC   GL270075   4.585  17.312  15.664 -0.1057 -0.0251 -0.1503
35341POPC   C1A70076   4.646  17.202  16.187  0.2834 -0.2592 -0.0686
35341POPC   D2A70077   4.778  17.589  16.400  0.5264 -0.0018 -0.1275
35341POPC   C3A70078   4.872  17.638  16.807 -0.3567 -0.0184  0.1504
35341POPC   C4A70079   5.030  17.992  17.057 -0.0472  0.1595 -0.4134
35341POPC   C1B70080   4.869  17.590  15.921  0.0138 -0.0995  0.1788
35341POPC   C2B70081   5.195  17.696  16.213  0.2984 -0.0103  0.3380
35341POPC   C3B70082   5.127  18.039  16.559 -0.1118  0.3870 -0.0041
35341POPC   C4B70083   5.311  18.359  16.825 -0.0537 -0.2340 -0.0426
35342POPC   NC370084  17.846  26.814  15.760  0.2687 -0.0549 -0.0641
35342POPC   PO470085  17.600  26.885  16.051  0.0757 -0.0624 -0.0714
35342POPC   GL170086  17.487  26.887  16.442 -0.4812 -0.3408  0.0186
35342POPC   GL270087  17.384  26.635  16.633 -0.3074  0.1098  0.0108
35342POPC   C1A70088  17.549  27.088  16.865  0.2267  0.0765  0.0621
35342POPC   D2A70089  17.248  27.338  17.097 -0.2042  0.0022 -0.4095
35342POPC   C3A70090  17.084  27.577  17.459  0.2641  0.1001  0.2050
35342POPC   C4A70091  17.058  27.752  17.894 -0.0715  0.0085 -0.2958
35342POPC   C1B70092  17.338  26.684  17.049 -0.0592 -0.0380 -0.1163
35342POPC   C2B70093  17.174  26.601  17.464 -0.4015  0.2394  0.3891
35342POPC   C3B70094  16.896  26.816  17.807  0.1026  0.3902  0.1165
35342POPC   C4B70095  16.915  27.195  18.009  0.1588 -0.1316 -0.0828
35343POPC   NC370096   7.572  28.294  15.812 -0.0544 -0.1477 -0.1894
35343POPC   PO470097   7.841  28.549  15.907 -0.1073  0.4063 -0.2796
35343POPC   GL170098   7.861  28.473  16.225 -0.2818  0.4242 -0.1217
35343POPC   GL270099   7.691  28.581  16.398 -0.1975 -0.0920  0.0907
35343POPC   C1A70100   7.838  28.140  16.548 -0.1307  0.0178  0.2665
35343POPC   D2A70101   7.844  27.750  16.768 -0.2758 -0.0251 -0.1516
35343POPC   C3A70102   7.991  27.716  17.237 -0.2066 -0.4212 -0.0163
35343POPC   C4A70103   8.112  27.807  17.675  0.1528  0.2152  0.2158
35343POPC   C1B70104   7.535  28.555  16.770 -0.0179  0.0275 -0.2534
35343POPC   C2B70105   7.668  28.656  17.196  0.0092 -0.0629 -0.1918
35343POPC   C3B70106   7.671  28.773  17.678 -0.0270 -0.0246  0.3109
35343POPC   C4B70107   7.966  28.762  17.993  0.2264 -0.0623  0.1037
35344POPC   NC370108   0.883  31.263  16.720 -0.1600  0.0052 -0.1120
35344POPC   PO470109   0.924  30.890  16.788  0.0113  0.1434 -0.1595
35344POPC   GL170110   0.957  30.989  17.216 -0.3627 -0.2290  0.1424
35344POPC   GL270111   0.816  30.799  17.343 -0.2357 -0.2839 -0.2388
35344POPC   C1A70112   0.989  31.158  17.660  0.1435 -0.1322 -0.2666
35344POPC   D2A70113   1.120  31.134  18.071  0.0054  0.3688  0.1915
35344POPC   C3A70114   1.557  31.213  18.199  0.0987  0.0634  0.0165
35344POPC   C4A70115   1.788  31.088  18.555 -0.1258  0.0587  0.1007
35344POPC   C1B70116   1.149  30.687  17.566 -0.0563  0.0690  0.0147
35344POPC   C2B70117   1.425  30.726  17.939 -0.2969  0.0326  0.1565
35344POPC   C3B70118   1.830  30.715  18.162 -0.2052  0.1661 -0.2446
35344POPC   C4B70119   2.057  30.654  18.621 -0.0590  0.1137  0.1376
35345POPC   NC370120  13.753  28.649  16.366 -0.2072 -0.0490 -0.0484
35345POPC   PO470121  13.453  28.418  16.355 -0.0924 -0.1000  0.2790
35345POPC   GL170122  13.206  28.404  16.677  0.3155  0.1608  0.1022
35345POPC   GL270123  13.258  28.595  16.823 -0.2568 -0.0823  0.0722
35345POPC   C1A70124  13.284  28.034  16.993  0.1648 -0.0147  0.0627
35345POPC   D2A70125  13.482  27.678  17.250  0.0803  0.1480  0.0520
35345POPC   C3A70126  13.713  27.564  17.666 -0.1418  0.1854  0.2827
35345POPC   C4A70127  13.748  27.417  18.104  0.0456 -0.1471 -0.4974
35345POPC   C1B70128  12.885  28.433  17.030 -0.2472  0.2077 -0.3498
35345POPC   C2B70129  12.866  28.194  17.396 -0.0327  0.1986 -0.2109
35345POPC   C3B70130  12.962  27.951  17.794 -0.2319  0.0625 -0.2352
35345POPC   C4B70131  12.838  27.604  18.105 -0.1220 -0.0939 -0.1324
35346POPC   NC370132   6.858  29.727  16.565  0.0632 -0.2734  0.0184
35346POPC   PO470133   6.480  29.854  16.570 -0.0759 -0.4158  0.0986
35346POPC   GL170134   6.472  29.884  16.963 -0.1621 -0.4644  0.1843
35346POPC   GL270135   6.710  29.778  17.001  0.0599  0.0476 -0.1864
35346POPC   C1A70136   6.363  30.064  17.383  0.1591 -0.1414 -0.2484
35346POPC   D2A70137   6.155  30.192  17.797 -0.3322 -0.1687  0.1077
35346POPC   C3A70138   6.558  30.116  18.023 -0.1559 -0.5790 -0.1858
35346POPC   C4A70139   7.004  30.239  18.224  0.0926  0.4527  0.0223
35346POPC   C1B70140   6.993  29.687  17.347 -0.0583  0.1901  0.3443
35346POPC   C2B70141   7.249  29.413  17.674 -0.1768  0.2622  0.1834
35346POPC   C3B70142   7.082  29.264  18.076  0.0752 -0.1455  0.1004
35346POPC   C4B70143   6.952  29.244  18.475  0.3080  0.2474  0.0459
35347POPC   NC370144   2.506  22.429  16.335 -0.1898 -0.0792 -0.1423
35347POPC   PO470145   2.172  22.428  16.141  0.1618  0.0543  0.0880
35347POPC   GL170146   1.978  22.301  16.422  0.1748  0.1089 -0.2011
35347POPC   GL270147   1.846  22.542  16.486 -0.1416  0.2397  0.0247
35347POPC   C1A70148   2.062  21.983  16.752 -0.0680 -0.1296  0.4199
35347POPC   D2A70149   2.331  21.916  17.157 -0.1142  0.2100 -0.0297
35347POPC   C3A70150   1.963  21.770  17.427  0.2359  0.5577  0.0363
35347POPC   C4A70151   1.563  21.948  17.582 -0.0122  0.0142  0.0935
35347POPC   C1B70152   2.050  22.478  16.908  0.0735  0.0551  0.0385
35347POPC   C2B70153   2.361  22.407  17.263  0.1937 -0.1467 -0.0459
35347POPC   C3B70154   2.575  22.123  17.496  0.0398  0.0795 -0.3553
35347POPC   C4B70155   2.908  21.762  17.604  0.1810 -0.1083 -0.0254
35348POPC   NC370156  12.984  28.426  10.099 -0.4721  0.3221 -0.3887
35348POPC   PO470157  13.119  28.321   9.752  0.0248 -0.0106  0.3399
35348POPC   GL170158  12.860  28.068   9.541 -0.3048  0.4241  0.0509
35348POPC   GL270159  12.909  28.156   9.270  0.0745  0.2149  0.3961
35348POPC   C1A70160  12.462  27.911   9.493 -0.0112 -0.1718  0.3295
35348POPC   D2A70161  12.049  27.741   9.512 -0.0095  0.0348  0.3790
35348POPC   C3A70162  12.092  27.556   9.096 -0.3885  0.3005 -0.0429
35348POPC   C4A70163  12.161  27.735   8.605 -0.1551 -0.1997  0.0007
35348POPC   C1B70164  13.017  27.765   9.028  0.0722  0.0603  0.1586
35348POPC   C2B70165  13.027  27.584   8.611  0.0929 -0.1836 -0.1413
35348POPC   C3B70166  12.952  27.538   8.187 -0.1199  0.1364  0.0217
35348POPC   C4B70167  12.690  27.511   7.818 -0.2768  0.3170  0.2308
35349POPC   NC370168  16.401  21.027  15.648  0.0431  0.0773 -0.1177
35349POPC   PO470169  16.296  21.382  15.470  0.0023 -0.3550  0.1754
35349POPC   GL170170  16.074  21.540  15.728 -0.4033  0.2032 -0.2268
35349POPC   GL270171  16.160  21.886  15.724 -0.2227 -0.1374  0.1408
35349POPC   C1A70172  16.227  21.582  16.207 -0.4905  0.1409  0.1014
35349POPC   D2A70173  16.076  21.936  16.527  0.0981 -0.3659 -0.1193
35349POPC   C3A70174  15.766  22.216  16.779  0.0379  0.3110 -0.0148
35349POPC   C4A70175  15.559  22.675  16.656 -0.0218 -0.4047 -0.1005
35349POPC   C1B70176  15.836  22.120  16.001 -0.1921  0.1344 -0.0746
35349POPC   C2B70177  15.513  22.076  16.366 -0.1091 -0.0081  0.0706
35349POPC   C3B70178  15.237  22.302  16.693 -0.1846 -0.2660 -0.2103
35349POPC   C4B70179  14.989  22.681  16.730  0.2525 -0.0074  0.0453
35350POPC   NC370180  10.949  29.039  10.472 -0.1422  0.0321  0.0122
35350POPC   PO470181  10.833  28.895  10.136  0.3071  0.1413  0.2303
35350POPC   GL170182  10.874  28.671   9.828 -0.2466  0.0839  0.2440
35350POPC   GL270183  11.057  28.753   9.629 -0.2371 -0.2430  0.1233
35350POPC   C1A70184  10.556  28.485   9.583 -0.0076  0.0767 -0.0860
35350POPC   D2A70185  10.456  28.331   9.129  0.5180 -0.0181 -0.0091
35350POPC   C3A70186  10.817  28.162   8.875  0.2240  0.0513  0.1517
35350POPC   C4A70187  11.235  27.983   8.894  0.4436 -0.0536 -0.2729
35350POPC   C1B70188  11.003  28.589   9.182 -0.0363 -0.1812  0.1078
35350POPC   C2B70189  11.124  28.549   8.709 -0.0819  0.2460 -0.1474
35350POPC   C3B70190  11.146  28.273   8.341  0.1358 -0.2146 -0.0949
35350POPC   C4B70191  11.008  28.010   8.002 -0.4989 -0.0423 -0.1798
35351POPC   NC370192  14.673  16.377  15.630  0.0488 -0.0642 -0.1602
35351POPC   PO470193  14.347  16.576  15.710 -0.0664  0.0628  0.2232
35351POPC   GL170194  14.460  16.627  16.057 -0.2170  0.2860 -0.0104
35351POPC   GL270195  14.366  16.396  16.218  0.0792  0.0060  0.1418
35351POPC   C1A70196  14.627  16.996  16.271  0.1588 -0.3115  0.0762
35351POPC   D2A70197  14.621  17.339  16.577  0.3092  0.2243  0.1156
35351POPC   C3A70198  14.213  17.646  16.657  0.2390  0.1280  0.1541
35351POPC   C4A70199  13.797  17.644  16.970 -0.5301 -0.0357 -0.2465
35351POPC   C1B70200  14.307  16.699  16.569  0.0237 -0.0443  0.0665
35351POPC   C2B70201  14.350  17.009  16.889  0.4050  0.0050 -0.0067
35351POPC   C3B70202  14.358  17.206  17.255 -0.1078  0.2932 -0.2428
35351POPC   C4B70203  14.223  17.419  17.583 -0.3432  0.3394  0.2799
35352POPC   NC370204   5.729   0.641  15.052  0.0401  0.1611 -0.1883
35352POPC   PO470205   5.746   0.401  15.389 -0.2412 -0.0437  0.1187
35352POPC   GL170206   5.842   0.323  15.767  0.1210 -0.2377  0.2327
35352POPC   GL270207   5.805   0.170  15.973  0.1352 -0.1700  0.0941
35352POPC   C1A70208   5.926   0.772  15.937  0.2294 -0.1975  0.1081
35352POPC   D2A70209   5.888   1.206  16.125  0.0461 -0.1567  0.0490
35352POPC   C3A70210   6.266   1.446  16.307  0.0807 -0.1521 -0.4675
35352POPC   C4A70211   6.673   1.366  16.079 -0.3054 -0.1310 -0.1112
35352POPC   C1B70212   5.748   0.412  16.382 -0.3626 -0.1648 -0.0879
35352POPC   C2B70213   5.661   0.619  16.813  0.1922  0.2591  0.3934
35352POPC   C3B70214   5.872   0.873  17.137  0.1522  0.0927 -0.0673
35352POPC   C4B70215   5.789   1.353  17.048  0.0485  0.3009  0.0485
35353POPC   NC370216  14.720  22.334  12.882  0.2261 -0.2196  0.3225
35353POPC   PO470217  14.563  22.625  13.099  0.1639 -0.1800  0.1577
35353POPC   GL170218  14.181  22.690  13.226 -0.0485 -0.0137 -0.1980
35353POPC   GL270219  14.010  22.547  13.008 -0.2397 -0.3149 -0.3157
35353POPC   C1A70220  13.908  22.432  13.544 -0.3302  0.2021 -0.2475
35353POPC   D2A70221  13.521  22.190  13.655  0.2940  0.2309 -0.0355
35353POPC   C3A70222  13.138  22.251  13.482  0.3542  0.1525  0.1323
35353POPC   C4A70223  12.925  22.353  13.089  0.0078 -0.0335 -0.0936
35353POPC   C1B70224  13.695  22.751  12.754  0.2776 -0.0547 -0.0796
35353POPC   C2B70225  13.243  22.929  12.619  0.1401 -0.1689 -0.2816
35353POPC   C3B70226  12.891  22.891  12.302  0.0006  0.2408 -0.1542
35353POPC   C4B70227  12.578  22.492  12.187 -0.1876 -0.2660 -0.0187
35354POPC   NC370228  14.726  24.332  13.082  0.0188  0.0681 -0.0222
35354POPC   PO470229  14.463  24.100  12.903 -0.1003  0.0609  0.1078
35354POPC   GL170230  14.093  24.060  13.023 -0.2566 -0.1935  0.0819
35354POPC   GL270231  14.065  23.855  13.256  0.1438 -0.0426 -0.1107
35354POPC   C1A70232  13.634  24.026  13.111  0.2954 -0.1534  0.1336
35354POPC   D2A70233  13.297  23.965  12.830 -0.1005 -0.0108  0.2850
35354POPC   C3A70234  12.825  23.865  12.814 -0.0924 -0.2003  0.0736
35354POPC   C4A70235  12.459  24.135  12.724  0.2709  0.1694  0.3082
35354POPC   C1B70236  13.741  23.535  13.204  0.0863 -0.1553 -0.0108
35354POPC   C2B70237  13.426  23.207  13.088 -0.1394  0.1849  0.1056
35354POPC   C3B70238  13.011  23.191  13.292 -0.1228  0.3406  0.0709
35354POPC   C4B70239  12.813  22.809  13.433  0.1743  0.2414  0.0252
35355POPC   NC370240   7.577  17.279  14.714  0.0999 -0.0191 -0.0300
35355POPC   PO470241   7.702  16.907  14.710 -0.1080  0.0030  0.0474
35355POPC   GL170242   7.836  17.106  15.043 -0.0583 -0.1529 -0.1410
35355POPC   GL270243   8.021  16.957  15.170 -0.0118  0.0042 -0.0629
35355POPC   C1A70244   7.888  17.546  15.138  0.1673  0.0736  0.4379
35355POPC   D2A70245   7.654  17.800  15.423  0.1413 -0.0802  0.0108
35355POPC   C3A70246   7.909  18.073  15.731  0.1665 -0.0691  0.0352
35355POPC   C4A70247   8.331  18.280  15.865  0.1081  0.1122 -0.0479
35355POPC   C1B70248   8.201  16.896  15.569  0.2127 -0.1079  0.2595
35355POPC   C2B70249   8.488  17.086  15.907  0.2628  0.2118  0.4063
35355POPC   C3B70250   8.485  17.397  16.292  0.0911  0.1102 -0.2251
35355POPC   C4B70251   8.682  17.718  16.590 -0.0300 -0.0762  0.0309
35356POPC   NC370252   1.825  18.825  15.214 -0.1446 -0.0468 -0.0244
35356POPC   PO470253   2.053  19.061  15.451 -0.0669  0.1710  0.0189
35356POPC   GL170254   1.946  19.089  15.923  0.1125  0.2988 -0.2789
35356POPC   GL270255   1.615  19.105  15.984  0.5076  0.2239  0.3953
35356POPC   C1A70256   1.830  18.769  16.286 -0.0716 -0.4788  0.2908
35356POPC   D2A70257   1.961  18.818  16.721 -0.2048  0.0077 -0.2045
35356POPC   C3A70258   1.951  19.242  16.886  0.0854 -0.2966  0.0258
35356POPC   C4A70259   1.841  19.417  17.321 -0.0057 -0.1585  0.0745
35356POPC   C1B70260   1.538  19.240  16.445  0.1142 -0.1787 -0.1772
35356POPC   C2B70261   1.387  19.436  16.858  0.0269  0.0788  0.4071
35356POPC   C3B70262   1.341  19.655  17.239 -0.0513  0.1754  0.2086
35356POPC   C4B70263   1.418  19.491  17.629 -0.1525  0.0766  0.1660
35357POPC   NC370264  15.657  21.363  14.720  0.1475  0.0962 -0.1297
35357POPC   PO470265  15.669  21.083  14.997  0.0310 -0.0513 -0.0918
35357POPC   GL170266  15.672  20.896  15.354  0.2295 -0.1303 -0.1176
35357POPC   GL270267  15.812  21.179  15.629 -0.4688 -0.0348  0.0471
35357POPC   C1A70268  15.358  20.664  15.598 -0.3013  0.1720 -0.2497
35357POPC   D2A70269  15.096  20.791  15.927 -0.2005  0.2403 -0.0206
35357POPC   C3A70270  15.176  20.610  16.306 -0.1044  0.0271 -0.3397
35357POPC   C4A70271  15.210  20.485  16.762  0.2559 -0.1406  0.0851
35357POPC   C1B70272  15.573  21.028  15.948 -0.2488  0.1020  0.0429
35357POPC   C2B70273  15.241  21.158  16.288  0.1639 -0.1092 -0.0642
35357POPC   C3B70274  14.875  20.987  16.535 -0.0236 -0.2360 -0.2441
35357POPC   C4B70275  14.748  20.675  16.848 -0.1473 -0.0959  0.1458
35358POPC   NC370276   6.112  25.303  14.563 -0.0850 -0.1705 -0.0978
35358POPC   PO470277   6.218  25.661  14.642 -0.3047  0.0051 -0.0411
35358POPC   GL170278   6.467  25.347  14.819 -0.3211 -0.3153 -0.3599
35358POPC   GL270279   6.774  25.442  14.875  0.1570  0.0048 -0.1209
35358POPC   C1A70280   6.441  24.912  14.846  0.1493 -0.0164  0.0491
35358POPC   D2A70281   6.699  24.646  15.138  0.2875  0.1288 -0.0111
35358POPC   C3A70282   7.074  24.451  15.006 -0.0815 -0.0943 -0.0092
35358POPC   C4A70283   7.547  24.444  15.042 -0.1328  0.1427 -0.3559
35358POPC   C1B70284   6.759  25.244  15.227  0.2198 -0.2685  0.0105
35358POPC   C2B70285   6.897  24.909  15.460 -0.1141 -0.0421  0.0890
35358POPC   C3B70286   6.842  24.506  15.616  0.0517  0.1241  0.0213
35358POPC   C4B70287   6.523  24.264  15.365  0.1820  0.0552  0.2198
35359POPC   NC370288   6.054  16.999  15.006 -0.3652 -0.2319  0.2195
35359POPC   PO470289   5.842  17.337  14.968 -0.3215  0.0089  0.1340
35359POPC   GL170290   5.963  17.479  15.300  0.1164  0.3201  0.1397
35359POPC   GL270291   5.778  17.643  15.527 -0.1395 -0.1402 -0.2044
35359POPC   C1A70292   6.352  17.604  15.557  0.1055 -0.0430 -0.0054
35359POPC   D2A70293   6.573  17.690  15.942  0.1032  0.1403  0.0154
35359POPC   C3A70294   6.565  18.084  16.192  0.3536 -0.1313 -0.0801
35359POPC   C4A70295   6.677  18.042  16.603 -0.0995 -0.0211  0.4505
35359POPC   C1B70296   5.985  17.766  15.919 -0.4343 -0.1129 -0.1242
35359POPC   C2B70297   6.072  18.069  16.222 -0.1103 -0.1154 -0.0537
35359POPC   C3B70298   6.278  18.415  16.501 -0.1196  0.1613 -0.0542
35359POPC   C4B70299   6.399  18.709  16.893 -0.0958  0.1223 -0.2999
35360POPC   NC370300  18.271  24.381  15.868  0.2730 -0.1358 -0.2013
35360POPC   PO470301  17.877  24.453  15.770 -0.1103 -0.3686  0.2370
35360POPC   GL170302  17.814  24.346  16.057 -0.0977  0.0743 -0.2345
35360POPC   GL270303  17.825  24.034  16.102  0.1072  0.0781 -0.1470
35360POPC   C1A70304  17.493  24.382  16.381 -0.1566  0.1243  0.1702
35360POPC   D2A70305  17.064  24.506  16.497 -0.3044 -0.0215  0.1206
35360POPC   C3A70306  16.893  24.333  16.908  0.2910  0.0950 -0.1413
35360POPC   C4A70307  16.886  24.207  17.338  0.1438  0.1164 -0.2059
35360POPC   C1B70308  17.765  23.979  16.581 -0.0259 -0.0066 -0.0507
35360POPC   C2B70309  17.671  24.035  17.053 -0.0997  0.0888 -0.0785
35360POPC   C3B70310  17.784  24.030  17.494 -0.1086 -0.2012  0.0094
35360POPC   C4B70311  18.100  23.916  17.830  0.4106 -0.2005  0.1921
35361POPC   NC370312  14.635  27.151  15.679  0.0851  0.0434  0.0965
35361POPC   PO470313  15.039  27.034  15.708  0.1891 -0.2552 -0.0917
35361POPC   GL170314  14.866  27.020  16.131 -0.0075  0.0188  0.1883
35361POPC   GL270315  15.030  27.138  16.267 -0.1372 -0.1519 -0.0417
35361POPC   C1A70316  14.745  26.569  16.246 -0.0972  0.2336  0.0332
35361POPC   D2A70317  14.651  26.142  16.328 -0.0546 -0.2265  0.0810
35361POPC   C3A70318  14.261  26.043  16.571  0.0198  0.2117 -0.4259
35361POPC   C4A70319  13.833  25.851  16.702  0.0756 -0.0666 -0.1683
35361POPC   C1B70320  14.804  26.985  16.611  0.2132 -0.1779  0.2483
35361POPC   C2B70321  14.765  26.644  16.887  0.0136 -0.0246  0.1491
35361POPC   C3B70322  14.601  26.316  17.166  0.1652 -0.0369  0.1918
35361POPC   C4B70323  14.481  25.921  17.050  0.2478 -0.1448  0.1099
35362POPC   NC370324  32.797  29.514  16.667 -0.1379  0.3811  0.0279
35362POPC   PO470325  32.985  29.812  16.825  0.1989 -0.1957  0.0105
35362POPC   GL170326  32.978  29.942  17.284  0.1661  0.0218  0.2198
35362POPC   GL270327  33.115  30.153  17.307 -0.3814 -0.1628  0.5367
35362POPC   C1A70328  33.041  29.953  17.780  0.1035 -0.1795  0.0990
35362POPC   D2A70329  33.325  29.804  18.097 -0.1834  0.1523  0.1657
35362POPC   C3A70330  33.579  29.536  18.385  0.1346  0.0297  0.0408
35362POPC   C4A70331  33.645  29.129  18.632 -0.0568  0.0786 -0.0841
35362POPC   C1B70332  33.468  30.366  17.502  0.0225 -0.0485 -0.0624
35362POPC   C2B70333  33.529  30.632  17.916  0.1093 -0.1239 -0.1571
35362POPC   C3B70334  33.836  30.653  18.302 -0.3646 -0.2477  0.1825
35362POPC   C4B70335  34.267  30.683  18.468 -0.2876 -0.1733 -0.3155
35363POPC   NC370336   7.553  29.863  15.800 -0.0102  0.1598 -0.2097
35363POPC   PO470337   7.725  29.811  16.134 -0.0810 -0.1495  0.0085
35363POPC   GL170338   7.669  29.550  16.490 -0.2145  0.4373  0.2765
35363POPC   GL270339   7.462  29.597  16.708  0.1749 -0.3834  0.3372
35363POPC   C1A70340   7.927  29.529  16.891 -0.1893  0.0443 -0.1688
35363POPC   D2A70341   8.237  29.552  17.247  0.2628 -0.0676 -0.4235
35363POPC   C3A70342   8.546  29.274  17.342 -0.0333  0.1351  0.2499
35363POPC   C4A70343   8.812  28.874  17.436  0.1564  0.0580  0.0760
35363POPC   C1B70344   7.487  29.620  17.163  0.0462 -0.1247  0.1901
35363POPC   C2B70345   7.693  29.747  17.526  0.0569 -0.1847  0.0437
35363POPC   C3B70346   8.073  29.559  17.760 -0.0211 -0.2261  0.1082
35363POPC   C4B70347   8.471  29.417  17.805 -0.1296 -0.1325  0.2724
35364POPC   NC370348   2.707  21.104  15.589  0.1300 -0.1657  0.1972
35364POPC   PO470349   3.006  21.239  15.766  0.0432  0.1036 -0.2948
35364POPC   GL170350   3.217  21.273  16.046  0.0716 -0.6939  0.1837
35364POPC   GL270351   3.098  21.280  16.302 -0.2500  0.1448  0.1767
35364POPC   C1A70352   3.665  21.203  16.253 -0.1120 -0.0400 -0.0119
35364POPC   D2A70353   3.797  20.928  16.634  0.0382  0.0444  0.1099
35364POPC   C3A70354   3.774  20.469  16.798  0.0310 -0.1550  0.0406
35364POPC   C4A70355   3.781  20.261  17.205  0.4169 -0.1870 -0.2699
35364POPC   C1B70356   3.180  21.212  16.756  0.3542  0.1814 -0.0934
35364POPC   C2B70357   3.053  21.328  17.192  0.0506  0.1266  0.0456
35364POPC   C3B70358   3.268  21.410  17.566  0.4063 -0.2823  0.0647
35364POPC   C4B70359   3.182  21.440  17.980  0.3309  0.1418  0.1153
35365POPC   NC370360   3.162  31.156   7.904  0.1654  0.3732 -0.3490
35365POPC   PO470361   3.461  31.122   8.151  0.1668 -0.3345  0.1112
35365POPC   GL170362   3.759  31.115   7.767 -0.1292  0.1687 -0.2671
35365POPC   GL270363   3.688  30.910   7.546  0.1175  0.0504  0.1844
35365POPC   C1A70364   3.828  31.399   7.342  0.3349  0.0778  0.0545
35365POPC   D2A70365   3.492  31.559   7.053 -0.0958  0.0645 -0.0920
35365POPC   C3A70366   3.476  31.736   6.611 -0.2590  0.1183 -0.3363
35365POPC   C4A70367   3.663  31.878   6.216 -0.0453  0.1792  0.0757
35365POPC   C1B70368   3.579  30.964   7.067 -0.0172  0.0972  0.2415
35365POPC   C2B70369   3.336  31.175   6.764 -0.0019 -0.0122 -0.1760
35365POPC   C3B70370   2.910  31.081   6.625  0.0354  0.1108  0.3188
35365POPC   C4B70371   2.504  30.878   6.472 -0.4826 -0.0845  0.1369
35366POPC   NC370372  13.030  17.469  14.798 -0.0049 -0.1572 -0.0856
35366POPC   PO470373  13.082  17.470  15.205  0.1023  0.1356 -0.1077
35366POPC   GL170374  12.783  17.564  15.477  0.0458 -0.1589 -0.2301
35366POPC   GL270375  12.534  17.396  15.335 -0.0045 -0.0350  0.1777
35366POPC   C1A70376  12.661  18.035  15.530 -0.2608  0.0336 -0.1908
35366POPC   D2A70377  12.424  18.449  15.448  0.1417 -0.2331 -0.1033
35366POPC   C3A70378  12.355  18.750  15.800  0.0041 -0.0777 -0.1602
35366POPC   C4A70379  12.588  18.996  16.128 -0.1407 -0.1711  0.0544
35366POPC   C1B70380  12.419  17.680  15.730 -0.0425  0.2391  0.1200
35366POPC   C2B70381  12.118  17.868  16.044  0.2163  0.0628  0.0552
35366POPC   C3B70382  11.699  17.861  16.239  0.2997 -0.0254  0.0547
35366POPC   C4B70383  11.239  17.864  16.228 -0.0310  0.0103 -0.1214
35367POPC   NC370384   2.752  31.910  16.702  0.1325 -0.0132 -0.1813
35367POPC   PO470385   2.386  32.036  16.580  0.0301 -0.0210 -0.1735
35367POPC   GL170386   2.314  32.247  16.898  0.0254 -0.1813  0.0774
35367POPC   GL270387   2.023  32.190  16.890  0.1352  0.0728  0.0700
35367POPC   C1A70388   2.329  32.521  17.254 -0.1440  0.0089  0.2845
35367POPC   D2A70389   2.363  32.397  17.724  0.0957 -0.0264 -0.1491
35367POPC   C3A70390   2.611  32.366  18.102 -0.3033  0.0046  0.0799
35367POPC   C4A70391   2.778  32.460  18.520 -0.0558  0.0171 -0.0033
35367POPC   C1B70392   1.975  32.157  17.332 -0.1401  0.0620 -0.2327
35367POPC   C2B70393   1.889  31.997  17.760 -0.2488 -0.0457  0.1437
35367POPC   C3B70394   1.623  32.107  18.200 -0.0356 -0.2104 -0.1742
35367POPC   C4B70395   1.350  32.095  18.576 -0.1414  0.0604  0.0996
35368POPC   NC370396   4.535  29.571  16.357  0.2526 -0.2925  0.3042
35368POPC   PO470397   4.721  29.225  16.456 -0.0011 -0.1664 -0.1242
35368POPC   GL170398   4.633  29.229  16.844  0.1011 -0.2208  0.4575
35368POPC   GL270399   4.381  29.267  16.974  0.2696  0.1123  0.1104
35368POPC   C1A70400   4.704  28.968  17.282 -0.0298  0.2370  0.4666
35368POPC   D2A70401   5.052  28.613  17.218 -0.3367 -0.2003  0.2562
35368POPC   C3A70402   4.871  28.299  17.441 -0.0501 -0.1528 -0.2022
35368POPC   C4A70403   4.800  28.190  17.867 -0.2256  0.0840  0.0186
35368POPC   C1B70404   4.014  29.295  17.289  0.1609  0.0751 -0.0924
35368POPC   C2B70405   4.020  29.359  17.746  0.2368  0.2031  0.3172
35368POPC   C3B70406   3.936  29.297  18.130  0.0520  0.0302  0.1412
35368POPC   C4B70407   3.509  29.206  18.345 -0.1899 -0.2750  0.1712
35369POPC   NC370408   1.022  29.684  16.450  0.2132 -0.0599  0.2886
35369POPC   PO470409   1.129  29.308  16.429 -0.2674 -0.0167  0.0355
35369POPC   GL170410   0.988  29.259  16.824 -0.0111 -0.2169 -0.2349
35369POPC   GL270411   1.170  29.249  17.097 -0.2232  0.2051 -0.1124
35369POPC   C1A70412   0.600  29.207  17.056  0.0764  0.2332 -0.2057
35369POPC   D2A70413   0.422  28.906  17.310 -0.3597  0.1882 -0.2984
35369POPC   C3A70414   0.020  29.004  17.415 -0.0650  0.1514 -0.2688
35369POPC   C4A70415  -0.336  29.322  17.349 -0.0146  0.0972  0.0430
35369POPC   C1B70416   0.900  29.113  17.398  0.1529  0.0552 -0.0837
35369POPC   C2B70417   0.985  28.913  17.788  0.0768  0.0019  0.1951
35369POPC   C3B70418   0.858  28.714  18.235 -0.0350 -0.3320  0.2852
35369POPC   C4B70419   0.962  28.469  18.588 -0.0637  0.0964  0.0851
35370POPC   NC370420  14.431  20.661  12.010 -0.4133  0.2037 -0.1629
35370POPC   PO470421  14.629  20.423  12.306 -0.2530  0.0157  0.0775
35370POPC   GL170422  14.174  20.322  12.310 -0.1733  0.2300  0.1823
35370POPC   GL270423  13.947  20.493  12.166 -0.0089  0.0725  0.0636
35370POPC   C1A70424  13.788  20.377  12.603 -0.0576  0.1941  0.0409
35370POPC   D2A70425  13.461  20.408  12.882  0.2837 -0.2304  0.3015
35370POPC   C3A70426  13.130  20.263  13.122  0.0124 -0.0041 -0.0680
35370POPC   C4A70427  12.843  20.446  13.466 -0.4090 -0.2251 -0.2957
35370POPC   C1B70428  13.570  20.778  12.280  0.0485 -0.2020  0.0007
35370POPC   C2B70429  13.248  20.710  12.570 -0.1990  0.2269  0.0253
35370POPC   C3B70430  12.866  20.939  12.625  0.0285  0.1186 -0.3248
35370POPC   C4B70431  12.528  21.213  12.576 -0.1773 -0.0259 -0.0364
35371POPC   NC370432   5.734  21.048  12.092  0.0659 -0.0406 -0.2943
35371POPC   PO470433   5.780  20.646  12.200 -0.0832 -0.2626 -0.1412
35371POPC   GL170434   6.117  20.839  11.916  0.0566 -0.1372 -0.0136
35371POPC   GL270435   6.185  20.596  11.889  0.1443  0.1388 -0.1418
35371POPC   C1A70436   6.462  21.134  11.776 -0.0846 -0.1426  0.2218
35371POPC   D2A70437   6.877  21.217  11.559 -0.1710  0.0702  0.0346
35371POPC   C3A70438   7.090  21.498  11.273  0.1540 -0.0517  0.0541
35371POPC   C4A70439   7.457  21.783  11.262 -0.2410  0.1612  0.0321
35371POPC   C1B70440   6.562  20.444  11.661 -0.0541 -0.1217 -0.0091
35371POPC   C2B70441   6.928  20.618  11.432  0.1033  0.0003  0.1153
35371POPC   C3B70442   7.194  20.961  11.249  0.2270 -0.2691 -0.1451
35371POPC   C4B70443   7.537  21.277  11.221 -0.0299 -0.4587 -0.1447
35372POPC   NC370444  14.761  24.615  14.753 -0.1080 -0.0383  0.0186
35372POPC   PO470445  14.819  24.722  15.114  0.0101 -0.0662  0.1181
35372POPC   GL170446  14.443  24.607  15.287  0.3647  0.4622  0.0330
35372POPC   GL270447  14.216  24.738  15.085 -0.3172  0.1316 -0.1160
35372POPC   C1A70448  14.380  24.476  15.705  0.2176 -0.0203 -0.2106
35372POPC   D2A70449  14.478  24.305  16.133  0.0305  0.0456 -0.0153
35372POPC   C3A70450  14.095  24.501  16.427 -0.1251  0.4666  0.0547
35372POPC   C4A70451  14.028  24.461  16.899  0.0566 -0.0457  0.0192
35372POPC   C1B70452  13.963  24.435  15.387 -0.2352  0.2239 -0.0074
35372POPC   C2B70453  13.648  24.304  15.668 -0.1040 -0.0632  0.1920
35372POPC   C3B70454  13.407  24.288  16.010  0.1451  0.1244  0.0016
35372POPC   C4B70455  13.024  24.456  16.202  0.0976 -0.2124 -0.3356
35373POPC   NC370456   9.385  29.448  16.077 -0.0026  0.4369  0.3784
35373POPC   PO470457   9.733  29.387  16.252 -0.2655  0.0240  0.0333
35373POPC   GL170458   9.818  29.420  16.643 -0.2632  0.3477  0.0109
35373POPC   GL270459   9.928  29.171  16.643 -0.1641  0.4310  0.2222
35373POPC   C1A70460   9.467  29.429  17.006  0.3871  0.0645 -0.1818
35373POPC   D2A70461   9.509  29.155  17.324 -0.1631  0.1453  0.0829
35373POPC   C3A70462   9.525  29.401  17.725  0.0994 -0.0626  0.3185
35373POPC   C4A70463   9.409  29.324  18.183 -0.1219 -0.1628 -0.0991
35373POPC   C1B70464   9.851  28.871  16.990 -0.1001  0.2335  0.0881
35373POPC   C2B70465   9.729  28.722  17.386 -0.3097  0.3776 -0.0175
35373POPC   C3B70466   9.696  28.791  17.823  0.1045 -0.2597  0.2181
35373POPC   C4B70467   9.577  28.632  18.227 -0.0218 -0.3208  0.3242
35374POPC   NC370468  15.059  25.785  15.318  0.2038  0.2423 -0.2449
35374POPC   PO470469  14.914  26.119  15.480 -0.1987  0.2441  0.2574
35374POPC   GL170470  14.992  25.773  15.791 -0.0252  0.1425 -0.3387
35374POPC   GL270471  14.725  25.591  15.736  0.0595 -0.0339 -0.1311
35374POPC   C1A70472  14.845  25.695  16.185  0.1961 -0.1119  0.0954
35374POPC   D2A70473  14.594  25.531  16.533 -0.0545  0.0779 -0.1499
35374POPC   C3A70474  14.622  25.407  17.010 -0.0656 -0.0144 -0.3491
35374POPC   C4A70475  14.660  25.064  17.279 -0.0653 -0.1150 -0.1147
35374POPC   C1B70476  14.579  25.210  15.960 -0.1419 -0.2030  0.0061
35374POPC   C2B70477  14.335  24.967  16.181 -0.1687 -0.3527  0.0893
35374POPC   C3B70478  13.905  24.992  16.361  0.0286  0.0119 -0.1687
35374POPC   C4B70479  13.713  24.806  16.779 -0.3782  0.0841 -0.1594
35375POPC   NC370480   7.893  18.146  11.918 -0.0184 -0.1730 -0.3632
35375POPC   PO470481   8.106  17.837  12.034  0.0617 -0.1139  0.2232
35375POPC   GL170482   8.382  18.170  11.793  0.2643 -0.1419  0.0308
35375POPC   GL270483   8.580  18.058  11.983  0.1685  0.1513  0.0713
35375POPC   C1A70484   8.152  18.592  11.897 -0.2316  0.0976 -0.0040
35375POPC   D2A70485   8.097  19.039  11.806 -0.2146 -0.1452  0.6070
35375POPC   C3A70486   8.291  19.448  12.014  0.2230  0.1047 -0.0956
35375POPC   C4A70487   8.624  19.692  12.285 -0.0175  0.1405  0.0626
35375POPC   C1B70488   8.998  18.323  12.007 -0.1554  0.2317 -0.2011
35375POPC   C2B70489   9.368  18.560  11.954  0.1229 -0.2751 -0.0876
35375POPC   C3B70490   9.555  18.900  11.685  0.1625 -0.1227  0.0976
35375POPC   C4B70491   9.746  19.264  11.580  0.3510 -0.0235  0.1068
35376POPC   NC370492  16.828  24.568  15.433 -0.1176  0.1252 -0.0734
35376POPC   PO470493  16.441  24.421  15.449  0.2991 -0.2535 -0.0464
35376POPC   GL170494  16.456  24.177  15.777 -0.4963 -0.1419 -0.1445
35376POPC   GL270495  16.747  24.210  15.846  0.0034 -0.2790  0.0196
35376POPC   C1A70496  16.154  24.005  16.061  0.0636  0.1026  0.3478
35376POPC   D2A70497  15.882  23.972  16.390 -0.0806 -0.3325 -0.0007
35376POPC   C3A70498  15.642  24.098  16.764 -0.2063 -0.5813  0.4335
35376POPC   C4A70499  15.575  24.201  17.198  0.3441  0.1456 -0.0994
35376POPC   C1B70500  16.585  24.282  16.270  0.3523 -0.0353 -0.2125
35376POPC   C2B70501  16.437  24.135  16.695 -0.2969 -0.1923 -0.1004
35376POPC   C3B70502  16.434  24.128  17.147  0.0452 -0.2236 -0.0592
35376POPC   C4B70503  16.257  24.266  17.553 -0.0508  0.0751  0.2366
35377POPC   NC370504   3.031  22.266  15.761 -0.0902  0.0592  0.2013
35377POPC   PO470505   3.027  22.590  15.523 -0.2984  0.0276  0.3069
35377POPC   GL170506   3.380  22.647  15.828 -0.6880  0.0967 -0.5806
35377POPC   GL270507   3.561  22.938  15.859  0.0566 -0.2784  0.0188
35377POPC   C1A70508   3.454  22.708  16.312 -0.2580 -0.0011  0.0616
35377POPC   D2A70509   3.803  22.803  16.651  0.1284  0.0602 -0.0214
35377POPC   C3A70510   3.602  22.841  17.080  0.1081  0.2290 -0.0038
35377POPC   C4A70511   3.616  22.855  17.586 -0.1218  0.0204 -0.2735
35377POPC   C1B70512   3.873  23.092  16.222  0.0641  0.0259 -0.0801
35377POPC   C2B70513   4.144  23.212  16.603 -0.0963 -0.0253  0.0210
35377POPC   C3B70514   4.433  23.282  16.930  0.0567  0.0370 -0.0763
35377POPC   C4B70515   4.760  23.594  17.098 -0.1993 -0.2865  0.2603
35378POPC   NC370516  11.168  30.024   9.235  0.4498  0.2104  0.1588
35378POPC   PO470517  10.834  29.947   9.411  0.3805 -0.0139 -0.0363
35378POPC   GL170518  10.806  29.770   8.996 -0.0521  0.2627  0.3997
35378POPC   GL270519  10.901  29.913   8.803 -0.5256 -0.0021  0.1738
35378POPC   C1A70520  10.341  29.739   8.820  0.1561  0.3989  0.1392
35378POPC   D2A70521  10.031  29.771   8.492  0.0942 -0.1542 -0.2939
35378POPC   C3A70522  10.257  29.847   8.094 -0.1130  0.0539  0.0892
35378POPC   C4A70523  10.199  29.946   7.643 -0.0245  0.0589  0.0868
35378POPC   C1B70524  10.672  29.770   8.408 -0.0268  0.1180  0.4133
35378POPC   C2B70525  10.921  29.692   8.016  0.1577 -0.1971 -0.0217
35378POPC   C3B70526  11.202  29.397   7.799  0.1136  0.0440  0.1350
35378POPC   C4B70527  11.625  29.356   7.526  0.2701  0.0626  0.0963
35379POPC   NC370528  14.285  26.034  14.908 -0.0712 -0.2859  0.0481
35379POPC   PO470529  13.905  25.914  14.915 -0.1103 -0.3170  0.0732
35379POPC   GL170530  13.523  25.896  15.078 -0.0727  0.2104  0.0616
35379POPC   GL270531  13.310  25.835  14.819 -0.0231  0.1081 -0.0450
35379POPC   C1A70532  13.217  25.596  15.239 -0.0145 -0.3112  0.0156
35379POPC   D2A70533  12.841  25.335  15.243  0.0111  0.3819  0.0089
35379POPC   C3A70534  12.619  25.183  15.628 -0.0899 -0.1691 -0.0887
35379POPC   C4A70535  12.260  25.071  15.849 -0.0814 -0.1040  0.0211
35379POPC   C1B70536  12.989  25.440  14.773  0.0895  0.1556 -0.0407
35379POPC   C2B70537  12.730  25.035  14.858 -0.0081 -0.0099 -0.2855
35379POPC   C3B70538  12.622  24.781  15.265  0.0483  0.0456  0.0509
35379POPC   C4B70539  12.568  24.665  15.725 -0.4039 -0.1143 -0.2695
35380POPC   NC370540  15.657  25.336  15.144 -0.0246 -0.4795  0.4294
35380POPC   PO470541  15.496  25.634  15.275  0.0041 -0.2542 -0.1405
35380POPC   GL170542  15.339  25.565  15.619  0.0304 -0.3509 -0.0471
35380POPC   GL270543  15.226  25.288  15.596 -0.2399 -0.1734  0.0398
35380POPC   C1A70544  15.402  25.753  16.058 -0.1498  0.0110  0.1555
35380POPC   D2A70545  15.244  25.718  16.508 -0.0577  0.1247 -0.0297
35380POPC   C3A70546  15.055  25.416  16.772 -0.0619 -0.0136  0.0814
35380POPC   C4A70547  15.121  25.379  17.214  0.0287 -0.0298 -0.0625
35380POPC   C1B70548  15.108  25.157  16.004 -0.1255  0.0246  0.1929
35380POPC   C2B70549  14.862  25.148  16.393  0.0796 -0.0145 -0.2275
35380POPC   C3B70550  14.465  25.066  16.669 -0.1346 -0.4239 -0.0493
35380POPC   C4B70551  14.132  24.993  16.882 -0.1116  0.3187  0.2185
35381POPC   NC370552  13.102  26.664  15.054  0.1891 -0.0461 -0.4200
35381POPC   PO470553  13.125  26.312  14.804  0.3754  0.2850 -0.2043
35381POPC   GL170554  12.885  25.990  14.818 -0.2710  0.1300 -0.1984
35381POPC   GL270555  12.903  25.866  15.037  0.0366 -0.1501  0.0163
35381POPC   C1A70556  12.772  25.706  14.423  0.1013 -0.2209  0.0373
35381POPC   D2A70557  12.721  25.433  14.055  0.0683 -0.1079  0.0180
35381POPC   C3A70558  12.379  25.229  14.337  0.3052 -0.0001  0.3033
35381POPC   C4A70559  12.125  25.233  14.719 -0.0989  0.0687  0.0075
35381POPC   C1B70560  12.581  25.724  15.333  0.0000 -0.1198 -0.0341
35381POPC   C2B70561  12.225  25.552  15.610  0.1956 -0.1661 -0.1153
35381POPC   C3B70562  12.159  25.469  16.095  0.0857 -0.1463 -0.0081
35381POPC   C4B70563  11.859  25.583  16.462 -0.4585  0.3481  0.1563
35382POPC   NC370564  13.175  31.787  15.842 -0.0394  0.2225  0.2528
35382POPC   PO470565  13.388  32.074  15.952 -0.1035  0.2730  0.0375
35382POPC   GL170566  13.243  32.160  16.415 -0.0263  0.4545  0.2716
35382POPC   GL270567  13.539  32.227  16.445  0.0153  0.0342 -0.0313
35382POPC   C1A70568  13.104  32.158  16.918 -0.0171  0.0771 -0.2497
35382POPC   D2A70569  12.966  31.971  17.237  0.0359 -0.3036  0.1368
35382POPC   C3A70570  12.955  32.184  17.668  0.2453 -0.0427  0.0331
35382POPC   C4A70571  12.953  32.034  18.064 -0.0468  0.0632  0.0786
35382POPC   C1B70572  13.555  32.366  16.903  0.3538  0.2353 -0.1619
35382POPC   C2B70573  13.296  32.370  17.329  0.3001  0.0198  0.0044
35382POPC   C3B70574  13.050  32.708  17.583 -0.1990  0.1115 -0.0074
35382POPC   C4B70575  12.921  33.169  17.760  0.1104 -0.0287 -0.1313
35383POPC   NC370576   2.729  19.441  15.622  0.0969  0.2407 -0.0580
35383POPC   PO470577   2.455  19.687  15.491 -0.1056  0.1534 -0.1804
35383POPC   GL170578   2.556  19.831  15.811  0.1504  0.0713 -0.0606
35383POPC   GL270579   2.672  20.088  15.809 -0.0095  0.2773  0.0079
35383POPC   C1A70580   2.396  20.067  16.214  0.1981 -0.1339 -0.3254
35383POPC   D2A70581   2.538  20.462  16.518 -0.1528  0.1299  0.1593
35383POPC   C3A70582   2.593  20.478  16.966 -0.0810 -0.0791 -0.2427
35383POPC   C4A70583   2.615  20.806  17.297  0.2595  0.2487  0.1071
35383POPC   C1B70584   2.925  20.328  16.075 -0.1406  0.0474  0.1219
35383POPC   C2B70585   2.996  20.445  16.473  0.0386  0.1903  0.1711
35383POPC   C3B70586   3.022  20.296  16.936  0.0570  0.2452 -0.3662
35383POPC   C4B70587   2.813  20.301  17.424 -0.0354  0.2587  0.1768
35384POPC   NC370588   7.237  30.507  16.478 -0.0308 -0.2667  0.2559
35384POPC   PO470589   7.021  30.196  16.443  0.0535  0.1872 -0.1436
35384POPC   GL170590   6.998  30.156  16.804  0.0127 -0.0969  0.0045
35384POPC   GL270591   7.138  29.940  16.880 -0.1489 -0.0838  0.0367
35384POPC   C1A70592   6.730  30.300  17.161  0.0270 -0.1356 -0.1536
35384POPC   D2A70593   6.776  30.303  17.664  0.0805  0.4863 -0.1705
35384POPC   C3A70594   6.701  30.706  17.922  0.3071  0.1074 -0.0870
35384POPC   C4A70595   6.409  31.088  17.950  0.0759  0.2181  0.0075
35384POPC   C1B70596   7.168  30.166  17.279  0.3923 -0.3056  0.0082
35384POPC   C2B70597   7.215  29.942  17.686 -0.1828  0.1149 -0.2195
35384POPC   C3B70598   7.455  29.714  17.994 -0.1589  0.0121  0.2610
35384POPC   C4B70599   7.504  29.536  18.405 -0.0342 -0.0741  0.1083
35385POPC   NC370600  12.898  28.277  16.257 -0.1216  0.1987 -0.2910
35385POPC   PO470601  12.642  28.236  15.977  0.2992  0.2913 -0.0881
35385POPC   GL170602  12.332  28.208  16.276 -0.0765 -0.4844 -0.2566
35385POPC   GL270603  12.413  27.952  16.426 -0.1553  0.0504 -0.0630
35385POPC   C1A70604  12.184  28.197  16.773  0.2638 -0.1778  0.1220
35385POPC   D2A70605  11.934  28.176  17.193 -0.1950 -0.2918  0.1958
35385POPC   C3A70606  11.788  27.827  16.943  0.0049 -0.0228 -0.0773
35385POPC   C4A70607  11.915  27.752  16.512 -0.3867  0.0578  0.2499
35385POPC   C1B70608  12.367  27.657  16.817  0.0454  0.2841 -0.0703
35385POPC   C2B70609  12.580  27.325  17.049  0.1136  0.0874 -0.4897
35385POPC   C3B70610  12.469  27.152  17.449  0.2082  0.2435  0.0905
35385POPC   C4B70611  12.597  27.281  17.894  0.1427 -0.1794 -0.0441
35386POPC   NC370612   4.744  26.692  16.483  0.1153 -0.1321  0.2850
35386POPC   PO470613   4.922  26.906  16.170  0.0258 -0.2527 -0.2863
35386POPC   GL170614   5.092  26.948  16.605  0.0839 -0.1458 -0.0023
35386POPC   GL270615   5.293  27.014  16.833  0.1537 -0.0073 -0.0918
35386POPC   C1A70616   4.953  26.653  16.955  0.0454 -0.0515 -0.2438
35386POPC   D2A70617   4.782  26.374  17.258  0.0526  0.0600 -0.0151
35386POPC   C3A70618   5.119  26.378  17.622 -0.0944 -0.0474 -0.0755
35386POPC   C4A70619   5.510  26.374  17.854  0.1244 -0.0575  0.1191
35386POPC   C1B70620   5.289  26.931  17.299  0.1021  0.0849  0.4516
35386POPC   C2B70621   5.278  26.874  17.757  0.1183  0.2008 -0.0769
35386POPC   C3B70622   5.015  26.822  18.139 -0.3727 -0.3213 -0.1843
35386POPC   C4B70623   4.673  26.842  18.435  0.0981 -0.1327  0.4487
35387POPC   NC370624  11.008  30.357  16.562 -0.3352  0.0620 -0.2646
35387POPC   PO470625  11.171  29.984  16.422  0.0463 -0.2772  0.0652
35387POPC   GL170626  11.058  29.946  16.762 -0.1401 -0.0950 -0.2029
35387POPC   GL270627  10.841  29.816  16.781 -0.0948  0.3113 -0.2023
35387POPC   C1A70628  10.856  30.284  17.049 -0.0453  0.1361 -0.4071
35387POPC   D2A70629  10.976  30.592  17.370 -0.0456 -0.0258 -0.0618
35387POPC   C3A70630  10.766  30.994  17.401  0.1177 -0.3687  0.1880
35387POPC   C4A70631  10.596  31.337  17.673 -0.0892 -0.1583  0.1729
35387POPC   C1B70632  10.706  29.677  17.229 -0.0721 -0.1200 -0.1186
35387POPC   C2B70633  10.570  29.362  17.548 -0.2251 -0.1683  0.1152
35387POPC   C3B70634  10.314  29.505  17.916  0.0459  0.0625  0.1914
35387POPC   C4B70635   9.971  29.347  18.159  0.0326 -0.1537 -0.1996
35388POPC   NC370636   0.836  18.407  15.581  0.0985 -0.1663  0.0171
35388POPC   PO470637   0.923  18.750  15.669  0.2834  0.0097  0.1588
35388POPC   GL170638   0.807  18.851  16.002  0.1384 -0.0581 -0.2757
35388POPC   GL270639   0.575  18.892  16.169 -0.0023  0.0649 -0.0311
35388POPC   C1A70640   0.943  18.810  16.430 -0.0770 -0.2593  0.0581
35388POPC   D2A70641   1.026  18.868  16.889  0.0831 -0.4112  0.0806
35388POPC   C3A70642   1.287  18.673  17.226  0.2082 -0.0209 -0.3078
35388POPC   C4A70643   1.619  18.647  17.560  0.1370  0.1249 -0.1164
35388POPC   C1B70644   0.479  19.014  16.636 -0.1630  0.0720  0.2172
35388POPC   C2B70645   0.516  19.153  17.114  0.0848  0.0995  0.0809
35388POPC   C3B70646   0.535  19.034  17.545 -0.0650  0.0000 -0.2559
35388POPC   C4B70647   0.256  18.897  17.865 -0.1914  0.1814  0.1566
35389POPC   NC370648   9.826  26.748  13.494 -0.0517 -0.0596 -0.0198
35389POPC   PO470649  10.110  26.872  13.261 -0.1593 -0.2291  0.1539
35389POPC   GL170650  10.098  26.554  13.136  0.2059 -0.3928  0.1420
35389POPC   GL270651  10.020  26.521  12.861 -0.0147 -0.0144  0.0457
35389POPC   C1A70652  10.009  26.071  13.151 -0.1049  0.1465 -0.0042
35389POPC   D2A70653  10.164  25.718  13.357  0.1390  0.0023  0.0045
35389POPC   C3A70654  10.135  25.376  13.636  0.2691 -0.2008  0.0217
35389POPC   C4A70655   9.829  25.031  13.709  0.3045  0.4414 -0.0952
35389POPC   C1B70656  10.219  26.293  12.549  0.0091  0.1801  0.1324
35389POPC   C2B70657  10.459  25.926  12.328  0.1450  0.0734  0.0813
35389POPC   C3B70658  10.637  25.541  12.382  0.1056 -0.1859 -0.1308
35389POPC   C4B70659  10.710  25.089  12.399  0.0916  0.1921 -0.0297
35390POPC   NC370660   4.648  18.050  15.221  0.0810 -0.1628  0.1826
35390POPC   PO470661   4.433  17.720  15.323  0.0750 -0.1812  0.0096
35390POPC   GL170662   4.479  17.798  15.729 -0.1069  0.0856 -0.3128
35390POPC   GL270663   4.160  17.685  15.827 -0.2136  0.2848 -0.0229
35390POPC   C1A70664   4.565  17.983  16.102  0.3310 -0.3449  0.0275
35390POPC   D2A70665   4.518  18.112  16.491  0.1843  0.0146 -0.2289
35390POPC   C3A70666   4.763  18.306  16.778 -0.0807  0.0219 -0.0269
35390POPC   C4A70667   4.830  18.417  17.197 -0.0390  0.1684  0.1879
35390POPC   C1B70668   4.261  17.595  16.245  0.0004 -0.4252  0.0823
35390POPC   C2B70669   4.284  17.752  16.689  0.0920  0.0605  0.3544
35390POPC   C3B70670   4.495  17.955  17.038 -0.1897  0.2135 -0.1213
35390POPC   C4B70671   4.388  18.123  17.454  0.3378 -0.0020 -0.2094
35391POPC   NC370672   8.250  26.759  13.933  0.0082 -0.1952  0.3463
35391POPC   PO470673   7.970  26.505  13.809 -0.0548 -0.0950 -0.1662
35391POPC   GL170674   8.240  26.334  13.980  0.0020  0.3001 -0.2428
35391POPC   GL270675   8.146  26.097  14.067 -0.0988 -0.1441  0.1592
35391POPC   C1A70676   8.433  25.991  13.706  0.2171 -0.1169 -0.1706
35391POPC   D2A70677   8.367  25.563  13.515  0.1261  0.0983  0.0064
35391POPC   C3A70678   8.532  25.521  13.052 -0.2903 -0.1134 -0.0053
35391POPC   C4A70679   8.463  25.131  12.836  0.1503  0.2985 -0.2545
35391POPC   C1B70680   8.239  25.637  13.991 -0.0539 -0.2335 -0.2438
35391POPC   C2B70681   8.238  25.227  14.094  0.0846  0.0871 -0.3329
35391POPC   C3B70682   8.418  24.894  14.209 -0.0929 -0.3681 -0.3402
35391POPC   C4B70683   8.258  24.518  14.469  0.1225  0.3767 -0.1201
35392POPC   NC370684   6.694  26.342  11.656 -0.0791 -0.2019 -0.3103
35392POPC   PO470685   6.935  26.591  11.466  0.0292 -0.1059 -0.1541
35392POPC   GL170686   7.178  26.266  11.513  0.0412  0.3445 -0.1497
35392POPC   GL270687   7.026  26.099  11.428  0.2193  0.1392 -0.1472
35392POPC   C1A70688   7.524  26.153  11.208 -0.0150 -0.1487 -0.3780
35392POPC   D2A70689   7.843  26.451  11.200  0.4030  0.2233 -0.0187
35392POPC   C3A70690   8.058  26.041  11.173 -0.0172 -0.3101  0.0697
35392POPC   C4A70691   8.172  25.586  11.030 -0.0099  0.1120 -0.0785
35392POPC   C1B70692   7.196  25.789  11.148 -0.0276  0.1575  0.1744
35392POPC   C2B70693   7.578  25.818  10.870  0.2076  0.0575  0.2088
35392POPC   C3B70694   7.809  25.495  10.708 -0.0390 -0.0644 -0.0367
35392POPC   C4B70695   8.023  25.090  10.608 -0.0081 -0.0504 -0.2270
35393POPC   NC370696   1.955  27.529  16.289 -0.0606  0.0235  0.0498
35393POPC   PO470697   1.729  27.824  16.490  0.0295  0.0478  0.1653
35393POPC   GL170698   1.634  27.593  16.870 -0.3491  0.0748  0.2352
35393POPC   GL270699   1.898  27.725  17.005  0.1609 -0.0026 -0.0637
35393POPC   C1A70700   1.534  27.442  17.279  0.1221 -0.1215 -0.0069
35393POPC   D2A70701   1.308  27.404  17.749 -0.3236 -0.3443  0.1249
35393POPC   C3A70702   1.297  27.518  18.195 -0.0100  0.3152  0.3348
35393POPC   C4A70703   1.433  27.134  18.450  0.0333 -0.0699 -0.0330
35393POPC   C1B70704   1.993  27.337  17.235 -0.1509 -0.0314  0.1086
35393POPC   C2B70705   2.194  27.181  17.577  0.0431 -0.0382  0.0084
35393POPC   C3B70706   2.235  26.945  17.965  0.0353 -0.1513 -0.0274
35393POPC   C4B70707   2.037  26.603  18.249  0.0433  0.0876 -0.0067
35394POPC   NC370708  13.890  16.270  15.475  0.1943 -0.1814 -0.0069
35394POPC   PO470709  14.001  16.587  15.286  0.2539  0.4746  0.2614
35394POPC   GL170710  13.993  16.891  15.512 -0.0090 -0.2582  0.1829
35394POPC   GL270711  13.866  16.846  15.723 -0.1028 -0.0812  0.1378
35394POPC   C1A70712  13.591  17.195  15.525 -0.3388 -0.1312  0.0785
35394POPC   D2A70713  13.439  17.621  15.500  0.0865 -0.1719 -0.1127
35394POPC   C3A70714  13.135  17.951  15.731 -0.0855  0.2155 -0.3593
35394POPC   C4A70715  13.168  18.012  16.198 -0.0434 -0.2249  0.1317
35394POPC   C1B70716  13.454  16.874  15.893 -0.2587 -0.1087 -0.4167
35394POPC   C2B70717  13.102  16.986  16.185  0.5466 -0.0346 -0.0625
35394POPC   C3B70718  12.944  17.182  16.591  0.3655  0.0395 -0.1227
35394POPC   C4B70719  12.719  17.329  17.010 -0.2437 -0.2242 -0.1933
35395POPC   NC370720  15.743  27.490  16.509  0.0457 -0.0589 -0.0425
35395POPC   PO470721  15.392  27.444  16.463 -0.0237 -0.0279 -0.0063
35395POPC   GL170722  15.223  27.211  16.647  0.0052  0.1448  0.1940
35395POPC   GL270723  14.975  27.382  16.795  0.1706 -0.0228  0.4082
35395POPC   C1A70724  15.289  26.830  16.867 -0.2946 -0.0458 -0.0553
35395POPC   D2A70725  15.202  26.455  17.149  0.2141  0.0282  0.0111
35395POPC   C3A70726  14.986  26.191  17.435  0.0880  0.0371 -0.0378
35395POPC   C4A70727  14.820  26.030  17.764 -0.2080 -0.2676 -0.1407
35395POPC   C1B70728  14.971  27.056  17.132  0.2482  0.0475  0.0305
35395POPC   C2B70729  14.850  26.723  17.391  0.2047  0.1225  0.0631
35395POPC   C3B70730  14.582  26.475  17.719 -0.0716 -0.1301 -0.2531
35395POPC   C4B70731  14.210  26.477  17.978  0.0005 -0.2412 -0.0759
35396POPC   NC370732  10.475  27.442  15.792 -0.1348 -0.1486 -0.1876
35396POPC   PO470733  10.295  27.135  15.718 -0.0678 -0.2312 -0.0747
35396POPC   GL170734  10.225  26.992  16.001 -0.2861 -0.0561 -0.1075
35396POPC   GL270735  10.196  27.151  16.254 -0.3411  0.2814  0.2079
35396POPC   C1A70736  10.407  26.543  16.020 -0.2305  0.0544 -0.1065
35396POPC   D2A70737  10.778  26.217  16.061 -0.1050 -0.1564  0.0127
35396POPC   C3A70738  10.951  26.030  16.432 -0.0432 -0.0299 -0.0945
35396POPC   C4A70739  11.082  26.110  16.875 -0.0471  0.1268 -0.1062
35396POPC   C1B70740   9.900  26.817  16.330 -0.0473  0.0660 -0.0408
35396POPC   C2B70741   9.682  26.603  16.666 -0.3473 -0.2697  0.2855
35396POPC   C3B70742   9.568  26.268  16.953  0.2260  0.2030 -0.0945
35396POPC   C4B70743   9.418  26.186  17.440 -0.2730  0.4273 -0.0226
35397POPC   NC370744   0.420  24.426  16.000 -0.4555  0.0380 -0.1263
35397POPC   PO470745   0.344  24.062  15.888 -0.2144  0.2206 -0.2763
35397POPC   GL170746   0.326  24.001  16.292 -0.1749  0.0823 -0.0065
35397POPC   GL270747   0.116  24.174  16.334 -0.2306  0.0039 -0.1225
35397POPC   C1A70748   0.482  24.159  16.741 -0.1981 -0.0385 -0.1000
35397POPC   D2A70749   0.438  24.355  17.161 -0.1471 -0.0071  0.0742
35397POPC   C3A70750   0.634  24.773  17.330  0.1888 -0.2566 -0.1292
35397POPC   C4A70751   1.109  24.975  17.284  0.2563 -0.0587 -0.0271
35397POPC   C1B70752  -0.111  23.815  16.534 -0.1064 -0.0499 -0.3207
35397POPC   C2B70753  -0.157  23.473  16.935  0.1854  0.1065  0.1655
35397POPC   C3B70754  -0.331  23.469  17.400 -0.1565 -0.0009  0.1902
35397POPC   C4B70755  -0.544  23.233  17.734  0.0036  0.0320 -0.0103
35398POPC   NC370756  17.067  26.017  16.024  0.1021  0.2285 -0.0638
35398POPC   PO470757  17.022  26.269  16.319 -0.0360  0.0416  0.0327
35398POPC   GL170758  17.130  26.054  16.706 -0.0055 -0.2560  0.0383
35398POPC   GL270759  17.140  26.223  16.858 -0.2028  0.0411 -0.0825
35398POPC   C1A70760  17.066  25.824  17.132  0.2675 -0.1136  0.1242
35398POPC   D2A70761  16.999  25.629  17.591 -0.2229  0.2712  0.3044
35398POPC   C3A70762  16.981  25.847  18.006  0.0315 -0.1592 -0.0090
35398POPC   C4A70763  16.632  26.090  18.125 -0.1071 -0.1991  0.2632
35398POPC   C1B70764  16.849  26.536  17.059 -0.1036  0.1657 -0.1551
35398POPC   C2B70765  16.638  26.567  17.423  0.0585 -0.0483 -0.1952
35398POPC   C3B70766  16.429  26.459  17.835 -0.0100 -0.3911 -0.0129
35398POPC   C4B70767  16.062  26.638  18.048 -0.2410 -0.1266  0.1119
35399POPC   NC370768   5.503  21.081  12.737 -0.0280  0.2145 -0.2573
35399POPC   PO470769   5.614  20.714  12.634  0.0115  0.3314 -0.4670
35399POPC   GL170770   5.900  20.877  12.556  0.1318 -0.0799  0.0488
35399POPC   GL270771   5.923  21.200  12.500  0.1627  0.1594 -0.0598
35399POPC   C1A70772   6.367  20.828  12.665  0.3180 -0.1786 -0.2211
35399POPC   D2A70773   6.783  20.681  12.647 -0.1884 -0.0102  0.1583
35399POPC   C3A70774   6.753  20.262  12.710  0.1619  0.1264 -0.2177
35399POPC   C4A70775   7.033  19.831  12.782  0.0267  0.2583 -0.2251
35399POPC   C1B70776   6.328  21.073  12.245  0.2687  0.1779 -0.1620
35399POPC   C2B70777   6.718  21.257  12.157 -0.0098  0.0909 -0.0898
35399POPC   C3B70778   7.139  21.393  12.011  0.1779  0.1380 -0.4185
35399POPC   C4B70779   7.498  21.621  11.744  0.1800  0.1958 -0.1760
35400POPC   NC370780   2.788  28.773  16.716  0.1589 -0.0324 -0.0634
35400POPC   PO470781   2.439  28.648  16.598 -0.1417 -0.2482 -0.1047
35400POPC   GL170782   2.429  28.505  17.000 -0.0473  0.1242  0.1669
35400POPC   GL270783   2.193  28.646  17.057  0.0875 -0.1303  0.1065
35400POPC   C1A70784   2.133  28.170  17.220  0.1142 -0.0456  0.1342
35400POPC   D2A70785   1.774  27.898  17.472  0.1050 -0.2732 -0.1638
35400POPC   C3A70786   1.791  27.487  17.656 -0.0787  0.1504  0.1531
35400POPC   C4A70787   1.966  27.310  18.046  0.0490  0.0766 -0.0064
35400POPC   C1B70788   2.315  28.671  17.482 -0.1184  0.1206 -0.3895
35400POPC   C2B70789   2.347  28.562  17.951 -0.3742  0.2293 -0.1847
35400POPC   C3B70790   2.407  28.493  18.406 -0.3699 -0.0686 -0.0904
35400POPC   C4B70791   2.478  28.472  18.837 -0.2075  0.0678 -0.1655
35401POPC   NC370792   1.312  25.108  15.931  0.1223  0.2068 -0.0631
35401POPC   PO470793   1.415  24.786  16.160  0.2357  0.0904  0.0302
35401POPC   GL170794   1.511  24.969  16.490  0.0074 -0.0172  0.2553
35401POPC   GL270795   1.850  24.915  16.443  0.0763 -0.0888 -0.1783
35401POPC   C1A70796   1.149  25.153  16.814 -0.0807 -0.2370  0.0460
35401POPC   D2A70797   1.028  25.472  17.120 -0.2844  0.0102  0.0422
35401POPC   C3A70798   1.244  25.558  17.509 -0.3739  0.1099 -0.0410
35401POPC   C4A70799   1.020  25.622  17.897 -0.1171  0.3870  0.0902
35401POPC   C1B70800   1.741  25.073  16.865  0.1509  0.0168 -0.3104
35401POPC   C2B70801   1.541  25.204  17.272 -0.2657  0.0948 -0.3282
35401POPC   C3B70802   1.726  25.424  17.654  0.3174  0.1630 -0.2953
35401POPC   C4B70803   2.042  25.554  17.960  0.0680  0.2524  0.0437
35402POPC   NC370804   4.721  23.337  11.717  0.1248  0.0263 -0.1448
35402POPC   PO470805   4.761  23.121  12.050 -0.2084  0.2668 -0.0012
35402POPC   GL170806   5.093  23.153  12.150 -0.1120 -0.0423  0.0353
35402POPC   GL270807   5.311  23.166  11.993  0.3140  0.0015 -0.2054
35402POPC   C1A70808   5.343  23.126  12.523 -0.1524  0.0180 -0.0198
35402POPC   D2A70809   5.689  22.935  12.808  0.1141 -0.1279  0.1705
35402POPC   C3A70810   6.161  23.017  12.763  0.3472 -0.1549  0.1253
35402POPC   C4A70811   6.600  23.158  12.680 -0.0896 -0.0061  0.0374
35402POPC   C1B70812   5.713  23.271  11.829 -0.0501 -0.0958 -0.1691
35402POPC   C2B70813   6.204  23.263  11.851 -0.0747  0.3414  0.0022
35402POPC   C3B70814   6.525  23.344  12.133  0.2594 -0.1448 -0.1562
35402POPC   C4B70815   6.943  23.159  12.264  0.4515  0.0044 -0.1390
35403POPC   NC370816   9.716  28.524  10.586  0.0248  0.0986  0.2114
35403POPC   PO470817   9.648  28.166  10.542 -0.2686 -0.2754  0.3223
35403POPC   GL170818   9.692  27.931  10.253 -0.2793 -0.0847 -0.0234
35403POPC   GL270819   9.517  27.956   9.993 -0.1669 -0.0437 -0.2690
35403POPC   C1A70820   9.918  27.692   9.975  0.1211  0.2997  0.3949
35403POPC   D2A70821   9.803  27.404   9.598 -0.1335  0.0015  0.1246
35403POPC   C3A70822  10.031  27.037   9.493 -0.0422 -0.0557 -0.2852
35403POPC   C4A70823   9.745  26.731   9.245 -0.1705  0.1040  0.2628
35403POPC   C1B70824   9.659  27.904   9.582  0.2122  0.1046  0.0923
35403POPC   C2B70825   9.340  27.860   9.209  0.0689  0.2516 -0.2757
35403POPC   C3B70826   9.300  27.780   8.771 -0.4001  0.0074  0.0739
35403POPC   C4B70827   9.597  27.538   8.529  0.1422 -0.1476  0.0919
35404POPC   NC370828  11.432  27.354  15.359 -0.0652 -0.0075 -0.0507
35404POPC   PO470829  11.409  27.680  15.566 -0.0327  0.1913  0.0759
35404POPC   GL170830  11.257  27.445  15.850 -0.1005 -0.4250  0.0563
35404POPC   GL270831  10.989  27.426  16.025 -0.0675  0.3952 -0.5691
35404POPC   C1A70832  11.498  27.383  16.251  0.1101  0.2510  0.1532
35404POPC   D2A70833  11.837  27.230  16.541 -0.3770  0.1321 -0.1439
35404POPC   C3A70834  11.955  27.353  16.996 -0.0279  0.1014 -0.2346
35404POPC   C4A70835  12.228  27.555  17.312 -0.2022 -0.2067  0.4376
35404POPC   C1B70836  11.182  26.972  16.189  0.1884 -0.0264 -0.0283
35404POPC   C2B70837  11.365  26.953  16.609  0.2070  0.1929 -0.0708
35404POPC   C3B70838  11.723  26.913  16.941  0.1728  0.0185  0.2715
35404POPC   C4B70839  11.963  26.533  16.847 -0.0312  0.0777 -0.1975
35405POPC   NC370840  11.569  26.252  14.524 -0.3379 -0.3642 -0.0485
35405POPC   PO470841  11.805  26.197  14.256 -0.2041 -0.1413  0.1962
35405POPC   GL170842  11.900  25.832  14.339 -0.2222  0.3297  0.0203
35405POPC   GL270843  11.602  25.759  14.396 -0.0666  0.2409  0.0348
35405POPC   C1A70844  11.809  25.330  14.339 -0.1061  0.0123 -0.2072
35405POPC   D2A70845  12.016  24.896  14.370 -0.3298 -0.0011  0.0442
35405POPC   C3A70846  11.869  24.487  14.481  0.0215  0.1385 -0.0103
35405POPC   C4A70847  11.465  24.246  14.634  0.3846 -0.2074  0.2465
35405POPC   C1B70848  11.323  25.398  14.239 -0.1092 -0.4544  0.2577
35405POPC   C2B70849  11.153  25.008  14.130  0.1984  0.1782 -0.2643
35405POPC   C3B70850  10.934  24.677  13.975 -0.0576  0.0552  0.2440
35405POPC   C4B70851  10.553  24.504  13.767  0.1165 -0.0109 -0.1615
35406POPC   NC370852   4.364  21.961  14.348 -0.2418  0.2674  0.0265
35406POPC   PO470853   4.535  21.642  14.339  0.1878 -0.1036 -0.3851
35406POPC   GL170854   4.816  21.523  14.589  0.4685  0.3362 -0.1418
35406POPC   GL270855   4.935  21.256  14.645 -0.0323 -0.0278  0.0905
35406POPC   C1A70856   5.188  21.665  14.834  0.0465 -0.0995 -0.0596
35406POPC   D2A70857   5.653  21.604  14.872 -0.3412  0.3311 -0.1420
35406POPC   C3A70858   5.959  21.724  15.206 -0.0447 -0.3505 -0.2571
35406POPC   C4A70859   6.095  22.046  15.542 -0.4039  0.0592 -0.2947
35406POPC   C1B70860   5.212  21.147  14.974 -0.1132 -0.1215  0.0626
35406POPC   C2B70861   5.619  20.979  15.239  0.1097  0.0950  0.3001
35406POPC   C3B70862   5.955  20.796  15.447 -0.3180  0.0088 -0.2657
35406POPC   C4B70863   6.150  20.468  15.511 -0.2837  0.1133 -0.1284
35407POPC   NC370864   6.681  31.327  15.812  0.0646 -0.0379 -0.2398
35407POPC   PO470865   6.519  31.251  16.149  0.1857  0.0589 -0.0075
35407POPC   GL170866   6.335  31.563  16.309 -0.2359 -0.0851  0.1041
35407POPC   GL270867   6.182  31.823  16.294 -0.4776 -0.3072 -0.1558
35407POPC   C1A70868   6.528  31.607  16.736  0.0909  0.0237 -0.2314
35407POPC   D2A70869   6.689  31.632  17.176  0.2040 -0.3992 -0.0300
35407POPC   C3A70870   6.518  31.895  17.482  0.0757 -0.0174 -0.0633
35407POPC   C4A70871   6.223  32.083  17.829 -0.2636  0.0315  0.0940
35407POPC   C1B70872   6.181  32.089  16.714  0.2836 -0.0324 -0.2733
35407POPC   C2B70873   6.396  32.277  17.063 -0.1343 -0.0728 -0.1676
35407POPC   C3B70874   6.450  32.353  17.464  0.0805 -0.1832 -0.0970
35407POPC   C4B70875   6.752  32.453  17.770  0.3005 -0.0398  0.1520
35408POPC   NC370876   5.754  25.852  15.061  0.1955 -0.2371 -0.4119
35408POPC   PO470877   5.520  25.592  15.223  0.2606  0.1111 -0.1208
35408POPC   GL170878   5.701  25.399  15.466 -0.0230 -0.3992  0.0389
35408POPC   GL270879   5.994  25.626  15.540 -0.0747  0.0046 -0.0068
35408POPC   C1A70880   5.644  25.125  15.784  0.1076  0.0889 -0.2075
35408POPC   D2A70881   5.665  25.032  16.228 -0.3513  0.0719  0.2973
35408POPC   C3A70882   5.845  24.604  16.324  0.0026  0.1957  0.2386
35408POPC   C4A70883   5.801  24.182  16.452 -0.0386 -0.2599  0.0519
35408POPC   C1B70884   6.070  25.368  15.937 -0.3030  0.1037 -0.2859
35408POPC   C2B70885   6.118  25.145  16.304  0.1414 -0.1840  0.2885
35408POPC   C3B70886   6.084  24.873  16.695 -0.1969  0.1359  0.1603
35408POPC   C4B70887   6.029  25.045  17.130  0.0343 -0.0235  0.0707
35409POPC   NC370888   2.756  27.367  16.282  0.1114 -0.5546 -0.3130
35409POPC   PO470889   2.463  27.604  16.141 -0.0852  0.0162 -0.0834
35409POPC   GL170890   2.377  27.566  16.560  0.3224  0.0143  0.0778
35409POPC   GL270891   2.335  27.779  16.706  0.1915  0.2379 -0.0353
35409POPC   C1A70892   2.456  27.331  16.899  0.0606  0.3442  0.3717
35409POPC   D2A70893   2.793  27.384  17.247  0.2710  0.0676 -0.0314
35409POPC   C3A70894   2.775  27.668  17.614 -0.0738  0.0712  0.1683
35409POPC   C4A70895   3.012  28.090  17.689  0.1648  0.2467  0.0284
35409POPC   C1B70896   2.467  27.836  17.096 -0.0563  0.0705  0.0231
35409POPC   C2B70897   2.219  27.786  17.503 -0.0759  0.1247 -0.1111
35409POPC   C3B70898   2.010  27.809  17.922 -0.0881  0.0083  0.1048
35409POPC   C4B70899   1.559  27.891  17.959 -0.1698 -0.0735  0.2729
35410POPC   NC370900   8.577  30.476  16.479 -0.1754 -0.1489 -0.1077
35410POPC   PO470901   8.883  30.547  16.242  0.0101  0.0322  0.2184
35410POPC   GL170902   9.000  30.697  16.557  0.0428  0.2796 -0.1100
35410POPC   GL270903   9.306  30.690  16.571  0.0889 -0.0783 -0.0016
35410POPC   C1A70904   8.906  30.975  16.940  0.1479 -0.0493 -0.0803
35410POPC   D2A70905   8.761  31.342  17.162  0.0231 -0.1037 -0.0317
35410POPC   C3A70906   8.988  31.698  17.276 -0.2347  0.2392  0.0437
35410POPC   C4A70907   9.049  32.108  17.413  0.0143 -0.0376  0.0412
35410POPC   C1B70908   9.400  31.120  16.759  0.3354  0.2315 -0.0425
35410POPC   C2B70909   9.266  31.259  17.144  0.1529  0.1243  0.0657
35410POPC   C3B70910   9.159  31.355  17.602 -0.1852 -0.3158 -0.0119
35410POPC   C4B70911   8.826  31.228  17.924 -0.2071  0.1641 -0.2226
35411POPC   NC370912  12.486  16.456  15.685 -0.0792  0.0939  0.1111
35411POPC   PO470913  12.228  16.598  15.377  0.1528  0.1726 -0.0277
35411POPC   GL170914  12.402  16.911  15.483  0.0735 -0.1318 -0.1209
35411POPC   GL270915  12.616  16.876  15.364 -0.2502 -0.1695 -0.0399
35411POPC   C1A70916  12.172  17.207  15.694  0.3066  0.1131  0.0009
35411POPC   D2A70917  12.058  17.382  16.111  0.2190  0.3386 -0.1836
35411POPC   C3A70918  11.748  17.406  16.476 -0.0739  0.3834 -0.2618
35411POPC   C4A70919  11.784  17.100  16.849  0.1955  0.0749  0.1993
35411POPC   C1B70920  12.644  17.134  15.802 -0.1143 -0.2150  0.1949
35411POPC   C2B70921  12.731  17.481  16.068  0.0273  0.0971 -0.1803
35411POPC   C3B70922  12.681  17.904  16.301 -0.0149  0.2190  0.1862
35411POPC   C4B70923  12.896  18.261  16.499  0.2198  0.0709 -0.1460
35412POPC   NC370924   6.354  27.896  16.133  0.0032  0.1084 -0.1373
35412POPC   PO470925   6.531  27.871  16.473  0.1582 -0.1919 -0.1292
35412POPC   GL170926   6.673  27.697  16.838 -0.0400 -0.2505 -0.4179
35412POPC   GL270927   6.602  27.438  16.860 -0.2832 -0.3160  0.2324
35412POPC   C1A70928   6.929  27.572  17.199 -0.1193 -0.0003 -0.0291
35412POPC   D2A70929   7.212  27.238  17.352 -0.3221  0.2438 -0.0908
35412POPC   C3A70930   7.551  27.241  17.654 -0.0715  0.0809 -0.1684
35412POPC   C4A70931   7.904  27.003  17.767  0.2532  0.4435 -0.2721
35412POPC   C1B70932   6.715  27.085  17.180 -0.2611  0.0477  0.0234
35412POPC   C2B70933   6.614  26.681  17.350  0.0616 -0.1554 -0.0501
35412POPC   C3B70934   6.509  26.306  17.634  0.2166 -0.0277 -0.0700
35412POPC   C4B70935   6.263  25.899  17.734 -0.0755 -0.0942 -0.4716
35413POPC   NC370936  15.541  29.572  16.527 -0.1681  0.1424  0.1276
35413POPC   PO470937  15.389  29.908  16.615 -0.0367 -0.1743  0.1347
35413POPC   GL170938  15.319  29.985  17.067 -0.3018 -0.0804  0.1388
35413POPC   GL270939  15.194  30.179  17.024 -0.0172  0.3275 -0.0293
35413POPC   C1A70940  15.700  30.013  17.276 -0.2674 -0.0992  0.1326
35413POPC   D2A70941  15.943  29.684  17.571 -0.0569 -0.0407 -0.0638
35413POPC   C3A70942  16.169  29.855  17.936  0.1584 -0.1371 -0.1794
35413POPC   C4A70943  16.335  30.079  18.295 -0.1520 -0.2298  0.2257
35413POPC   C1B70944  15.112  30.110  17.501 -0.2378 -0.1332  0.1977
35413POPC   C2B70945  14.969  30.118  17.931 -0.0676 -0.1378 -0.1390
35413POPC   C3B70946  14.833  30.363  18.315  0.1236  0.2402  0.1010
35413POPC   C4B70947  14.853  30.732  18.582  0.2160  0.1806  0.0192
35414POPC   NC370948   7.543  26.135  13.194  0.1206 -0.0536  0.1582
35414POPC   PO470949   7.153  26.026  13.293 -0.4452 -0.1797 -0.0726
35414POPC   GL170950   6.967  25.725  13.208 -0.1340  0.5260 -0.0926
35414POPC   GL270951   6.819  25.616  13.471  0.0761 -0.1382  0.0556
35414POPC   C1A70952   7.189  25.410  12.947  0.0546 -0.1971  0.1518
35414POPC   D2A70953   7.577  25.151  12.785 -0.2095 -0.1756  0.0440
35414POPC   C3A70954   7.689  24.820  12.518 -0.1874 -0.2606 -0.0168
35414POPC   C4A70955   7.979  24.579  12.308 -0.1359  0.1011  0.2512
35414POPC   C1B70956   7.017  25.240  13.373  0.0227  0.0888 -0.1110
35414POPC   C2B70957   7.272  24.940  13.098 -0.0292  0.0673 -0.0459
35414POPC   C3B70958   7.616  24.617  13.139  0.2608  0.0380  0.1098
35414POPC   C4B70959   8.014  24.577  13.378  0.1261  0.1834 -0.0025
35415POPC   NC370960   5.775  29.550  17.038  0.1139 -0.1993  0.0330
35415POPC   PO470961   5.477  29.430  16.811 -0.3462  0.0763 -0.1055
35415POPC   GL170962   5.344  29.441  17.126  0.3890 -0.0479 -0.0323
35415POPC   GL270963   5.079  29.424  17.194  0.0437  0.1087  0.2269
35415POPC   C1A70964   5.419  29.499  17.586 -0.0436  0.0588  0.3036
35415POPC   D2A70965   5.324  29.753  17.979 -0.1373  0.4821  0.0619
35415POPC   C3A70966   5.191  30.008  18.359  0.3286  0.2543  0.0199
35415POPC   C4A70967   5.306  30.264  18.700  0.0951 -0.1569 -0.0420
35415POPC   C1B70968   4.970  29.204  17.567  0.0796 -0.0310 -0.0520
35415POPC   C2B70969   5.023  29.331  17.970  0.2960  0.1070 -0.2564
35415POPC   C3B70970   5.179  29.467  18.364  0.0039 -0.1275  0.0605
35415POPC   C4B70971   5.323  29.549  18.832 -0.0232 -0.1234  0.1485
35416POPC   NC370972   2.895  23.441  16.134  0.1810 -0.1384 -0.3311
35416POPC   PO470973   2.539  23.412  16.029 -0.0936 -0.1355 -0.0392
35416POPC   GL170974   2.488  23.163  16.276 -0.1963  0.5132 -0.2461
35416POPC   GL270975   2.348  22.928  16.211  0.3159  0.3375  0.0908
35416POPC   C1A70976   2.662  22.976  16.629  0.0648  0.1293 -0.2823
35416POPC   D2A70977   2.505  22.621  16.846  0.3029 -0.0207  0.1287
35416POPC   C3A70978   2.774  22.309  16.960  0.1055 -0.3449 -0.1594
35416POPC   C4A70979   2.822  21.870  17.097 -0.1096  0.3875  0.3848
35416POPC   C1B70980   2.171  22.947  16.614  0.1257 -0.2091 -0.0427
35416POPC   C2B70981   2.087  23.025  17.057 -0.0189  0.0941 -0.2347
35416POPC   C3B70982   2.182  22.891  17.467  0.2478  0.0691 -0.3222
35416POPC   C4B70983   1.974  22.697  17.836 -0.0740 -0.1478 -0.3881
35417POPC   NC370984  12.510  27.268  14.888 -0.3081 -0.1604 -0.3429
35417POPC   PO470985  12.849  27.055  14.874  0.2303 -0.0122  0.0506
35417POPC   GL170986  12.706  26.868  15.238  0.2393  0.1163  0.0822
35417POPC   GL270987  12.548  27.038  15.389 -0.0750 -0.1162 -0.1120
35417POPC   C1A70988  12.334  26.609  15.461  0.1774 -0.1713  0.3056
35417POPC   D2A70989  11.895  26.593  15.398  0.2007 -0.0354 -0.0212
35417POPC   C3A70990  11.714  26.354  15.749  0.0620  0.0606  0.0090
35417POPC   C4A70991  11.288  26.110  15.783  0.0866 -0.2440  0.2289
35417POPC   C1B70992  12.518  26.851  15.850 -0.1114  0.0724 -0.1323
35417POPC   C2B70993  12.640  26.521  16.129 -0.4147  0.0662  0.2727
35417POPC   C3B70994  12.766  26.229  16.451 -0.0972 -0.1104 -0.0918
35417POPC   C4B70995  12.744  25.995  16.824 -0.0945  0.0891 -0.0990
35418POPC   NC370996   1.118  21.624  15.890 -0.4718 -0.0933  0.0644
35418POPC   PO470997   0.782  21.589  15.962  0.1675  0.0801 -0.1588
35418POPC   GL170998   0.606  21.459  16.298 -0.0685 -0.0917 -0.1537
35418POPC   GL270999   0.491  21.614  16.516  0.0367 -0.2383 -0.3736
35418POPC   C1A71000   0.848  21.284  16.688  0.2335  0.0448  0.1901
35418POPC   D2A71001   0.727  20.896  16.962 -0.0751  0.2328  0.1520
35418POPC   C3A71002   0.606  20.928  17.377  0.0149 -0.0461 -0.2105
35418POPC   C4A71003   0.575  20.847  17.857 -0.1709 -0.0138  0.1495
35418POPC   C1B71004   0.385  21.686  16.959 -0.0200 -0.1272 -0.1275
35418POPC   C2B71005   0.409  21.511  17.407  0.2401  0.1500 -0.0855
35418POPC   C3B71006   0.571  21.396  17.813  0.1269 -0.1098  0.0843
35418POPC   C4B71007   0.461  21.571  18.186  0.2927  0.0857 -0.1220
35419POPC   NC371008  16.208  26.134  15.589  0.1922  0.2152 -0.1533
35419POPC   PO471009  16.076  26.118  15.979  0.2914  0.0635  0.0930
35419POPC   GL171010  16.151  25.983  16.239 -0.0228 -0.0269  0.1661
35419POPC   GL271011  16.229  26.202  16.454 -0.1206  0.1861 -0.3518
35419POPC   C1A71012  15.815  25.906  16.521 -0.2110 -0.0986 -0.1291
35419POPC   D2A71013  15.469  26.081  16.801  0.0387  0.0253 -0.2410
35419POPC   C3A71014  15.339  25.832  17.201 -0.1998 -0.2984  0.2415
35419POPC   C4A71015  15.201  25.731  17.647 -0.2053 -0.0575  0.0910
35419POPC   C1B71016  16.065  26.129  16.922 -0.1600  0.0144 -0.1718
35419POPC   C2B71017  15.738  26.109  17.254  0.1489 -0.0698  0.2634
35419POPC   C3B71018  15.456  26.243  17.614 -0.2579  0.0856  0.0187
35419POPC   C4B71019  15.227  26.181  18.054  0.1464 -0.1896 -0.0972
35420POPC   NC371020  14.256  17.798  15.360 -0.0039  0.1739 -0.2651
35420POPC   PO471021  13.904  17.741  15.268 -0.0510 -0.0335  0.0576
35420POPC   GL171022  13.915  17.648  15.661 -0.1267 -0.4240 -0.5324
35420POPC   GL271023  14.054  17.400  15.639 -0.0890  0.1503  0.1268
35420POPC   C1A71024  13.610  17.885  15.946  0.2459  0.2633  0.1220
35420POPC   D2A71025  13.658  18.300  16.224  0.2027 -0.0762  0.0386
35420POPC   C3A71026  13.639  18.379  16.693  0.1427  0.1604  0.1380
35420POPC   C4A71027  13.622  18.459  17.135  0.5884 -0.2962  0.2230
35420POPC   C1B71028  13.809  17.342  16.030  0.2036 -0.0343 -0.0204
35420POPC   C2B71029  13.774  17.605  16.427  0.0945 -0.1192  0.0913
35420POPC   C3B71030  13.475  17.901  16.618 -0.0423 -0.1123  0.1673
35420POPC   C4B71031  13.179  18.178  16.942  0.2532  0.1519  0.0323
35421POPC   NC371032   4.307  26.187  15.764  0.0685  0.1515 -0.2868
35421POPC   PO471033   4.490  26.265  16.120  0.2695  0.0871  0.3451
35421POPC   GL171034   4.660  26.020  16.405 -0.2231 -0.2200 -0.0664
35421POPC   GL271035   4.940  26.171  16.431 -0.0125 -0.0236 -0.0747
35421POPC   C1A71036   4.552  25.813  16.767  0.2101  0.3604  0.6335
35421POPC   D2A71037   4.628  25.609  17.215  0.1440  0.0126 -0.0618
35421POPC   C3A71038   5.011  25.509  17.432 -0.1137  0.2035 -0.2680
35421POPC   C4A71039   5.403  25.296  17.637 -0.2698  0.0051  0.2673
35421POPC   C1B71040   4.955  26.069  16.893  0.0577 -0.1960  0.3669
35421POPC   C2B71041   5.098  26.015  17.333  0.0379  0.0330  0.0418
35421POPC   C3B71042   5.326  25.905  17.700 -0.0863  0.0415  0.0602
35421POPC   C4B71043   5.467  25.960  18.114  0.1767 -0.1227  0.1595
35422POPC   NC371044  11.441  29.561  16.619 -0.0626  0.2858 -0.0006
35422POPC   PO471045  11.083  29.479  16.483  0.3088  0.5394  0.2433
35422POPC   GL171046  10.968  29.425  16.883  0.0877  0.0156 -0.0446
35422POPC   GL271047  11.155  29.619  17.077  0.3483 -0.0814  0.1183
35422POPC   C1A71048  10.990  29.244  17.320  0.1857 -0.0707 -0.1182
35422POPC   D2A71049  11.044  29.112  17.727 -0.3622 -0.1469 -0.0735
35422POPC   C3A71050  11.374  28.805  17.802 -0.4390  0.0710  0.0181
35422POPC   C4A71051  11.584  28.465  18.025  0.2065 -0.2122 -0.0211
35422POPC   C1B71052  11.215  29.628  17.553 -0.0693  0.0673  0.1616
35422POPC   C2B71053  10.975  29.604  17.878  0.0293  0.0955  0.2889
35422POPC   C3B71054  10.821  29.336  18.131  0.2035  0.2987  0.0428
35422POPC   C4B71055  10.439  29.172  18.380 -0.3599  0.0888  0.2170
35423POPC   NC371056  12.812  18.826  12.977 -0.0779  0.0428 -0.1216
35423POPC   PO471057  13.074  18.758  13.283  0.0840  0.0161  0.2425
35423POPC   GL171058  13.113  19.125  13.488  0.2702 -0.1365  0.1511
35423POPC   GL271059  12.769  19.101  13.444  0.0596 -0.2062  0.3070
35423POPC   C1A71060  13.071  19.504  13.758  0.0323 -0.0716  0.2403
35423POPC   D2A71061  12.912  19.414  14.157  0.2922  0.1319  0.2199
35423POPC   C3A71062  12.573  19.547  14.446 -0.2149  0.0529  0.2392
35423POPC   C4A71063  12.216  19.797  14.718  0.0046  0.0535  0.2607
35423POPC   C1B71064  12.536  19.179  13.770 -0.0251 -0.0561  0.1759
35423POPC   C2B71065  12.511  19.660  13.873  0.0409 -0.2805 -0.2698
35423POPC   C3B71066  12.552  20.125  13.748  0.4633  0.1135 -0.1971
35423POPC   C4B71067  12.291  20.510  13.874  0.0951 -0.1599  0.0836
35424POPC   NC371068  13.582  30.755  16.753 -0.2085 -0.2447 -0.0545
35424POPC   PO471069  13.733  30.907  16.457 -0.0193 -0.0885 -0.1912
35424POPC   GL171070  13.840  31.157  16.819 -0.0935 -0.0024  0.2761
35424POPC   GL271071  14.052  31.029  16.975 -0.0037 -0.1961  0.2677
35424POPC   C1A71072  13.728  31.181  17.275 -0.1332  0.3105 -0.1501
35424POPC   D2A71073  13.667  31.522  17.622  0.1670  0.0215  0.1964
35424POPC   C3A71074  13.721  31.314  18.017  0.0220  0.3804 -0.0984
35424POPC   C4A71075  13.386  31.341  18.395  0.1289  0.0587  0.0731
35424POPC   C1B71076  14.197  30.975  17.400  0.0639 -0.1467 -0.2151
35424POPC   C2B71077  14.606  30.969  17.664 -0.0103 -0.3598 -0.1056
35424POPC   C3B71078  14.716  30.943  18.111  0.1516 -0.3009 -0.2234
35424POPC   C4B71079  15.129  30.732  18.119 -0.1591 -0.1857 -0.0179
35425POPC   NC371080   4.931  25.779  15.527  0.2940  0.1241  0.2662
35425POPC   PO471081   4.974  25.464  15.276 -0.0323  0.1058 -0.2773
35425POPC   GL171082   5.113  25.098  15.460 -0.2260 -0.2032 -0.0386
35425POPC   GL271083   5.408  25.085  15.326 -0.1576  0.1261  0.1037
35425POPC   C1A71084   4.995  24.711  15.663 -0.3321  0.2668 -0.0808
35425POPC   D2A71085   4.856  24.416  15.988  0.2619  0.1054 -0.1235
35425POPC   C3A71086   5.050  24.014  16.170 -0.2132  0.1701 -0.0106
35425POPC   C4A71087   5.167  23.628  16.404 -0.1076 -0.1581  0.0989
35425POPC   C1B71088   5.571  24.676  15.539  0.0512 -0.0722 -0.0919
35425POPC   C2B71089   5.781  24.357  15.832 -0.0218 -0.1738 -0.6905
35425POPC   C3B71090   6.105  24.119  16.096 -0.1516  0.0352  0.3178
35425POPC   C4B71091   6.417  23.799  16.147 -0.1102  0.2600  0.0490
35426POPC   NC371092  13.551  25.980  12.656 -0.2897  0.0296 -0.1331
35426POPC   PO471093  13.219  25.761  12.559  0.1556 -0.1796 -0.0648
35426POPC   GL171094  12.978  25.530  12.595 -0.2725  0.2231 -0.0720
35426POPC   GL271095  12.748  25.638  12.431 -0.1430  0.2179 -0.0372
35426POPC   C1A71096  12.681  25.162  12.690 -0.0991  0.1106 -0.2069
35426POPC   D2A71097  12.686  24.813  13.031  0.0750 -0.1179 -0.0666
35426POPC   C3A71098  12.352  24.474  13.147 -0.0499 -0.2664  0.0496
35426POPC   C4A71099  12.029  24.368  13.507  0.5105  0.1304  0.0761
35426POPC   C1B71100  12.701  25.314  12.179 -0.3569  0.2382 -0.0127
35426POPC   C2B71101  12.389  25.101  11.943  0.1975  0.1895  0.1490
35426POPC   C3B71102  12.062  24.791  11.921 -0.0570 -0.0637  0.4019
35426POPC   C4B71103  11.685  24.549  11.865  0.0568 -0.1134  0.1476
35427POPC   NC371104   1.603  23.634  16.150 -0.1007 -0.4110 -0.0712
35427POPC   PO471105   1.660  23.990  16.025  0.0206 -0.3030 -0.0065
35427POPC   GL171106   1.678  24.158  16.426 -0.0962 -0.0475  0.0266
35427POPC   GL271107   1.632  24.412  16.393 -0.3342  0.1210  0.1602
35427POPC   C1A71108   1.867  24.036  16.852 -0.0963  0.0734  0.3076
35427POPC   D2A71109   1.942  24.015  17.272 -0.1039 -0.0475 -0.1880
35427POPC   C3A71110   2.147  23.898  17.661 -0.0374 -0.1812  0.0766
35427POPC   C4A71111   2.326  23.688  18.054 -0.0716 -0.2268  0.2486
35427POPC   C1B71112   1.430  24.277  16.802  0.1904 -0.1957  0.0266
35427POPC   C2B71113   1.558  24.319  17.230  0.1276 -0.0303 -0.1193
35427POPC   C3B71114   1.777  24.379  17.631 -0.3415 -0.0431 -0.1656
35427POPC   C4B71115   1.948  24.508  18.034  0.0838  0.2205 -0.2821
35428POPC   NC371116  14.567  23.762  13.243 -0.0681  0.2073  0.0620
35428POPC   PO471117  14.522  24.045  13.459 -0.2033 -0.0348  0.4245
35428POPC   GL171118  14.344  23.765  13.663 -0.1054 -0.0699 -0.1757
35428POPC   GL271119  14.218  23.888  13.851  0.3038 -0.2732 -0.1535
35428POPC   C1A71120  13.955  23.507  13.704  0.2617 -0.2122 -0.2256
35428POPC   D2A71121  13.647  23.201  13.620  0.3029  0.0663 -0.1370
35428POPC   C3A71122  13.461  23.135  14.031  0.1270 -0.1965  0.0087
35428POPC   C4A71123  13.487  22.780  14.338 -0.3134  0.2121 -0.0087
35428POPC   C1B71124  13.853  23.784  14.122 -0.3021  0.0794 -0.0289
35428POPC   C2B71125  13.508  23.566  14.286  0.0740  0.1562  0.2010
35428POPC   C3B71126  13.115  23.384  14.282  0.2702  0.0635  0.1509
35428POPC   C4B71127  12.745  23.180  14.465  0.1019 -0.0527 -0.3332
35429POPC   NC371128   7.499  26.004  12.199  0.2516  0.2354  0.1569
35429POPC   PO471129   7.581  26.349  11.997 -0.1882  0.0837 -0.0849
35429POPC   GL171130   7.845  26.175  11.653 -0.4511  0.0877 -0.0113
35429POPC   GL271131   8.004  26.414  11.690 -0.1834  0.2539  0.1219
35429POPC   C1A71132   8.091  25.778  11.676  0.2987  0.0274  0.1833
35429POPC   D2A71133   8.177  25.377  11.510 -0.0531  0.0401  0.2223
35429POPC   C3A71134   8.441  24.999  11.551  0.0983 -0.1111  0.0791
35429POPC   C4A71135   8.556  24.837  11.932 -0.0682 -0.0437 -0.1713
35429POPC   C1B71136   8.429  26.164  11.625 -0.0769 -0.0276  0.1695
35429POPC   C2B71137   8.598  25.723  11.508  0.1495  0.2701  0.1585
35429POPC   C3B71138   8.665  25.363  11.291 -0.2496  0.2392  0.1348
35429POPC   C4B71139   8.461  25.218  10.879 -0.2327  0.4290  0.1375
35430POPC   NC371140   9.939  27.446  15.701 -0.1507 -0.1212 -0.2436
35430POPC   PO471141  10.089  27.686  15.956  0.0191 -0.1605 -0.2186
35430POPC   GL171142   9.943  27.532  16.298 -0.1379  0.2588 -0.3027
35430POPC   GL271143   9.649  27.446  16.123 -0.0400  0.0044  0.0259
35430POPC   C1A71144   9.880  27.250  16.639  0.0503 -0.1197 -0.1069
35430POPC   D2A71145   9.942  26.889  16.942 -0.1869  0.2556  0.2927
35430POPC   C3A71146   9.856  26.668  17.357 -0.3272  0.0449  0.2891
35430POPC   C4A71147   9.813  26.298  17.677 -0.1590 -0.2450 -0.1306
35430POPC   C1B71148   9.503  27.012  16.027 -0.2460  0.1502  0.1621
35430POPC   C2B71149   9.470  26.617  16.187 -0.2732 -0.1867 -0.0111
35430POPC   C3B71150   9.512  26.205  16.379  0.1231  0.0844 -0.1607
35430POPC   C4B71151   9.331  25.852  16.692 -0.1252 -0.0146 -0.0876
35431POPC   NC371152   6.058  30.304  16.731  0.1508 -0.1118  0.1344
35431POPC   PO471153   5.744  30.281  16.503  0.0615 -0.0082 -0.1507
35431POPC   GL171154   5.592  30.437  16.784  0.0093  0.0614 -0.0668
35431POPC   GL271155   5.704  30.634  16.919 -0.1444  0.1677  0.1334
35431POPC   C1A71156   5.248  30.475  17.135 -0.2159  0.1455  0.1434
35431POPC   D2A71157   5.063  30.341  17.582 -0.2977  0.0904  0.1256
35431POPC   C3A71158   5.368  30.225  17.919 -0.1043 -0.0905  0.1731
35431POPC   C4A71159   5.632  30.288  18.276 -0.1156 -0.1694  0.2191
35431POPC   C1B71160   5.916  30.649  17.321  0.2504  0.0099  0.1435
35431POPC   C2B71161   6.204  30.701  17.637  0.2352  0.1446 -0.1753
35431POPC   C3B71162   6.246  30.616  18.096  0.0182  0.0853 -0.2602
35431POPC   C4B71163   6.543  30.459  18.432  0.0632 -0.0327  0.2039
35432POPC   NC371164   7.637  26.253  14.108  0.0670 -0.2074  0.2162
35432POPC   PO471165   7.699  26.254  14.472  0.2678 -0.0395  0.0860
35432POPC   GL171166   7.911  25.974  14.596 -0.2161 -0.0150 -0.1315
35432POPC   GL271167   7.821  25.783  14.362 -0.0019  0.4071  0.1162
35432POPC   C1A71168   8.271  25.639  14.504  0.1355 -0.1322  0.0142
35432POPC   D2A71169   8.618  25.500  14.248 -0.0390  0.2736  0.1177
35432POPC   C3A71170   8.712  25.355  13.836  0.0685  0.0888 -0.1862
35432POPC   C4A71171   8.682  25.190  13.437  0.0715 -0.0362 -0.0398
35432POPC   C1B71172   7.781  25.396  14.083  0.1676 -0.0001 -0.2003
35432POPC   C2B71173   7.759  25.014  14.310 -0.1762  0.1369  0.0481
35432POPC   C3B71174   7.753  24.573  14.495  0.1517  0.1726  0.0370
35432POPC   C4B71175   7.874  24.203  14.723  0.2567  0.2011  0.1214
35433POPC   NC371176   4.119  31.572  16.243  0.0859 -0.0906  0.2375
35433POPC   PO471177   4.461  31.558  16.316  0.1608  0.2003 -0.0475
35433POPC   GL171178   4.325  31.847  16.611 -0.0022 -0.3261  0.0067
35433POPC   GL271179   4.083  32.032  16.492  0.2587  0.1647  0.0710
35433POPC   C1A71180   4.311  32.271  16.826  0.2984 -0.0700 -0.0921
35433POPC   D2A71181   4.051  32.598  17.012  0.1099 -0.1105  0.0378
35433POPC   C3A71182   3.905  32.713  17.445  0.1424 -0.1160 -0.0452
35433POPC   C4A71183   3.885  32.616  17.870  0.0784 -0.3117  0.1551
35433POPC   C1B71184   4.061  31.868  16.941 -0.3244 -0.1932 -0.0718
35433POPC   C2B71185   4.083  31.889  17.402  0.0878  0.0153  0.1497
35433POPC   C3B71186   4.113  32.151  17.800 -0.4799  0.5337  0.2140
35433POPC   C4B71187   3.803  32.192  18.134  0.1210  0.2004  0.0442
35434POPC   NC371188  10.498  32.678  15.244  0.0885 -0.2485 -0.6500
35434POPC   PO471189  10.145  32.512  15.200 -0.0827 -0.0107 -0.1482
35434POPC   GL171190   9.856  32.506  15.463 -0.1161  0.1168  0.5696
35434POPC   GL271191   9.905  32.779  15.557 -0.0837 -0.0681 -0.1599
35434POPC   C1A71192   9.907  32.512  15.951  0.0447 -0.1664  0.0895
35434POPC   D2A71193  10.170  32.758  16.222 -0.0196  0.0243 -0.0310
35434POPC   C3A71194  10.228  32.560  16.664  0.1740  0.0369  0.2228
35434POPC   C4A71195  10.528  32.321  16.875  0.2967  0.2263 -0.0561
35434POPC   C1B71196   9.985  33.051  15.913  0.0743  0.1190  0.1131
35434POPC   C2B71197  10.380  33.211  16.157  0.1484  0.2030 -0.3147
35434POPC   C3B71198  10.844  33.197  16.236 -0.3031  0.0362  0.0816
35434POPC   C4B71199  11.288  33.266  16.296  0.3095 -0.0375 -0.1543
35435POPC   NC371200  10.909  31.074  16.087 -0.1950  0.2517 -0.0661
35435POPC   PO471201  10.716  30.719  16.083  0.2484  0.0547 -0.0427
35435POPC   GL171202  10.514  30.859  16.412  0.5557  0.2000 -0.1016
35435POPC   GL271203  10.629  31.110  16.516 -0.2371  0.2719  0.2899
35435POPC   C1A71204  10.277  30.903  16.825  0.3207 -0.2611  0.0740
35435POPC   D2A71205  10.212  31.045  17.287 -0.0437  0.0766 -0.1022
35435POPC   C3A71206  10.317  30.907  17.656 -0.2075 -0.1115  0.0560
35435POPC   C4A71207  10.721  30.932  17.964  0.0784 -0.0093  0.2395
35435POPC   C1B71208  10.615  31.276  16.910 -0.0261 -0.0377  0.0507
35435POPC   C2B71209  10.558  31.542  17.266  0.1076 -0.1390 -0.0429
35435POPC   C3B71210  10.350  31.942  17.417  0.2268  0.0739 -0.1128
35435POPC   C4B71211  10.253  32.338  17.601  0.0941 -0.0101  0.0745
35436POPC   NC371212   6.807  27.098  11.288 -0.0619 -0.1322 -0.1588
35436POPC   PO471213   6.755  26.803  11.004  0.0941 -0.2833 -0.1378
35436POPC   GL171214   7.031  26.613  10.947 -0.0330  0.3025  0.1582
35436POPC   GL271215   7.267  26.549  11.119 -0.0464 -0.4947  0.0522
35436POPC   C1A71216   7.255  26.635  10.519 -0.2710  0.1312  0.0212
35436POPC   D2A71217   7.239  26.835  10.059  0.0287  0.0689 -0.5276
35436POPC   C3A71218   7.573  26.586   9.791 -0.0482 -0.0735 -0.1140
35436POPC   C4A71219   7.605  26.441   9.352 -0.1189  0.2290  0.1649
35436POPC   C1B71220   7.210  26.225  10.795 -0.0197 -0.0771 -0.2663
35436POPC   C2B71221   7.366  26.007  10.445 -0.1415  0.3175  0.0831
35436POPC   C3B71222   7.600  25.629  10.294 -0.1546  0.1154  0.3577
35436POPC   C4B71223   7.738  25.253  10.072  0.0805 -0.3106 -0.1050
35437POPC   NC371224  10.564  28.305  16.039 -0.2188  0.1505  0.1634
35437POPC   PO471225  10.468  28.014  15.779 -0.0883  0.3153 -0.2470
35437POPC   GL171226  10.587  27.809  16.051 -0.0243 -0.2334  0.1628
35437POPC   GL271227  10.393  27.877  16.274  0.0226  0.1275  0.1097
35437POPC   C1A71228  10.584  27.440  16.354 -0.1457  0.1500 -0.0071
35437POPC   D2A71229  10.428  27.277  16.766 -0.2077  0.0923  0.0943
35437POPC   C3A71230  10.430  26.864  17.039 -0.0381 -0.0250  0.0687
35437POPC   C4A71231  10.272  26.475  16.915 -0.1413 -0.1076  0.0490
35437POPC   C1B71232  10.205  27.698  16.686  0.1367  0.3030 -0.1119
35437POPC   C2B71233  10.273  27.812  17.119 -0.2094 -0.1649 -0.2858
35437POPC   C3B71234  10.265  27.948  17.584 -0.3036 -0.2733  0.2856
35437POPC   C4B71235  10.148  27.783  18.029 -0.0257  0.2680 -0.2119
35438POPC   NC371236   4.191  22.545  14.549 -0.0979 -0.0791 -0.0270
35438POPC   PO471237   4.494  22.410  14.421 -0.0042 -0.0829  0.2195
35438POPC   GL171238   4.859  22.460  14.645 -0.1063 -0.0495  0.1801
35438POPC   GL271239   4.988  22.597  14.834  0.1547 -0.1332  0.1436
35438POPC   C1A71240   5.199  22.186  14.807  0.1714 -0.0191  0.1659
35438POPC   D2A71241   5.448  21.964  15.124  0.0808 -0.0410  0.1227
35438POPC   C3A71242   5.481  21.553  15.331 -0.1167  0.2328  0.0570
35438POPC   C4A71243   5.715  21.301  15.622 -0.3202 -0.2582 -0.2368
35438POPC   C1B71244   4.891  22.391  15.208  0.0172 -0.0269  0.1751
35438POPC   C2B71245   5.268  22.363  15.542 -0.2759  0.4195  0.2083
35438POPC   C3B71246   5.334  22.391  15.960 -0.3200 -0.1978  0.0546
35438POPC   C4B71247   5.158  22.310  16.396 -0.2938  0.2100 -0.1501
35439POPC   NC371248  14.358  26.762  14.943 -0.0611 -0.2882 -0.0755
35439POPC   PO471249  14.143  26.460  15.085  0.3818 -0.0332  0.0268
35439POPC   GL171250  13.884  26.449  15.513 -0.3495  0.1632  0.0092
35439POPC   GL271251  13.760  26.235  15.325 -0.1703 -0.0755  0.3756
35439POPC   C1A71252  13.947  26.091  15.830  0.1389 -0.2243 -0.2149
35439POPC   D2A71253  13.823  25.866  16.171  0.1987  0.2213 -0.1271
35439POPC   C3A71254  13.383  25.925  16.299  0.1101 -0.2878  0.2234
35439POPC   C4A71255  12.932  25.769  16.315  0.3040 -0.0828  0.1579
35439POPC   C1B71256  13.528  25.900  15.535  0.0850 -0.4742 -0.1771
35439POPC   C2B71257  13.484  25.620  15.904  0.0053  0.1805  0.0385
35439POPC   C3B71258  13.625  25.442  16.264 -0.0810 -0.0462 -0.1696
35439POPC   C4B71259  13.741  25.282  16.721  0.0814 -0.1447  0.3070
35440POPC   NC371260   7.486  29.118  16.449  0.0800 -0.0422  0.3079
35440POPC   PO471261   7.109  29.243  16.358 -0.1311  0.2603 -0.0644
35440POPC   GL171262   7.110  29.242  16.663  0.1128  0.1260  0.1816
35440POPC   GL271263   7.018  29.341  16.921  0.0069 -0.0566  0.0122
35440POPC   C1A71264   7.139  28.842  16.910  0.0234  0.0772  0.2154
35440POPC   D2A71265   7.149  28.388  17.015 -0.1879  0.0936  0.0172
35440POPC   C3A71266   7.297  28.433  17.470  0.3440  0.1907 -0.1703
35440POPC   C4A71267   7.484  28.319  17.872 -0.1007  0.1546 -0.3780
35440POPC   C1B71268   6.800  29.075  17.235  0.0208  0.0125 -0.1124
35440POPC   C2B71269   6.708  29.246  17.689  0.2124 -0.0142 -0.1248
35440POPC   C3B71270   6.500  29.221  18.165 -0.1584  0.0275 -0.2310
35440POPC   C4B71271   6.095  29.256  18.373  0.2760  0.2093 -0.4771
35441POPC   NC371272   0.055  22.148  15.628  0.2404 -0.1283 -0.1115
35441POPC   PO471273  -0.089  22.527  15.638 -0.0548  0.1241 -0.0414
35441POPC   GL171274  -0.284  22.541  15.981 -0.0674 -0.2281  0.0940
35441POPC   GL271275  -0.258  22.806  16.082 -0.1096  0.0496  0.0229
35441POPC   C1A71276  -0.733  22.494  16.144 -0.1952 -0.2463 -0.2161
35441POPC   D2A71277  -0.849  22.349  16.556 -0.2653 -0.1272 -0.1887
35441POPC   C3A71278  -1.020  22.085  16.899  0.1190 -0.0838 -0.2878
35441POPC   C4A71279  -1.271  21.764  17.065 -0.1424  0.2172 -0.0820
35441POPC   C1B71280  -0.301  22.581  16.515 -0.0206  0.1510 -0.1845
35441POPC   C2B71281  -0.407  22.594  16.947  0.2506  0.0898 -0.0255
35441POPC   C3B71282  -0.618  22.345  17.221  0.1479  0.1944 -0.1495
35441POPC   C4B71283  -0.652  22.098  17.612  0.0636 -0.0232 -0.0785
35442POPC   NC371284  15.092  17.239  15.433 -0.3569  0.1873  0.0844
35442POPC   PO471285  15.292  17.042  15.703  0.1228 -0.1613 -0.0347
35442POPC   GL171286  15.390  17.015  16.128 -0.2600 -0.1328  0.0396
35442POPC   GL271287  15.626  17.207  16.195  0.1899  0.2280 -0.0987
35442POPC   C1A71288  15.120  17.300  16.376 -0.0255  0.1368  0.0053
35442POPC   D2A71289  15.027  17.596  16.731  0.3973 -0.2169  0.3458
35442POPC   C3A71290  14.646  17.533  17.004 -0.2869  0.1590  0.1273
35442POPC   C4A71291  14.247  17.687  17.194 -0.1832  0.0089 -0.0916
35442POPC   C1B71292  15.519  17.453  16.600 -0.2082 -0.0523 -0.2451
35442POPC   C2B71293  15.311  17.424  17.040 -0.2920  0.0907 -0.0675
35442POPC   C3B71294  15.350  17.188  17.396 -0.4704 -0.2497  0.0119
35442POPC   C4B71295  15.241  16.890  17.832  0.1315 -0.2040  0.0547
35443POPC   NC371296  15.120  27.847  16.741  0.0863 -0.2108 -0.3203
35443POPC   PO471297  15.435  27.988  16.525 -0.5122 -0.1106  0.0066
35443POPC   GL171298  15.546  28.127  16.910 -0.0688  0.1455  0.1135
35443POPC   GL271299  15.691  28.352  16.982 -0.0400 -0.1153  0.1878
35443POPC   C1A71300  15.370  28.079  17.314  0.0214  0.1477  0.1312
35443POPC   D2A71301  15.472  28.124  17.768  0.2489 -0.0021  0.0442
35443POPC   C3A71302  15.272  27.970  18.191  0.1504  0.0237  0.0243
35443POPC   C4A71303  15.531  27.776  18.603 -0.1504  0.0524 -0.0763
35443POPC   C1B71304  15.666  28.591  17.380 -0.3062  0.2119  0.0026
35443POPC   C2B71305  15.561  28.760  17.732 -0.0324  0.3126  0.0372
35443POPC   C3B71306  15.386  28.488  18.058 -0.2520 -0.0674  0.2286
35443POPC   C4B71307  14.986  28.396  18.215  0.2301 -0.1725 -0.0101
35444POPC   NC371308  13.392  25.464  12.062  0.0685  0.0178  0.0823
35444POPC   PO471309  13.606  25.467  12.390 -0.2827 -0.1221  0.3063
35444POPC   GL171310  13.258  25.232  12.525 -0.3961  0.0624  0.0166
35444POPC   GL271311  13.188  25.019  12.332  0.1518 -0.5056  0.2265
35444POPC   C1A71312  13.173  24.870  12.807 -0.2661 -0.3179  0.4430
35444POPC   D2A71313  13.148  24.442  13.083 -0.3756 -0.1049  0.4756
35444POPC   C3A71314  12.772  24.204  13.233  0.0741 -0.1403  0.3756
35444POPC   C4A71315  12.388  23.913  13.248 -0.1365 -0.0832  0.1354
35444POPC   C1B71316  12.833  24.816  12.452  0.0095 -0.0055 -0.0151
35444POPC   C2B71317  12.377  24.684  12.524  0.1443  0.1061  0.1282
35444POPC   C3B71318  12.143  24.322  12.308 -0.2396 -0.1644  0.2578
35444POPC   C4B71319  12.454  24.031  12.047  0.0896 -0.2443 -0.3613
35445POPC   NC371320  10.774  27.770  10.509 -0.1761 -0.0210  0.1575
35445POPC   PO471321  10.530  28.056  10.454  0.0306  0.0982 -0.4281
35445POPC   GL171322  10.266  27.803  10.500 -0.1394  0.0976  0.4807
35445POPC   GL271323  10.020  27.612  10.586 -0.1655 -0.1472  0.0786
35445POPC   C1A71324  10.314  27.391  10.247  0.1945 -0.0180  0.2428
35445POPC   D2A71325  10.108  27.148   9.989 -0.2067  0.2146  0.2738
35445POPC   C3A71326  10.023  26.724   9.858 -0.2447 -0.1617  0.1130
35445POPC   C4A71327   9.945  26.322   9.568  0.0010 -0.0242 -0.0577
35445POPC   C1B71328   9.707  27.320  10.403  0.1569  0.0700  0.2146
35445POPC   C2B71329   9.561  27.164  10.012 -0.1349  0.1627  0.0178
35445POPC   C3B71330   9.399  26.891   9.696 -0.0563  0.1402 -0.0127
35445POPC   C4B71331   9.338  26.550   9.363  0.2377  0.1174  0.2807
35446POPC   NC371332   0.809  18.419  16.068  0.2784  0.3884  0.2917
35446POPC   PO471333   0.614  18.109  15.941 -0.0243  0.0117 -0.1016
35446POPC   GL171334   0.529  17.979  16.329 -0.1252  0.2917 -0.2778
35446POPC   GL271335   0.297  18.015  16.395  0.2657 -0.1831 -0.0604
35446POPC   C1A71336   0.837  18.010  16.658 -0.2147  0.2767 -0.2890
35446POPC   D2A71337   1.078  17.857  17.030 -0.0962 -0.1629  0.0811
35446POPC   C3A71338   1.317  18.128  17.269  0.0493 -0.1229  0.3898
35446POPC   C4A71339   1.741  18.061  17.462 -0.1376  0.1207 -0.1152
35446POPC   C1B71340   0.355  18.073  16.874  0.0390 -0.3068 -0.1927
35446POPC   C2B71341   0.295  18.129  17.302  0.0987  0.0047 -0.2790
35446POPC   C3B71342   0.235  18.089  17.745 -0.2786  0.4653 -0.0186
35446POPC   C4B71343   0.312  17.729  18.064 -0.2421  0.0499  0.0640
35447POPC   NC371344  12.305  17.200  14.588 -0.1518  0.0075 -0.1061
35447POPC   PO471345  11.934  17.100  14.637 -0.2259 -0.0131  0.2911
35447POPC   GL171346  11.818  17.384  14.845  0.1679  0.0744 -0.0345
35447POPC   GL271347  11.988  17.586  14.768 -0.0674 -0.2443 -0.1796
35447POPC   C1A71348  11.552  17.702  15.047 -0.2631 -0.1807  0.5303
35447POPC   D2A71349  11.160  17.942  15.193 -0.0137  0.1496 -0.0042
35447POPC   C3A71350  11.144  18.330  15.442  0.2544 -0.1112 -0.2235
35447POPC   C4A71351  11.361  18.617  15.779 -0.6009  0.0270 -0.0743
35447POPC   C1B71352  11.985  18.006  14.940 -0.0889 -0.1522 -0.0676
35447POPC   C2B71353  11.979  18.418  15.109 -0.0618  0.1455 -0.0739
35447POPC   C3B71354  11.998  18.715  15.475  0.2539  0.4792 -0.0251
35447POPC   C4B71355  11.774  18.895  15.817  0.1190 -0.0918  0.0558
35448POPC   NC371356  16.740  29.446  16.516 -0.0394  0.4023 -0.0946
35448POPC   PO471357  17.061  29.621  16.706 -0.1096  0.0997 -0.0796
35448POPC   GL171358  16.796  29.776  16.932  0.0811  0.0380  0.2130
35448POPC   GL271359  16.641  29.537  17.098  0.0629 -0.0257 -0.2210
35448POPC   C1A71360  16.788  30.129  17.260 -0.0381  0.0549  0.2299
35448POPC   D2A71361  16.780  30.498  17.595  0.2359 -0.2285 -0.1687
35448POPC   C3A71362  17.152  30.679  17.777 -0.1587 -0.1786 -0.0625
35448POPC   C4A71363  17.401  30.554  18.155  0.2117  0.0176 -0.1780
35448POPC   C1B71364  16.600  29.719  17.488  0.0776  0.1456  0.2694
35448POPC   C2B71365  16.704  30.010  17.833  0.0790  0.3309 -0.2135
35448POPC   C3B71366  16.829  30.386  18.056  0.0796 -0.3698 -0.1432
35448POPC   C4B71367  16.973  30.719  18.369  0.0847  0.0131  0.2110
35449POPC   NC371368  14.990  23.836  15.003 -0.1735  0.2686  0.0547
35449POPC   PO471369  14.986  24.145  14.783 -0.1442  0.0603  0.0739
35449POPC   GL171370  14.628  24.177  14.834 -0.2592 -0.1676 -0.2625
35449POPC   GL271371  14.541  23.935  14.752 -0.3018 -0.1064 -0.0823
35449POPC   C1A71372  14.244  24.149  15.116 -0.1839 -0.2459 -0.2310
35449POPC   D2A71373  14.159  24.017  15.552  0.0337 -0.0960 -0.0496
35449POPC   C3A71374  14.211  23.538  15.618 -0.0311 -0.0808 -0.1533
35449POPC   C4A71375  14.347  23.102  15.741 -0.1046  0.2165 -0.0360
35449POPC   C1B71376  14.101  23.947  14.657 -0.3574 -0.1514 -0.1773
35449POPC   C2B71377  13.729  23.801  14.762 -0.1276 -0.0939  0.0517
35449POPC   C3B71378  13.290  23.655  14.875 -0.0674  0.2540 -0.0596
35449POPC   C4B71379  12.871  23.367  14.878 -0.4382 -0.0374  0.1707
35450POPC   NC371380  15.628  24.956  15.875 -0.1500 -0.1735 -0.0903
35450POPC   PO471381  15.557  24.797  15.508  0.3790 -0.1185 -0.0472
35450POPC   GL171382  15.192  24.713  15.696 -0.0972  0.1322  0.0436
35450POPC   GL271383  15.233  24.613  15.977  0.1832  0.0322  0.3289
35450POPC   C1A71384  14.873  24.359  15.737  0.3044  0.0806 -0.0012
35450POPC   D2A71385  14.584  23.983  15.793  0.1832  0.1963 -0.4151
35450POPC   C3A71386  14.593  23.775  15.353 -0.0353 -0.0779 -0.0784
35450POPC   C4A71387  14.218  23.660  15.100  0.0389 -0.4017  0.0197
35450POPC   C1B71388  14.982  24.293  16.235 -0.2770  0.1334 -0.0051
35450POPC   C2B71389  14.850  24.239  16.693 -0.4012 -0.2529  0.4788
35450POPC   C3B71390  14.926  24.175  17.113 -0.0374 -0.2495 -0.1437
35450POPC   C4B71391  15.168  24.278  17.468  0.0049  0.1091 -0.2620
35451POPC   NC371392  16.615  25.071  15.078  0.4436 -0.0043 -0.0872
35451POPC   PO471393  16.522  24.947  15.441 -0.2490 -0.0335  0.1277
35451POPC   GL171394  16.365  24.801  15.714 -0.0222 -0.0536  0.1589
35451POPC   GL271395  16.560  24.702  15.883 -0.1262  0.1304 -0.2310
35451POPC   C1A71396  16.172  24.916  16.085 -0.1125 -0.3377  0.0907
35451POPC   D2A71397  15.807  24.874  16.397 -0.0174  0.0353 -0.1950
35451POPC   C3A71398  15.692  24.664  16.741 -0.1122 -0.0602 -0.3490
35451POPC   C4A71399  15.272  24.557  16.947 -0.2061  0.0688 -0.0456
35451POPC   C1B71400  16.675  24.786  16.321 -0.0932 -0.1578 -0.0566
35451POPC   C2B71401  16.547  24.611  16.724 -0.1645 -0.3468 -0.0127
35451POPC   C3B71402  16.424  24.592  17.181 -0.3174 -0.4604  0.3004
35451POPC   C4B71403  16.395  24.757  17.578 -0.0187  0.2942  0.0574
35452POPC   NC371404  12.803  30.324  16.833  0.0118  0.2646 -0.0791
35452POPC   PO471405  12.859  29.958  16.776  0.1203 -0.1048  0.0724
35452POPC   GL171406  12.640  29.800  17.094  0.1816 -0.0024  0.1868
35452POPC   GL271407  12.543  30.070  17.167 -0.0336 -0.2235 -0.5487
35452POPC   C1A71408  12.797  29.659  17.504  0.0767 -0.0237  0.2791
35452POPC   D2A71409  13.053  29.332  17.723  0.0566 -0.0656 -0.0093
35452POPC   C3A71410  13.015  28.879  17.670 -0.0279  0.0809  0.0907
35452POPC   C4A71411  13.051  28.525  17.933  0.1436 -0.1541 -0.2087
35452POPC   C1B71412  12.098  30.035  17.269  0.2079 -0.1306  0.0424
35452POPC   C2B71413  11.728  29.803  17.507 -0.0162 -0.2497 -0.0031
35452POPC   C3B71414  11.526  29.817  17.895 -0.1936  0.0265 -0.2736
35452POPC   C4B71415  11.208  29.990  18.123 -0.4088 -0.1163 -0.0856
35453POPC   NC371416  14.392  18.838  14.099 -0.0931 -0.0356  0.0298
35453POPC   PO471417  14.199  18.866  14.441  0.0846 -0.0466 -0.1001
35453POPC   GL171418  13.965  18.938  14.772  0.1135  0.1743  0.0561
35453POPC   GL271419  13.891  18.733  14.966 -0.2223  0.0466 -0.1191
35453POPC   C1A71420  13.914  19.153  15.195  0.1333 -0.1537  0.2623
35453POPC   D2A71421  13.541  19.317  15.486  0.0691 -0.2154 -0.3785
35453POPC   C3A71422  13.142  19.498  15.749 -0.0546 -0.0064 -0.0095
35453POPC   C4A71423  12.882  19.867  15.860 -0.1102 -0.1605  0.1858
35453POPC   C1B71424  13.925  18.651  15.398  0.2491 -0.0647 -0.2376
35453POPC   C2B71425  13.763  18.663  15.874 -0.1537  0.0580 -0.1318
35453POPC   C3B71426  13.572  18.816  16.298 -0.2305  0.2739  0.1110
35453POPC   C4B71427  13.313  19.119  16.516  0.1327 -0.0628  0.2024
35454POPC   NC371428   8.419  31.847  15.649 -0.0442  0.1401 -0.1692
35454POPC   PO471429   8.116  31.710  15.430  0.0573  0.1033  0.2001
35454POPC   GL171430   7.990  31.619  15.749 -0.2228  0.0149  0.1789
35454POPC   GL271431   8.206  31.449  15.868 -0.0851 -0.2924 -0.1187
35454POPC   C1A71432   7.686  31.777  16.069  0.1138  0.5225  0.1862
35454POPC   D2A71433   7.263  31.644  16.288  0.2362  0.1989  0.0496
35454POPC   C3A71434   7.163  31.890  16.658  0.0237  0.2807  0.1672
35454POPC   C4A71435   7.219  32.270  16.954 -0.3831 -0.2546  0.2207
35454POPC   C1B71436   8.222  31.391  16.352 -0.0789 -0.0111 -0.1028
35454POPC   C2B71437   8.498  31.594  16.716 -0.0722  0.0638  0.3546
35454POPC   C3B71438   8.575  31.799  17.107  0.1349  0.2505  0.2416
35454POPC   C4B71439   8.490  32.065  17.406  0.2886  0.1459  0.0669
35455POPC   NC371440  16.129  29.569  17.049 -0.2940  0.2800 -0.0429
35455POPC   PO471441  15.951  29.302  16.782 -0.4170 -0.3523  0.0634
35455POPC   GL171442  16.091  29.099  17.108  0.3034  0.0411 -0.3656
35455POPC   GL271443  15.846  29.247  17.314 -0.2251 -0.2724  0.2157
35455POPC   C1A71444  16.328  29.266  17.456 -0.2722  0.0965  0.2100
35455POPC   D2A71445  16.803  29.277  17.479  0.1432 -0.1642  0.1435
35455POPC   C3A71446  16.941  29.221  17.928 -0.2150 -0.0948 -0.1169
35455POPC   C4A71447  16.893  29.223  18.368  0.0909  0.0730 -0.1468
35455POPC   C1B71448  15.818  29.253  17.751 -0.0791  0.0367 -0.2084
35455POPC   C2B71449  15.816  29.111  18.185 -0.2116 -0.1127 -0.1887
35455POPC   C3B71450  16.004  28.999  18.579  0.0198  0.4456  0.0826
35455POPC   C4B71451  16.302  28.766  18.833 -0.0042 -0.0863 -0.1174
35456POPC   NC371452   4.574  20.448  14.535  0.6498  0.0607 -0.1338
35456POPC   PO471453   4.709  20.826  14.509  0.1121  0.1939  0.1062
35456POPC   GL171454   5.033  20.803  14.740  0.2970  0.0233 -0.4760
35456POPC   GL271455   5.140  20.506  14.897 -0.1747 -0.2828  0.0423
35456POPC   C1A71456   5.476  20.869  14.693 -0.0568  0.1762  0.1300
35456POPC   D2A71457   5.919  20.633  14.561  0.0608 -0.2059 -0.1971
35456POPC   C3A71458   6.256  20.859  14.647 -0.0552  0.2541  0.2356
35456POPC   C4A71459   6.599  21.062  14.787  0.1274 -0.1413  0.1556
35456POPC   C1B71460   5.459  20.492  15.302  0.2918  0.0960 -0.1446
35456POPC   C2B71461   5.712  20.285  15.662 -0.0026 -0.1077 -0.1454
35456POPC   C3B71462   5.691  20.015  16.038  0.3397 -0.0530  0.1004
35456POPC   C4B71463   5.467  19.988  16.429  0.1875  0.0220  0.1341
35457POPC   NC371464  11.004  16.725  15.123  0.3903 -0.0852  0.4251
35457POPC   PO471465  11.265  16.483  14.948 -0.0027 -0.0173  0.1278
35457POPC   GL171466  11.370  16.466  15.261 -0.3427 -0.2223 -0.2168
35457POPC   GL271467  11.193  16.351  15.486  0.0085  0.2883  0.4243
35457POPC   C1A71468  11.412  16.816  15.550 -0.0107 -0.3593  0.1148
35457POPC   D2A71469  11.785  16.890  15.816  0.2189 -0.2095 -0.1829
35457POPC   C3A71470  11.792  16.963  16.243  0.0488  0.1044  0.2212
35457POPC   C4A71471  12.143  17.064  16.509  0.1304 -0.0586 -0.1500
35457POPC   C1B71472  10.981  16.604  15.813  0.0063  0.0168  0.2837
35457POPC   C2B71473  10.885  16.862  16.171  0.0781 -0.3754 -0.0106
35457POPC   C3B71474  10.815  17.172  16.412  0.1760 -0.0397 -0.2625
35457POPC   C4B71475  10.838  17.594  16.532 -0.0995  0.0384 -0.2114
35458POPC   NC371476  13.892  17.615  14.755 -0.1696 -0.1048 -0.2794
35458POPC   PO471477  13.529  17.689  14.615  0.1851  0.3304  0.0346
35458POPC   GL171478  13.303  17.802  14.960 -0.0627  0.1034 -0.1898
35458POPC   GL271479  13.381  18.019  15.151  0.0293 -0.0639  0.1200
35458POPC   C1A71480  12.864  18.051  14.984  0.0073 -0.1881  0.0954
35458POPC   D2A71481  12.422  18.205  14.852 -0.0555 -0.1050 -0.3993
35458POPC   C3A71482  12.400  18.637  14.943  0.0239  0.0772  0.1054
35458POPC   C4A71483  12.004  18.931  14.978 -0.1583 -0.1015  0.2128
35458POPC   C1B71484  13.065  18.313  15.386 -0.2371  0.0694  0.1405
35458POPC   C2B71485  12.874  18.650  15.556  0.1089 -0.0036 -0.0756
35458POPC   C3B71486  12.687  19.066  15.625  0.2968 -0.0596 -0.1187
35458POPC   C4B71487  12.330  19.251  15.770 -0.1075 -0.1218 -0.2317
35459POPC   NC371488  14.938  22.064  12.099  0.2350  0.2208  0.0294
35459POPC   PO471489  14.857  22.177  12.458 -0.0877  0.1267 -0.0212
35459POPC   GL171490  14.441  22.178  12.447 -0.0580  0.0949 -0.2569
35459POPC   GL271491  14.270  22.274  12.671  0.3682 -0.0131  0.1545
35459POPC   C1A71492  14.198  22.159  12.049  0.1196  0.2247  0.0218
35459POPC   D2A71493  13.981  22.424  11.781  0.1901  0.2490  0.0196
35459POPC   C3A71494  13.572  22.231  11.933  0.2386 -0.0192  0.0212
35459POPC   C4A71495  13.154  21.962  11.994 -0.0884  0.0873 -0.0769
35459POPC   C1B71496  13.820  22.240  12.706 -0.0648  0.0465  0.0014
35459POPC   C2B71497  13.475  22.406  13.004 -0.0352  0.2130 -0.0155
35459POPC   C3B71498  13.192  22.770  13.068  0.1993  0.3182 -0.0306
35459POPC   C4B71499  12.765  22.886  12.909 -0.1235 -0.1797 -0.1235
35460POPC   NC371500   6.945  27.268  10.029  0.0307  0.1079  0.2950
35460POPC   PO471501   7.197  27.326  10.313  0.0320 -0.1355 -0.1553
35460POPC   GL171502   7.419  27.294  10.022 -0.5876  0.1482  0.0196
35460POPC   GL271503   7.615  27.549   9.939 -0.1682 -0.2118 -0.0795
35460POPC   C1A71504   7.752  27.028   9.840  0.0305 -0.0335 -0.0242
35460POPC   D2A71505   7.968  26.774   9.460  0.0265  0.0225 -0.0119
35460POPC   C3A71506   8.163  26.383   9.366 -0.1543  0.0519  0.0499
35460POPC   C4A71507   8.373  26.043   9.128  0.2836  0.0747  0.0982
35460POPC   C1B71508   8.028  27.519   9.751  0.0941 -0.2490 -0.0232
35460POPC   C2B71509   8.177  27.201   9.470  0.3546  0.1850 -0.1039
35460POPC   C3B71510   8.482  26.904   9.331 -0.0339  0.1976 -0.1933
35460POPC   C4B71511   8.780  26.516   9.252 -0.0272  0.0172  0.3622
35461POPC   NC371512  16.050  24.056  15.513  0.1221 -0.0391 -0.3398
35461POPC   PO471513  15.959  24.435  15.406 -0.1594 -0.0213  0.1467
35461POPC   GL171514  15.900  24.580  15.782 -0.1230  0.3584  0.7056
35461POPC   GL271515  16.134  24.471  15.974  0.0816  0.1878  0.1923
35461POPC   C1A71516  15.674  24.367  16.103  0.0566  0.0964  0.0327
35461POPC   D2A71517  15.425  24.413  16.451 -0.0485 -0.1867 -0.1245
35461POPC   C3A71518  15.210  24.794  16.538  0.0007 -0.0352 -0.2171
35461POPC   C4A71519  14.946  24.961  16.891  0.1376 -0.0472  0.0786
35461POPC   C1B71520  15.999  24.456  16.442  0.0830 -0.1473  0.1933
35461POPC   C2B71521  16.010  24.359  16.956  0.0471 -0.3368  0.1124
35461POPC   C3B71522  15.976  24.002  17.272 -0.0114 -0.0065  0.0027
35461POPC   C4B71523  15.691  23.637  17.398 -0.0293 -0.0687  0.2199
35462POPC   NC371524   4.777  25.762   9.874 -0.0897 -0.2400  0.1492
35462POPC   PO471525   5.148  25.787   9.995  0.4854  0.0456 -0.0645
35462POPC   GL171526   5.434  25.760   9.685 -0.0293 -0.1051  0.0903
35462POPC   GL271527   5.646  25.615   9.829 -0.1053 -0.1307  0.0991
35462POPC   C1A71528   5.618  25.729   9.227 -0.1923  0.0220  0.1890
35462POPC   D2A71529   5.846  25.381   9.042  0.2045 -0.0813  0.0639
35462POPC   C3A71530   6.230  25.610   8.916 -0.0526 -0.0157  0.2227
35462POPC   C4A71531   6.346  25.994   8.786 -0.0742  0.0938  0.0435
35462POPC   C1B71532   6.082  25.450   9.775 -0.2848  0.1672  0.1507
35462POPC   C2B71533   6.439  25.301   9.525  0.1447  0.1141  0.0271
35462POPC   C3B71534   6.894  25.227   9.293  0.1202 -0.1782 -0.1220
35462POPC   C4B71535   7.392  25.131   9.251  0.0973 -0.0177 -0.1427
35463POPC   NC371536   1.665  22.196  16.134  0.2360 -0.4330 -0.0790
35463POPC   PO471537   1.388  21.916  16.197 -0.0975 -0.1836 -0.1785
35463POPC   GL171538   1.531  21.992  16.579  0.1285 -0.0778 -0.3572
35463POPC   GL271539   1.311  21.882  16.711  0.1551 -0.0385 -0.0442
35463POPC   C1A71540   1.665  22.004  17.054  0.1044  0.2542  0.2276
35463POPC   D2A71541   1.862  22.263  17.329 -0.3558  0.0041  0.0953
35463POPC   C3A71542   2.067  22.168  17.697  0.2308  0.0734  0.0693
35463POPC   C4A71543   2.427  22.452  17.925 -0.1476  0.2803 -0.2287
35463POPC   C1B71544   1.161  21.892  17.184 -0.1000  0.0335  0.0290
35463POPC   C2B71545   1.075  22.192  17.618 -0.0894  0.3309  0.0833
35463POPC   C3B71546   0.991  22.467  18.018 -0.0937 -0.0041  0.1170
35463POPC   C4B71547   0.583  22.484  18.224 -0.2465 -0.2258  0.1832
35464POPC   NC371548   4.514  22.747  10.987 -0.1542  0.1273  0.0486
35464POPC   PO471549   4.663  22.397  11.131  0.2176 -0.1055  0.1732
35464POPC   GL171550   4.763  22.363  10.798  0.3854  0.3779  0.0160
35464POPC   GL271551   4.817  22.532  10.637  0.1456 -0.0317 -0.1350
35464POPC   C1A71552   4.952  22.124  10.405  0.2674 -0.0397  0.1354
35464POPC   D2A71553   5.254  21.982  10.115 -0.0066 -0.2163  0.2650
35464POPC   C3A71554   5.482  22.113   9.719 -0.0372 -0.1190 -0.2628
35464POPC   C4A71555   5.609  22.314   9.312  0.2274 -0.0264  0.3767
35464POPC   C1B71556   5.227  22.495  10.531 -0.2324  0.0576  0.0748
35464POPC   C2B71557   5.539  22.415  10.228 -0.0290  0.1646 -0.2731
35464POPC   C3B71558   5.904  22.316   9.974  0.1541  0.0740 -0.1307
35464POPC   C4B71559   6.343  22.288   9.840  0.1622 -0.0531  0.3055
35465POPC   NC371560   4.315  30.556  16.396  0.0322  0.1239  0.0967
35465POPC   PO471561   4.673  30.544  16.493 -0.1295 -0.4080 -0.0620
35465POPC   GL171562   4.410  30.549  16.843 -0.0580 -0.0661  0.2035
35465POPC   GL271563   4.387  30.184  16.879 -0.2602  0.2452 -0.3457
35465POPC   C1A71564   4.737  30.584  17.152  0.3333 -0.1361 -0.4138
35465POPC   D2A71565   5.012  30.824  17.447 -0.0684 -0.1730 -0.0400
35465POPC   C3A71566   4.706  31.206  17.600  0.0792  0.0023  0.1361
35465POPC   C4A71567   4.462  31.394  17.913  0.1110  0.0724  0.0841
35465POPC   C1B71568   4.294  30.478  17.267 -0.0923 -0.1111 -0.2750
35465POPC   C2B71569   4.498  30.662  17.644  0.0401  0.2175 -0.1502
35465POPC   C3B71570   4.714  30.828  17.982  0.1284  0.1518 -0.0007
35465POPC   C4B71571   5.068  31.129  18.070  0.1104 -0.0485  0.2297
35466POPC   NC371572   1.937  29.910  16.487  0.2719  0.0538  0.2326
35466POPC   PO471573   2.058  29.953  16.855 -0.0563 -0.0054 -0.0604
35466POPC   GL171574   1.900  30.000  17.174  0.0088  0.0506  0.3633
35466POPC   GL271575   2.106  29.950  17.339  0.2114 -0.0166  0.0527
35466POPC   C1A71576   1.600  29.865  17.498  0.3261 -0.0441 -0.1912
35466POPC   D2A71577   1.495  29.740  17.958 -0.1912 -0.0167  0.4074
35466POPC   C3A71578   1.218  29.786  18.227  0.0587 -0.1767 -0.1887
35466POPC   C4A71579   0.993  29.894  18.593 -0.1857 -0.1215 -0.1840
35466POPC   C1B71580   2.056  29.938  17.799  0.2900 -0.0251  0.2410
35466POPC   C2B71581   2.010  29.730  18.135  0.1537 -0.0395 -0.1546
35466POPC   C3B71582   2.300  29.517  18.421 -0.0576  0.4425  0.0301
35466POPC   C4B71583   2.706  29.334  18.256  0.0065  0.1313 -0.2290
35467POPC   NC371584   3.468  22.372   9.574  0.0831  0.4199  0.2873
35467POPC   PO471585   3.762  22.577   9.696  0.2045  0.1880 -0.0359
35467POPC   GL171586   3.986  22.398   9.470 -0.2886  0.2702 -0.0090
35467POPC   GL271587   3.895  22.165   9.399 -0.4891  0.1376  0.1916
35467POPC   C1A71588   4.355  22.351   9.205 -0.0220 -0.0299 -0.0169
35467POPC   D2A71589   4.834  22.286   9.130 -0.0661 -0.2525 -0.3668
35467POPC   C3A71590   4.860  22.203   8.704  0.1028 -0.4144  0.0528
35467POPC   C4A71591   5.137  22.103   8.328  0.2107  0.0126 -0.2311
35467POPC   C1B71592   4.064  22.005   8.977 -0.2787  0.1218 -0.2428
35467POPC   C2B71593   4.320  22.165   8.633  0.0148 -0.0769 -0.3439
35467POPC   C3B71594   4.497  22.172   8.193 -0.0542  0.0382  0.0759
35467POPC   C4B71595   4.616  21.774   7.997  0.5541  0.0837 -0.0190
35468POPC   NC371596  11.217  28.158  15.481  0.0678  0.2891 -0.0793
35468POPC   PO471597  10.988  28.292  15.811 -0.5386 -0.2327  0.0432
35468POPC   GL171598  11.050  28.205  16.253 -0.1303  0.1841 -0.0772
35468POPC   GL271599  11.112  28.514  16.272 -0.1893 -0.0849 -0.2494
35468POPC   C1A71600  10.983  27.799  16.377 -0.0243 -0.2331  0.1103
35468POPC   D2A71601  11.033  27.351  16.548 -0.1029 -0.2302 -0.1407
35468POPC   C3A71602  10.828  26.973  16.625  0.0386  0.2280  0.0382
35468POPC   C4A71603  10.370  26.830  16.562  0.2659 -0.2321  0.1650
35468POPC   C1B71604  11.117  28.211  16.659  0.2824  0.3718 -0.3145
35468POPC   C2B71605  11.208  27.948  17.050  0.0955  0.1728 -0.0485
35468POPC   C3B71606  11.054  27.580  17.347 -0.0116  0.1166  0.0946
35468POPC   C4B71607  10.586  27.481  17.512 -0.1770 -0.0744  0.1205
35469POPC   NC371608  15.228  23.428  12.855  0.2965  0.3280  0.0127
35469POPC   PO471609  15.012  23.551  13.208 -0.2066 -0.0901 -0.2983
35469POPC   GL171610  14.760  23.368  13.441 -0.0825  0.1355 -0.1540
35469POPC   GL271611  14.928  23.319  13.632  0.0909  0.2716  0.1189
35469POPC   C1A71612  14.283  23.370  13.293  0.1916  0.0236 -0.1484
35469POPC   D2A71613  13.954  23.043  13.187 -0.2031  0.0815  0.2870
35469POPC   C3A71614  13.623  22.761  13.318 -0.4308  0.0804  0.2052
35469POPC   C4A71615  13.314  22.663  13.607 -0.1789  0.1858 -0.1749
35469POPC   C1B71616  14.442  23.358  13.827 -0.1725  0.2647 -0.1888
35469POPC   C2B71617  14.088  23.248  14.067  0.1779  0.0099  0.0251
35469POPC   C3B71618  13.828  23.120  14.448 -0.0048 -0.1804  0.0731
35469POPC   C4B71619  13.417  23.186  14.642 -0.4468 -0.1354  0.3310
35470POPC   NC371620  13.971  27.303   9.730  0.0017 -0.1434  0.0676
35470POPC   PO471621  14.338  27.216   9.635 -0.4360 -0.0848  0.4528
35470POPC   GL171622  13.997  26.983   9.445  0.2993  0.1822 -0.0235
35470POPC   GL271623  14.191  26.991   9.164 -0.4030  0.1687  0.1546
35470POPC   C1A71624  13.563  27.040   9.304 -0.2060 -0.1211  0.2215
35470POPC   D2A71625  13.610  27.154   8.844  0.1045 -0.3609 -0.1628
35470POPC   C3A71626  13.710  26.812   8.532 -0.1153 -0.3095  0.1167
35470POPC   C4A71627  13.820  26.482   8.243  0.0476 -0.2015  0.2120
35470POPC   C1B71628  14.171  27.081   8.709 -0.2435 -0.0038 -0.2123
35470POPC   C2B71629  14.001  27.228   8.278  0.1538 -0.0488 -0.0423
35470POPC   C3B71630  13.764  27.046   7.960 -0.3962  0.0970  0.1954
35470POPC   C4B71631  13.676  27.148   7.536 -0.1810 -0.0689 -0.3179
35471POPC   NC371632   6.566  30.308  16.696  0.2747  0.2162  0.3473
35471POPC   PO471633   6.686  30.635  16.621 -0.0300 -0.0955 -0.0910
35471POPC   GL171634   6.828  30.840  16.919 -0.3416 -0.1660  0.1235
35471POPC   GL271635   7.097  30.591  17.028 -0.1299  0.0854  0.1654
35471POPC   C1A71636   7.027  31.132  17.230  0.1191 -0.0087 -0.0318
35471POPC   D2A71637   7.364  31.169  17.535 -0.1789  0.0889  0.1000
35471POPC   C3A71638   7.271  31.374  17.897  0.2860 -0.2080  0.1753
35471POPC   C4A71639   7.461  31.804  18.021 -0.2013  0.0215  0.1204
35471POPC   C1B71640   7.189  30.667  17.468  0.3079 -0.1600 -0.0424
35471POPC   C2B71641   7.335  30.465  17.866  0.0902  0.2438 -0.2300
35471POPC   C3B71642   7.645  30.555  18.206  0.1932 -0.1394  0.3647
35471POPC   C4B71643   7.933  30.890  18.353 -0.0256 -0.0017  0.4540
35472POPC   NC371644  13.379  16.852  14.691  0.0504  0.0927  0.1718
35472POPC   PO471645  13.157  16.971  15.007  0.2981  0.2541  0.0360
35472POPC   GL171646  13.074  16.986  15.429 -0.2249  0.1895 -0.4440
35472POPC   GL271647  13.077  17.238  15.652 -0.0200  0.1019 -0.1662
35472POPC   C1A71648  12.997  16.725  15.789  0.1110  0.2503  0.0785
35472POPC   D2A71649  12.762  16.552  16.135 -0.2788  0.1263 -0.3268
35472POPC   C3A71650  12.303  16.538  16.389  0.1988 -0.0890  0.3172
35472POPC   C4A71651  12.017  16.614  16.733 -0.0857 -0.1774  0.2974
35472POPC   C1B71652  13.268  17.476  15.936  0.0208  0.3688  0.4584
35472POPC   C2B71653  13.268  17.561  16.361 -0.0502 -0.2842  0.0276
35472POPC   C3B71654  13.026  17.779  16.712  0.1899  0.1025  0.0204
35472POPC   C4B71655  12.596  17.787  16.805 -0.1743  0.0817 -0.0919
35473POPC   NC371656   3.759  15.899  15.922  0.0313 -0.3943 -0.3783
35473POPC   PO471657   3.479  15.755  16.155  0.0586 -0.0354 -0.0592
35473POPC   GL171658   3.386  15.877  16.496 -0.4692  0.2725  0.3423
35473POPC   GL271659   3.325  16.077  16.613 -0.0173 -0.0270 -0.1347
35473POPC   C1A71660   3.587  15.678  16.860 -0.0418  0.2767  0.3708
35473POPC   D2A71661   3.716  15.501  17.259 -0.3968 -0.1624  0.0545
35473POPC   C3A71662   3.881  15.071  17.288 -0.0816  0.0180 -0.3632
35473POPC   C4A71663   4.127  14.881  17.013 -0.0860  0.0881  0.3016
35473POPC   C1B71664   2.922  16.244  16.804  0.0119  0.2062 -0.0310
35473POPC   C2B71665   2.741  16.477  17.194  0.0079  0.0306  0.4554
35473POPC   C3B71666   2.732  16.572  17.624  0.1499 -0.1859  0.0829
35473POPC   C4B71667   2.849  16.501  18.031  0.2842 -0.2266 -0.0563
35474POPC   NC371668  15.104  22.654  13.871  0.0304 -0.3136  0.1549
35474POPC   PO471669  15.173  23.057  13.979 -0.1878  0.4174 -0.0385
35474POPC   GL171670  14.789  23.085  14.079 -0.0949  0.2673  0.4100
35474POPC   GL271671  14.542  22.844  14.045  0.2145 -0.0730 -0.2569
35474POPC   C1A71672  14.432  23.163  14.409 -0.2814 -0.0466 -0.2394
35474POPC   D2A71673  14.170  23.024  14.836  0.0813  0.2345  0.1929
35474POPC   C3A71674  14.265  22.803  15.188 -0.0485 -0.1817 -0.3124
35474POPC   C4A71675  14.700  22.774  15.410 -0.2285  0.1253  0.0193
35474POPC   C1B71676  14.176  22.737  14.319  0.2443  0.2195  0.0086
35474POPC   C2B71677  13.824  22.590  14.617  0.3625 -0.0556  0.1387
35474POPC   C3B71678  13.443  22.740  14.808  0.0764 -0.0804 -0.0242
35474POPC   C4B71679  12.978  22.896  14.797  0.1207 -0.2327  0.1040
35475POPC   NC371680  15.972  27.417   8.888 -0.0471  0.0539 -0.0757
35475POPC   PO471681  16.358  27.302   8.839 -0.1933 -0.0344 -0.2116
35475POPC   GL171682  16.219  27.065   8.550  0.1334 -0.0786  0.2962
35475POPC   GL271683  15.954  26.907   8.569 -0.0334  0.0959  0.1734
35475POPC   C1A71684  16.328  26.840   8.141  0.0422 -0.0538  0.1287
35475POPC   D2A71685  16.238  26.762   7.651 -0.3212  0.1626  0.0170
35475POPC   C3A71686  16.354  27.049   7.325  0.0655  0.0376 -0.1186
35475POPC   C4A71687  16.535  27.056   6.898  0.0488 -0.2281 -0.0951
35475POPC   C1B71688  15.870  26.689   8.190  0.0521  0.1773  0.2790
35475POPC   C2B71689  15.625  26.564   7.827 -0.3849 -0.2914 -0.0118
35475POPC   C3B71690  15.604  26.551   7.362 -0.0306 -0.0294  0.1051
35475POPC   C4B71691  15.707  26.536   6.951 -0.2220 -0.0158  0.2670
35476POPC   NC371692   1.977  30.533  16.944  0.2728  0.0776  0.1508
35476POPC   PO471693   1.671  30.319  16.849  0.4316 -0.0768 -0.0406
35476POPC   GL171694   1.573  30.258  17.296 -0.0586  0.0194 -0.1076
35476POPC   GL271695   1.563  30.582  17.328 -0.4420  0.2434  0.3821
35476POPC   C1A71696   1.694  30.323  17.772  0.0566  0.0012  0.1075
35476POPC   D2A71697   1.841  30.179  18.204  0.2130 -0.1928 -0.0156
35476POPC   C3A71698   2.216  30.172  18.472 -0.0654 -0.3074  0.0082
35476POPC   C4A71699   2.582  30.427  18.592 -0.2378 -0.5120  0.0581
35476POPC   C1B71700   1.790  30.887  17.581  0.0906 -0.2718  0.2171
35476POPC   C2B71701   1.986  31.177  17.860  0.1226 -0.0906  0.1713
35476POPC   C3B71702   2.317  31.382  18.083 -0.2494 -0.0199  0.3094
35476POPC   C4B71703   2.258  31.498  18.536  0.0020  0.0414  0.0607
35477POPC   NC371704  14.141  24.091  12.515 -0.0432 -0.2162  0.1423
35477POPC   PO471705  14.031  24.315  12.252  0.2162 -0.1658  0.1308
35477POPC   GL171706  13.796  23.938  12.124  0.3854  0.1369 -0.0841
35477POPC   GL271707  13.776  23.711  12.318  0.0008  0.4410 -0.1869
35477POPC   C1A71708  13.383  23.654  11.963  0.0267 -0.0409 -0.2389
35477POPC   D2A71709  13.016  23.420  11.784  0.1812  0.3192 -0.0730
35477POPC   C3A71710  12.710  23.698  11.591  0.2393  0.1405  0.0253
35477POPC   C4A71711  12.372  23.942  11.587 -0.2395 -0.2828 -0.1046
35477POPC   C1B71712  13.419  23.539  12.638 -0.2424  0.0754  0.3677
35477POPC   C2B71713  12.986  23.395  12.839  0.0638 -0.1414  0.1508
35477POPC   C3B71714  12.644  23.249  12.554  0.4126  0.0314  0.0639
35477POPC   C4B71715  12.594  23.362  12.084  0.0735 -0.1220  0.0548
35478POPC   NC371716   0.447  17.506  16.025 -0.2046  0.0639  0.0997
35478POPC   PO471717   0.823  17.620  15.928 -0.0521  0.1841 -0.0849
35478POPC   GL171718   1.023  17.840  16.193  0.0098 -0.3062 -0.1261
35478POPC   GL271719   1.170  18.029  15.999 -0.0265  0.0373  0.1180
35478POPC   C1A71720   1.279  17.786  16.542 -0.2871  0.2292 -0.4922
35478POPC   D2A71721   1.451  17.503  16.867 -0.0640  0.0517  0.2494
35478POPC   C3A71722   1.494  17.662  17.303  0.0488  0.1909  0.1609
35478POPC   C4A71723   1.499  17.681  17.760  0.3551  0.0114  0.4018
35478POPC   C1B71724   1.146  18.262  16.396  0.0278 -0.2133 -0.2748
35478POPC   C2B71725   1.140  18.327  16.874 -0.1053 -0.0226  0.3239
35478POPC   C3B71726   0.810  18.150  17.240  0.0093 -0.0015 -0.0110
35478POPC   C4B71727   1.029  17.922  17.621 -0.0639  0.1090  0.0979
35479POPC   NC371728   5.411  26.345  16.060 -0.0259  0.1486  0.2020
35479POPC   PO471729   5.298  26.501  16.405  0.0763 -0.2075 -0.0213
35479POPC   GL171730   5.449  26.391  16.692 -0.3461  0.1422  0.1032
35479POPC   GL271731   5.443  26.557  16.991 -0.0444 -0.1821  0.0851
35479POPC   C1A71732   5.554  26.044  16.998 -0.1841  0.1500  0.0588
35479POPC   D2A71733   5.583  25.715  17.328 -0.3373 -0.1308 -0.2564
35479POPC   C3A71734   5.950  25.463  17.517  0.0468 -0.1058  0.1257
35479POPC   C4A71735   5.998  25.009  17.706 -0.0474  0.3754  0.0315
35479POPC   C1B71736   5.695  26.525  17.371 -0.0400  0.0488  0.1386
35479POPC   C2B71737   5.983  26.446  17.696 -0.1031 -0.0170 -0.2308
35479POPC   C3B71738   6.271  26.411  18.049  0.3042  0.0662  0.3154
35479POPC   C4B71739   6.587  26.060  18.071 -0.3104  0.3533  0.0136
35480POPC   NC371740  14.374  17.010  15.329  0.2331 -0.1849 -0.0892
35480POPC   PO471741  14.555  17.339  15.374  0.4927  0.0593 -0.1046
35480POPC   GL171742  14.580  17.495  15.756  0.0694  0.4270 -0.1201
35480POPC   GL271743  14.418  17.737  15.813  0.1079 -0.0983  0.1803
35480POPC   C1A71744  14.749  17.647  16.214  0.1901 -0.0059 -0.1107
35480POPC   D2A71745  15.001  17.994  16.437 -0.0064  0.3044 -0.1815
35480POPC   C3A71746  15.022  18.191  16.800  0.1310 -0.2342  0.0738
35480POPC   C4A71747  14.964  18.354  17.235 -0.3806  0.1834  0.3158
35480POPC   C1B71748  14.347  17.420  16.118  0.2375 -0.0345  0.3249
35480POPC   C2B71749  14.122  17.227  16.457 -0.1711  0.0217  0.0808
35480POPC   C3B71750  13.880  17.125  16.848 -0.0967 -0.0147  0.0007
35480POPC   C4B71751  13.575  17.204  17.170  0.1181  0.1437 -0.3658
35481POPC   NC371752   5.612  19.509  13.342 -0.0072 -0.0786  0.1087
35481POPC   PO471753   5.762  19.386  12.997 -0.3049 -0.0361  0.0772
35481POPC   GL171754   6.059  19.344  13.337  0.1691  0.1606 -0.1847
35481POPC   GL271755   6.190  19.615  13.217  0.3695 -0.6056  0.0288
35481POPC   C1A71756   6.353  19.440  13.739  0.1514 -0.0580  0.3564
35481POPC   D2A71757   6.457  19.755  14.071 -0.2043  0.0371 -0.0577
35481POPC   C3A71758   6.814  20.100  14.153  0.0463 -0.0376  0.1282
35481POPC   C4A71759   7.233  20.115  14.342 -0.0075  0.0843 -0.3282
35481POPC   C1B71760   6.596  19.734  13.347  0.0728 -0.1234 -0.1740
35481POPC   C2B71761   6.852  20.044  13.601  0.3307  0.2321  0.0068
35481POPC   C3B71762   7.155  20.382  13.767  0.2722 -0.0642  0.0673
35481POPC   C4B71763   7.440  20.512  14.114 -0.0572  0.2518 -0.1540
35482POPC   NC371764  11.769  27.933  12.313 -0.1181 -0.0544 -0.2105
35482POPC   PO471765  11.613  27.532  12.298 -0.2194  0.0114  0.3199
35482POPC   GL171766  11.332  27.289  12.153 -0.1250  0.2814 -0.4786
35482POPC   GL271767  11.395  27.340  11.837 -0.0870 -0.3013 -0.2336
35482POPC   C1A71768  11.227  26.861  12.095  0.1165 -0.0574 -0.3237
35482POPC   D2A71769  11.306  26.489  11.752  0.0080 -0.0307  0.1132
35482POPC   C3A71770  11.299  26.044  11.715 -0.2616  0.1299 -0.1726
35482POPC   C4A71771  11.236  25.796  11.428  0.0958  0.0362 -0.2133
35482POPC   C1B71772  11.045  27.062  11.664  0.0819  0.0985  0.3893
35482POPC   C2B71773  11.042  26.741  11.380 -0.0116  0.0930 -0.1054
35482POPC   C3B71774  11.058  26.748  10.933 -0.1435 -0.1412 -0.1946
35482POPC   C4B71775  10.753  26.517  10.670 -0.0740 -0.1123  0.0867
35483POPC   NC371776   6.853  26.972  10.501 -0.1058 -0.1455  0.1336
35483POPC   PO471777   6.657  26.848  10.121  0.1371 -0.1925 -0.3748
35483POPC   GL171778   6.732  26.517   9.955  0.0091 -0.3250 -0.3329
35483POPC   GL271779   6.941  26.420  10.175 -0.1578 -0.0419 -0.1125
35483POPC   C1A71780   6.753  26.080   9.785 -0.1370 -0.0157 -0.2615
35483POPC   D2A71781   6.797  25.658   9.723 -0.1305  0.1781 -0.0271
35483POPC   C3A71782   7.145  25.606   9.430  0.0444 -0.1638 -0.0732
35483POPC   C4A71783   7.323  25.613   9.032 -0.1812 -0.0788 -0.0609
35483POPC   C1B71784   7.200  26.146   9.936  0.0099  0.2489  0.0261
35483POPC   C2B71785   7.525  25.918   9.735 -0.1003 -0.1331 -0.2742
35483POPC   C3B71786   7.631  25.490   9.594  0.3096  0.0293 -0.0871
35483POPC   C4B71787   7.828  25.024   9.603 -0.0445 -0.0803 -0.2682
35484POPC   NC371788  13.059  27.380   9.916 -0.0770  0.1256  0.0790
35484POPC   PO471789  12.953  27.726   9.993  0.0159 -0.2284 -0.1029
35484POPC   GL171790  12.741  27.598   9.673 -0.5069 -0.1921 -0.1911
35484POPC   GL271791  12.860  27.469   9.415 -0.0138  0.2467  0.2085
35484POPC   C1A71792  12.399  27.393   9.471  0.2229  0.0750  0.2261
35484POPC   D2A71793  12.025  27.221   9.630 -0.0375  0.2099  0.0591
35484POPC   C3A71794  11.844  27.098   9.222 -0.0440 -0.0021  0.2889
35484POPC   C4A71795  11.824  26.813   8.875  0.1459  0.0233 -0.0115
35484POPC   C1B71796  13.193  27.283   9.149 -0.0666  0.2179  0.0687
35484POPC   C2B71797  13.031  27.124   8.726 -0.2889  0.2412  0.2734
35484POPC   C3B71798  13.273  27.049   8.379  0.1394  0.2178 -0.3601
35484POPC   C4B71799  13.299  26.810   8.002  0.0681  0.2866 -0.0043
35485POPC   NC371800  13.206  26.321  11.732 -0.0694  0.0830  0.0800
35485POPC   PO471801  12.858  26.305  11.899  0.0764 -0.0181 -0.1245
35485POPC   GL171802  12.652  25.986  12.048 -0.0706 -0.1513 -0.5911
35485POPC   GL271803  12.707  25.780  11.944 -0.1513 -0.0053 -0.0571
35485POPC   C1A71804  12.306  25.630  12.074 -0.1374 -0.0299  0.1984
35485POPC   D2A71805  11.833  25.476  12.223 -0.1999 -0.0983  0.1781
35485POPC   C3A71806  11.595  25.118  11.996  0.0058  0.0380  0.0588
35485POPC   C4A71807  11.160  25.029  11.871 -0.2344 -0.1159  0.0742
35485POPC   C1B71808  12.538  25.486  11.652 -0.1153  0.0127  0.0331
35485POPC   C2B71809  12.296  25.232  11.391 -0.1881  0.0592 -0.3577
35485POPC   C3B71810  12.121  24.994  10.979 -0.2686  0.1808  0.0755
35485POPC   C4B71811  11.904  25.132  10.583  0.2601 -0.1373  0.1141
35486POPC   NC371812   0.201  18.341  15.638  0.4866  0.0700 -0.0728
35486POPC   PO471813   0.368  18.703  15.709  0.1745 -0.0790  0.1814
35486POPC   GL171814   0.358  18.462  16.064  0.0284 -0.0069  0.6767
35486POPC   GL271815   0.030  18.383  16.137 -0.2189 -0.4058 -0.2718
35486POPC   C1A71816   0.406  18.532  16.507 -0.0912  0.2055  0.5682
35486POPC   D2A71817   0.663  18.485  16.827 -0.0406 -0.4586  0.0711
35486POPC   C3A71818   0.656  18.654  17.212  0.1913 -0.3363 -0.0167
35486POPC   C4A71819   0.626  18.526  17.611  0.0891  0.1108  0.0011
35486POPC   C1B71820  -0.056  18.306  16.557  0.0204 -0.0082 -0.0671
35486POPC   C2B71821  -0.203  18.290  16.995 -0.0408  0.3684 -0.0184
35486POPC   C3B71822  -0.107  18.374  17.410 -0.1084  0.1504 -0.5470
35486POPC   C4B71823  -0.161  18.395  17.887  0.2287 -0.1247 -0.0403
35487POPC   NC371824   6.695  16.477  14.663  0.0771  0.1344 -0.2064
35487POPC   PO471825   6.723  16.798  14.970 -0.2288 -0.0158  0.1344
35487POPC   GL171826   6.765  16.840  15.312 -0.3434  0.2468  0.0300
35487POPC   GL271827   6.646  17.105  15.361  0.0295 -0.3661 -0.2105
35487POPC   C1A71828   7.087  16.954  15.643 -0.1772  0.0367 -0.0911
35487POPC   D2A71829   7.442  17.154  15.899 -0.0009  0.2380  0.0350
35487POPC   C3A71830   7.276  17.450  16.239 -0.1915 -0.3982 -0.1080
35487POPC   C4A71831   6.993  17.820  16.215  0.0341 -0.0135  0.2181
35487POPC   C1B71832   6.828  17.499  15.526 -0.1890  0.2024 -0.0333
35487POPC   C2B71833   7.181  17.643  15.730 -0.2263  0.1035 -0.0381
35487POPC   C3B71834   7.608  17.627  15.883 -0.1725  0.0627  0.0797
35487POPC   C4B71835   8.060  17.820  16.075 -0.3046 -0.0290  0.1909
35488POPC   NC371836  16.563  23.120  15.297  0.1393 -0.2057  0.1746
35488POPC   PO471837  16.664  23.514  15.296  0.3232  0.2503  0.1693
35488POPC   GL171838  16.520  23.431  15.629  0.0422 -0.0514  0.4114
35488POPC   GL271839  16.335  23.674  15.750  0.0774  0.2485 -0.2379
35488POPC   C1A71840  16.452  23.190  15.996 -0.2314  0.1841 -0.1977
35488POPC   D2A71841  16.371  23.164  16.432 -0.0623 -0.0553 -0.0448
35488POPC   C3A71842  16.396  22.822  16.719  0.1580  0.1460  0.2610
35488POPC   C4A71843  16.418  22.621  17.165  0.4375  0.0050  0.4427
35488POPC   C1B71844  16.075  23.492  16.133 -0.2435  0.0379 -0.2902
35488POPC   C2B71845  15.731  23.537  16.436  0.0123 -0.0582  0.0741
35488POPC   C3B71846  15.627  23.511  16.916 -0.1932  0.2758  0.1228
35488POPC   C4B71847  15.587  23.113  17.122  0.0107 -0.0712  0.1180
35489POPC   NC371848   2.344  23.756  15.726  0.4523 -0.0382 -0.1799
35489POPC   PO471849   2.126  24.044  15.871  0.0109 -0.0190  0.2050
35489POPC   GL171850   2.081  23.831  16.199  0.2503  0.0031 -0.2390
35489POPC   GL271851   2.273  23.726  16.342  0.0140 -0.1238  0.1528
35489POPC   C1A71852   1.856  23.542  16.569 -0.1862 -0.2177 -0.2237
35489POPC   D2A71853   1.797  23.544  17.024  0.3236  0.1660 -0.1843
35489POPC   C3A71854   1.484  23.238  17.044  0.0835  0.0437  0.0108
35489POPC   C4A71855   1.287  22.983  17.374 -0.0811 -0.0515 -0.0201
35489POPC   C1B71856   2.416  23.441  16.620 -0.0674  0.1496  0.0699
35489POPC   C2B71857   2.547  23.254  17.040  0.2082 -0.3283  0.0672
35489POPC   C3B71858   2.684  23.153  17.449  0.0475  0.0551  0.3096
35489POPC   C4B71859   2.711  22.669  17.615  0.0635 -0.0324  0.0862
35490POPC   NC371860  32.441  16.232  15.991 -0.0880 -0.2532  0.4290
35490POPC   PO471861  32.684  16.492  16.149  0.1653 -0.0992  0.0471
35490POPC   GL171862  32.723  16.521  16.537 -0.3579  0.1035  0.1567
35490POPC   GL271863  32.601  16.737  16.554 -0.0790 -0.1481  0.1074
35490POPC   C1A71864  32.517  16.444  16.953  0.0285  0.0220  0.0503
35490POPC   D2A71865  32.121  16.169  17.061 -0.1190  0.4007 -0.0621
35490POPC   C3A71866  31.820  16.453  17.188  0.2747 -0.3176  0.0723
35490POPC   C4A71867  31.588  16.830  17.036 -0.0703 -0.1359 -0.1891
35490POPC   C1B71868  32.319  17.131  16.578  0.2692  0.0442 -0.3059
35490POPC   C2B71869  32.327  17.413  16.958 -0.3304 -0.1732  0.3378
35490POPC   C3B71870  32.089  17.392  17.296  0.1924  0.1178 -0.2330
35490POPC   C4B71871  31.912  17.477  17.714  0.2053  0.1153  0.2514
35491POPC   NC371872  14.306  28.091  16.605 -0.2131 -0.0614  0.0042
35491POPC   PO471873  14.218  28.477  16.586  0.3550 -0.1539 -0.0648
35491POPC   GL171874  14.195  28.539  16.983  0.0990 -0.4378 -0.0050
35491POPC   GL271875  14.279  28.288  17.077 -0.1068  0.0820 -0.1195
35491POPC   C1A71876  14.184  28.660  17.428  0.5288 -0.3614  0.3756
35491POPC   D2A71877  13.970  28.707  17.881 -0.1870  0.2720 -0.1645
35491POPC   C3A71878  13.670  28.368  18.038 -0.2389  0.0481 -0.0159
35491POPC   C4A71879  13.767  28.008  18.318 -0.2951 -0.2790 -0.0565
35491POPC   C1B71880  14.308  27.978  17.424  0.0540  0.1642 -0.0265
35491POPC   C2B71881  14.223  27.595  17.690 -0.2476  0.0582 -0.1919
35491POPC   C3B71882  14.050  27.181  17.803  0.1999 -0.0197  0.1433
35491POPC   C4B71883  14.025  26.874  18.136  0.2544 -0.0472  0.1254
35492POPC   NC371884   6.965  25.967  13.751 -0.2928  0.1365  0.2468
35492POPC   PO471885   6.847  25.823  14.115 -0.0684 -0.1090  0.3250
35492POPC   GL171886   6.940  25.449  14.086  0.0232  0.6104  0.1645
35492POPC   GL271887   6.778  25.357  13.895  0.3762  0.2609 -0.2986
35492POPC   C1A71888   7.165  25.138  14.406  0.1243 -0.0298 -0.1602
35492POPC   D2A71889   7.389  25.244  14.814 -0.2734  0.3334 -0.2392
35492POPC   C3A71890   7.670  24.935  14.816 -0.0942  0.1392 -0.0955
35492POPC   C4A71891   8.107  24.681  14.899  0.2013  0.3342 -0.3961
35492POPC   C1B71892   6.831  24.938  13.977  0.0419 -0.2240 -0.0279
35492POPC   C2B71893   6.823  24.505  14.031 -0.1682  0.0382 -0.1060
35492POPC   C3B71894   6.840  24.144  14.233  0.1317  0.0349 -0.0706
35492POPC   C4B71895   6.886  23.910  14.627  0.0782 -0.0877  0.0356
35493POPC   NC371896   6.359  27.019   9.394  0.0021  0.1791 -0.3758
35493POPC   PO471897   6.453  27.189   9.742 -0.1907  0.0734  0.1720
35493POPC   GL171898   6.770  26.881   9.646  0.2238  0.2001 -0.2389
35493POPC   GL271899   6.858  26.949   9.363  0.1548 -0.1944 -0.1313
35493POPC   C1A71900   6.669  26.486   9.482 -0.0758  0.1268  0.0542
35493POPC   D2A71901   6.611  26.211   9.130  0.0333 -0.1595  0.2217
35493POPC   C3A71902   6.703  25.775   9.132  0.1518 -0.0949 -0.3202
35493POPC   C4A71903   6.766  25.481   8.848  0.0903  0.0132  0.0763
35493POPC   C1B71904   7.118  26.576   9.145  0.1202 -0.0522  0.0851
35493POPC   C2B71905   7.195  26.150   8.920 -0.0944 -0.0257 -0.0057
35493POPC   C3B71906   7.054  25.897   8.616 -0.0409 -0.1249  0.0152
35493POPC   C4B71907   6.903  25.607   8.333 -0.0073 -0.1593  0.2661
35494POPC   NC371908   3.519  31.982  16.387 -0.1481 -0.1628 -0.0385
35494POPC   PO471909   3.271  32.227  16.339 -0.2183 -0.0399 -0.0743
35494POPC   GL171910   3.216  31.976  16.761 -0.0319  0.1855 -0.0199
35494POPC   GL271911   3.465  31.862  16.904  0.1747 -0.0357 -0.0870
35494POPC   C1A71912   2.958  32.106  17.119  0.0585  0.0061 -0.1196
35494POPC   D2A71913   2.930  32.496  17.346 -0.1547  0.0395  0.2129
35494POPC   C3A71914   2.993  32.651  17.749  0.1158  0.0913  0.1154
35494POPC   C4A71915   2.740  32.828  18.094 -0.1392 -0.3682 -0.2035
35494POPC   C1B71916   3.378  32.083  17.339  0.0966  0.2119  0.3460
35494POPC   C2B71917   3.084  32.121  17.720  0.0502 -0.0073 -0.1798
35494POPC   C3B71918   3.157  32.274  18.120 -0.3926  0.0168 -0.0840
35494POPC   C4B71919   3.473  32.568  18.129  0.0378  0.2318  0.2154
35495POPC   NC371920   5.040  25.093  14.886  0.4371 -0.1166  0.0469
35495POPC   PO471921   5.035  24.769  14.675  0.0193 -0.0231  0.0201
35495POPC   GL171922   5.337  24.618  14.848 -0.2101 -0.3055 -0.0660
35495POPC   GL271923   5.301  24.624  15.131  0.0745 -0.3114  0.0229
35495POPC   C1A71924   5.737  24.355  14.803  0.0955 -0.1300 -0.0101
35495POPC   D2A71925   6.196  24.411  14.937 -0.0077  0.1701  0.2111
35495POPC   C3A71926   6.535  24.104  14.911 -0.0801 -0.4807  0.1085
35495POPC   C4A71927   6.749  23.722  15.041 -0.4232 -0.1195 -0.0856
35495POPC   C1B71928   5.520  24.310  15.263 -0.0958 -0.1043  0.0323
35495POPC   C2B71929   5.946  24.128  15.341 -0.0143 -0.1680 -0.2448
35495POPC   C3B71930   6.279  23.819  15.234 -0.2068  0.0264  0.1948
35495POPC   C4B71931   6.361  23.425  15.437 -0.1747  0.1995  0.0023
35496POPC   NC371932  14.929  29.675  16.835  0.0507 -0.0664 -0.0617
35496POPC   PO471933  14.665  29.395  16.720 -0.2956  0.2044 -0.0422
35496POPC   GL171934  14.487  29.347  17.140  0.1665  0.3045 -0.2327
35496POPC   GL271935  14.740  29.525  17.255 -0.0496  0.0067  0.3223
35496POPC   C1A71936  14.263  29.619  17.431  0.1683  0.0171 -0.1285
35496POPC   D2A71937  14.165  29.674  17.885  0.0020 -0.0167  0.0670
35496POPC   C3A71938  14.594  29.675  18.159  0.1074 -0.1095 -0.0683
35496POPC   C4A71939  14.824  29.792  18.536  0.4554  0.2597 -0.3246
35496POPC   C1B71940  14.698  29.407  17.648  0.2234 -0.3010  0.1299
35496POPC   C2B71941  14.718  29.199  18.061  0.0802  0.3492 -0.0651
35496POPC   C3B71942  14.674  28.876  18.488  0.0024  0.2291 -0.1029
35496POPC   C4B71943  14.741  28.448  18.676  0.0008 -0.1488 -0.1570
35497POPC   NC371944   4.975  24.037  13.565 -0.3622 -0.1556 -0.2732
35497POPC   PO471945   4.666  23.797  13.573 -0.0524 -0.0473 -0.0720
35497POPC   GL171946   5.031  23.605  13.679  0.1765  0.1220  0.2111
35497POPC   GL271947   5.022  23.329  13.569 -0.2617 -0.2794  0.1303
35497POPC   C1A71948   5.150  23.384  14.130  0.0144 -0.4190 -0.1973
35497POPC   D2A71949   5.123  23.126  14.522 -0.0112  0.1124  0.1649
35497POPC   C3A71950   5.372  22.728  14.574 -0.1223  0.2064  0.3644
35497POPC   C4A71951   5.600  22.292  14.576  0.0839 -0.1179  0.2010
35497POPC   C1B71952   5.455  23.399  13.689 -0.1627 -0.0403 -0.1085
35497POPC   C2B71953   5.895  23.277  13.819  0.0476  0.0580 -0.2771
35497POPC   C3B71954   6.257  22.975  13.955 -0.1761  0.0535  0.0609
35497POPC   C4B71955   6.615  22.786  14.190  0.3015 -0.0547  0.0127
35498POPC   NC371956  14.891  18.918  15.049 -0.1629 -0.1052  0.1035
35498POPC   PO471957  14.892  18.538  15.027  0.1793  0.0384  0.0872
35498POPC   GL171958  14.735  18.553  15.417 -0.1041  0.2285  0.1416
35498POPC   GL271959  14.965  18.508  15.607 -0.5129  0.0728 -0.0180
35498POPC   C1A71960  14.431  18.633  15.763  0.0446  0.1459 -0.0525
35498POPC   D2A71961  14.197  18.508  16.146  0.0590 -0.0302 -0.0662
35498POPC   C3A71962  14.165  18.629  16.570  0.2398  0.0955 -0.1486
35498POPC   C4A71963  14.085  18.662  17.060  0.0301  0.1736 -0.0851
35498POPC   C1B71964  14.865  18.646  16.040 -0.0033 -0.2218 -0.2490
35498POPC   C2B71965  14.719  18.519  16.450  0.1103  0.2674 -0.0348
35498POPC   C3B71966  14.573  18.478  16.832  0.2475  0.0305 -0.1697
35498POPC   C4B71967  14.442  18.311  17.280 -0.1032  0.0829 -0.1920
35499POPC   NC371968  11.905  15.806  15.538 -0.2553  0.1837  0.1261
35499POPC   PO471969  12.131  16.101  15.649 -0.1334 -0.2023 -0.0822
35499POPC   GL171970  12.096  16.416  15.912 -0.2196  0.2387 -0.1779
35499POPC   GL271971  11.821  16.448  16.084 -0.0119  0.1178 -0.0131
35499POPC   C1A71972  12.245  16.820  16.018  0.1652  0.3705  0.2520
35499POPC   D2A71973  12.603  17.005  16.247  0.0310 -0.1269  0.4272
35499POPC   C3A71974  12.493  17.396  16.472 -0.3029 -0.1518  0.0458
35499POPC   C4A71975  12.181  17.772  16.514  0.0497  0.0215 -0.0784
35499POPC   C1B71976  11.567  16.552  16.464 -0.1255 -0.3824 -0.2656
35499POPC   C2B71977  11.516  16.665  16.918  0.0205  0.0558 -0.2044
35499POPC   C3B71978  11.756  16.822  17.300 -0.1911 -0.1664 -0.0108
35499POPC   C4B71979  11.864  17.130  17.629 -0.0471  0.1750  0.2303
35500POPC   NC371980  12.383  18.243  13.233  0.1158 -0.1738 -0.0008
35500POPC   PO471981  12.491  18.641  13.321 -0.0896  0.0786 -0.1481
35500POPC   GL171982  12.282  18.962  13.330  0.1693 -0.2134 -0.1231
35500POPC   GL271983  12.019  18.959  13.163  0.0957 -0.0097  0.0609
35500POPC   C1A71984  12.167  19.391  13.565  0.0048 -0.1126 -0.1953
35500POPC   D2A71985  12.005  19.715  13.845 -0.2001  0.1106  0.1057
35500POPC   C3A71986  11.909  20.132  13.927  0.1780 -0.5012 -0.1743
35500POPC   C4A71987  11.754  20.560  14.056  0.0985  0.1984  0.0276
35500POPC   C1B71988  11.567  19.138  13.165 -0.2600  0.1520 -0.0977
35500POPC   C2B71989  11.238  19.396  13.328  0.2246 -0.2076  0.1675
35500POPC   C3B71990  10.854  19.420  13.544  0.2084 -0.2034  0.1935
35500POPC   C4B71991  10.583  19.542  13.868 -0.3359 -0.3353  0.2660
35501POPC   NC371992  15.800  31.043  16.845 -0.2359 -0.1567  0.3540
35501POPC   PO471993  15.803  30.731  16.577  0.2232  0.2723  0.2415
35501POPC   GL171994  15.893  30.672  17.055 -0.2411  0.0339 -0.1046
35501POPC   GL271995  16.013  30.375  17.106  0.0305 -0.7277  0.2065
35501POPC   C1A71996  15.810  30.978  17.407  0.1407  0.0845  0.3066
35501POPC   D2A71997  15.535  30.905  17.763 -0.1293 -0.1090  0.1044
35501POPC   C3A71998  15.689  30.779  18.223 -0.0035 -0.3649  0.1033
35501POPC   C4A71999  15.891  30.486  18.575 -0.2210 -0.1906  0.3278
35501POPC   C1B72000  15.886  30.377  17.561  0.3696  0.4220  0.1714
35501POPC   C2B72001  15.908  30.295  18.023  0.0848  0.0499 -0.3872
35501POPC   C3B72002  15.813  30.049  18.408  0.0689 -0.2250  0.0437
35501POPC   C4B72003  15.449  30.090  18.708  0.0656  0.0897 -0.4046
35502POPC   NC372004   9.398  27.859  11.303  0.2770  0.1109 -0.1100
35502POPC   PO472005   9.139  27.623  11.146  0.3033 -0.3447  0.1583
35502POPC   GL172006   8.934  27.292  11.194 -0.0560  0.3672 -0.1526
35502POPC   GL272007   9.186  27.196  11.445 -0.3229  0.0480 -0.2075
35502POPC   C1A72008   9.243  26.992  11.009 -0.3564  0.2802  0.1347
35502POPC   D2A72009   9.415  26.582  10.742 -0.3053 -0.2205  0.1540
35502POPC   C3A72010   9.775  26.350  10.577 -0.2355 -0.1711  0.1516
35502POPC   C4A72011   9.883  26.203  10.134  0.0505 -0.0634 -0.1995
35502POPC   C1B72012   8.951  26.847  11.381  0.0420  0.0118 -0.0318
35502POPC   C2B72013   9.146  26.445  11.216 -0.0707  0.1317 -0.0514
35502POPC   C3B72014   9.375  26.152  10.962 -0.2094 -0.2313  0.1142
35502POPC   C4B72015   9.771  25.936  10.842 -0.5146  0.1457  0.0931
35503POPC   NC372016   6.993  18.528  11.806  0.0448 -0.0691 -0.0903
35503POPC   PO472017   6.607  18.588  11.842 -0.0792 -0.1996 -0.0307
35503POPC   GL172018   6.699  19.012  11.767 -0.0363 -0.0042 -0.0732
35503POPC   GL272019   6.960  19.008  11.704 -0.1139  0.1996  0.0332
35503POPC   C1A72020   6.730  19.371  11.461  0.1903 -0.0713  0.2116
35503POPC   D2A72021   6.824  19.827  11.521 -0.1581 -0.0223  0.2700
35503POPC   C3A72022   7.018  20.122  11.231  0.3121  0.0108  0.0092
35503POPC   C4A72023   7.345  20.466  11.197  0.1416  0.2390 -0.0529
35503POPC   C1B72024   7.432  19.067  11.820  0.0825  0.0990  0.0443
35503POPC   C2B72025   7.764  19.368  12.005  0.1310 -0.0069 -0.0363
35503POPC   C3B72026   7.850  19.760  12.222 -0.0220 -0.0092  0.1547
35503POPC   C4B72027   8.231  19.920  12.159  0.0302  0.3001 -0.3269
35504POPC   NC372028  14.329  16.010  15.819  0.1067  0.0461  0.0947
35504POPC   PO472029  14.645  16.052  16.021  0.0617 -0.1679  0.0546
35504POPC   GL172030  14.451  15.956  16.319 -0.1393  0.1568 -0.0266
35504POPC   GL272031  14.170  15.932  16.316  0.0587 -0.0644 -0.1585
35504POPC   C1A72032  14.372  16.185  16.724  0.0513 -0.1599  0.0249
35504POPC   D2A72033  14.566  16.059  17.154  0.0550 -0.0421 -0.2970
35504POPC   C3A72034  14.655  16.309  17.556 -0.0222 -0.1453  0.1955
35504POPC   C4A72035  14.831  16.599  17.861 -0.0383  0.2380 -0.0499
35504POPC   C1B72036  13.952  16.346  16.496 -0.1723 -0.1601  0.0655
35504POPC   C2B72037  13.771  16.593  16.862 -0.2038  0.1706  0.1159
35504POPC   C3B72038  13.512  16.744  17.211 -0.2955 -0.0425 -0.1573
35504POPC   C4B72039  13.226  16.563  17.546 -0.1296 -0.0057 -0.2377
35505POPC   NC372040   1.137  28.271  16.041 -0.1416 -0.3660  0.1812
35505POPC   PO472041   0.802  28.464  16.175 -0.0911 -0.2624 -0.0903
35505POPC   GL172042   1.003  28.533  16.588  0.1942  0.1322  0.0889
35505POPC   GL272043   1.049  28.817  16.579 -0.0208 -0.0075  0.1944
35505POPC   C1A72044   0.943  28.306  17.002 -0.0676 -0.1773 -0.0106
35505POPC   D2A72045   0.854  28.110  17.388 -0.1242  0.0113 -0.4454
35505POPC   C3A72046   0.485  27.991  17.503  0.0191 -0.4760 -0.1626
35505POPC   C4A72047   0.218  27.943  17.851 -0.2990 -0.0626 -0.2957
35505POPC   C1B72048   0.937  28.822  16.976  0.1018 -0.1623 -0.4608
35505POPC   C2B72049   0.808  28.617  17.403 -0.4217  0.1303 -0.0842
35505POPC   C3B72050   0.767  28.411  17.817  0.1368  0.3005 -0.0983
35505POPC   C4B72051   1.045  28.240  18.189  0.1003  0.2384  0.2400
35506POPC   NC372052   5.397   0.081  15.676  0.0452 -0.0730  0.0367
35506POPC   PO472053   5.262  -0.243  15.907 -0.0516  0.1815 -0.3279
35506POPC   GL172054   5.426  -0.136  16.267 -0.0089  0.4853  0.3387
35506POPC   GL272055   5.331  -0.314  16.458 -0.1906 -0.0692 -0.1337
35506POPC   C1A72056   5.626   0.020  16.675 -0.1200 -0.1877  0.0858
35506POPC   D2A72057   6.001   0.224  16.785  0.0569 -0.1304  0.0571
35506POPC   C3A72058   6.271   0.036  17.149  0.1651 -0.1189 -0.2826
35506POPC   C4A72059   6.660   0.075  17.508 -0.1725  0.1399 -0.0072
35506POPC   C1B72060   5.475  -0.369  16.898 -0.1624 -0.1056 -0.2157
35506POPC   C2B72061   5.635  -0.007  17.191  0.0808  0.2965  0.0215
35506POPC   C3B72062   5.735   0.437  17.409  0.0589  0.0949 -0.0392
35506POPC   C4B72063   5.756   0.841  17.662  0.1307  0.1970  0.1718
35507POPC   NC372064  15.756  28.369  16.475 -0.2521  0.0911 -0.1958
35507POPC   PO472065  16.076  28.355  16.654 -0.4931 -0.2263  0.0570
35507POPC   GL172066  16.211  28.413  17.000 -0.1396 -0.4414  0.3596
35507POPC   GL272067  16.166  28.622  17.186  0.3417 -0.0086  0.0099
35507POPC   C1A72068  16.449  28.269  17.370  0.0485 -0.1420 -0.1674
35507POPC   D2A72069  16.708  28.049  17.717 -0.0552  0.2813  0.4205
35507POPC   C3A72070  16.689  28.002  18.183 -0.3984 -0.0382  0.0707
35507POPC   C4A72071  16.959  27.716  18.381  0.3179 -0.1629  0.1789
35507POPC   C1B72072  16.055  28.837  17.537 -0.0496  0.1320 -0.0927
35507POPC   C2B72073  16.272  28.916  17.943  0.0453  0.0641  0.2634
35507POPC   C3B72074  16.466  28.876  18.317 -0.0090  0.0149 -0.2205
35507POPC   C4B72075  16.868  28.706  18.417 -0.1274  0.0678 -0.0836
35508POPC   NC372076   5.748  28.551  16.367 -0.0005 -0.1021 -0.1195
35508POPC   PO472077   5.809  28.508  16.777 -0.0981  0.1368 -0.1310
35508POPC   GL172078   5.854  28.601  17.184 -0.1593 -0.1480  0.1939
35508POPC   GL272079   5.638  28.500  17.225  0.0897 -0.1280  0.0524
35508POPC   C1A72080   5.896  28.777  17.575  0.0614 -0.0050 -0.0446
35508POPC   D2A72081   5.933  28.527  17.970  0.1510 -0.1178 -0.1174
35508POPC   C3A72082   5.696  28.538  18.323 -0.0768 -0.1215  0.4354
35508POPC   C4A72083   5.426  28.590  18.650 -0.0569  0.1889  0.1031
35508POPC   C1B72084   5.606  28.388  17.684  0.1181  0.2676  0.2379
35508POPC   C2B72085   5.350  28.330  18.057 -0.0769 -0.1214 -0.1571
35508POPC   C3B72086   4.936  28.525  18.219  0.1580 -0.1239  0.2037
35508POPC   C4B72087   4.561  28.290  18.389  0.1477 -0.0776 -0.0438
35509POPC   NC372088  14.749  21.795  12.799  0.3243 -0.2057  0.3814
35509POPC   PO472089  14.874  21.878  13.166  0.1792 -0.1482  0.1173
35509POPC   GL172090  14.486  22.004  13.161  0.1096  0.0473 -0.0838
35509POPC   GL272091  14.297  22.208  13.289 -0.2279  0.2206  0.0367
35509POPC   C1A72092  14.152  21.822  12.913 -0.1381  0.2280 -0.3332
35509POPC   D2A72093  13.683  21.794  12.802 -0.2223 -0.3464 -0.0720
35509POPC   C3A72094  13.256  21.963  12.827 -0.0272  0.1979  0.0412
35509POPC   C4A72095  12.869  22.017  12.661  0.1019 -0.3392 -0.0780
35509POPC   C1B72096  13.818  22.056  13.250  0.1163  0.2426  0.0378
35509POPC   C2B72097  13.461  21.755  13.315  0.0494  0.1099  0.3474
35509POPC   C3B72098  13.038  21.771  13.212  0.3437  0.3053 -0.2238
35509POPC   C4B72099  12.613  22.026  13.310  0.2541  0.0408 -0.2829
35510POPC   NC372100  13.459  27.168  15.588  0.0487  0.1894  0.0797
35510POPC   PO472101  13.129  27.135  15.827  0.1232  0.1123  0.2913
35510POPC   GL172102  13.140  26.962  16.207  0.0090  0.1834 -0.0960
35510POPC   GL272103  12.874  26.973  16.277  0.1661  0.3284  0.0619
35510POPC   C1A72104  13.220  26.562  16.346 -0.4627 -0.3168 -0.0681
35510POPC   D2A72105  13.532  26.277  16.635  0.0460 -0.2392  0.2247
35510POPC   C3A72106  13.386  25.997  16.965  0.0997  0.3618  0.2612
35510POPC   C4A72107  13.307  25.578  16.786 -0.1937 -0.0042 -0.0331
35510POPC   C1B72108  12.685  26.702  16.602  0.0886  0.2311  0.1625
35510POPC   C2B72109  12.467  26.524  16.989  0.1133  0.1149 -0.1950
35510POPC   C3B72110  12.259  26.113  17.060 -0.2361  0.1359  0.0181
35510POPC   C4B72111  12.457  25.703  17.131 -0.1155  0.0638  0.2060
35511POPC   NC372112   5.711  29.797  16.523  0.2260 -0.1141  0.0312
35511POPC   PO472113   6.029  29.835  16.746  0.3320  0.1792 -0.0085
35511POPC   GL172114   6.011  29.980  17.062  0.0248 -0.4258 -0.3249
35511POPC   GL272115   5.818  30.167  17.155  0.0112  0.4146 -0.0349
35511POPC   C1A72116   5.795  29.826  17.492  0.1736 -0.1644  0.1521
35511POPC   D2A72117   5.824  29.790  17.930 -0.1817 -0.2752 -0.1159
35511POPC   C3A72118   6.065  30.072  18.266  0.0854  0.2085 -0.1609
35511POPC   C4A72119   6.047  30.423  18.636 -0.0765 -0.1889 -0.2701
35511POPC   C1B72120   5.643  30.280  17.511  0.0265  0.1531 -0.0557
35511POPC   C2B72121   5.799  30.542  17.871  0.0196  0.2487  0.1008
35511POPC   C3B72122   5.847  30.778  18.274  0.1612  0.0547 -0.0684
35511POPC   C4B72123   5.590  30.789  18.681 -0.1352  0.3000 -0.0858
35512POPC   NC372124   8.192  26.773  15.918 -0.2441  0.1030  0.0213
35512POPC   PO472125   8.237  27.132  15.724  0.4371 -0.1517 -0.3450
35512POPC   GL172126   8.532  27.104  15.981  0.2745  0.1085  0.3412
35512POPC   GL272127   8.463  27.064  16.259 -0.0015 -0.2166 -0.0540
35512POPC   C1A72128   8.672  26.631  16.096 -0.0721  0.0476  0.0476
35512POPC   D2A72129   8.938  26.329  15.973 -0.1641  0.1036  0.1303
35512POPC   C3A72130   8.998  26.030  16.294 -0.0442  0.1802  0.1203
35512POPC   C4A72131   8.798  25.853  16.690  0.2154 -0.0178 -0.0647
35512POPC   C1B72132   8.697  27.263  16.567  0.0979  0.0005 -0.0715
35512POPC   C2B72133   8.971  27.027  16.833 -0.1361  0.0332 -0.2484
35512POPC   C3B72134   8.882  26.754  17.166 -0.0948 -0.0195  0.2645
35512POPC   C4B72135   8.716  26.837  17.573  0.2153  0.0638 -0.1358
35513POPC   NC372136  13.445  32.012   8.769 -0.1026  0.1401  0.4839
35513POPC   PO472137  13.159  32.210   8.859  0.1071  0.1673  0.1769
35513POPC   GL172138  13.064  32.319   8.500  0.2125  0.0133  0.0537
35513POPC   GL272139  13.044  32.615   8.456 -0.2135 -0.1138  0.3544
35513POPC   C1A72140  12.983  32.161   8.054 -0.0636 -0.3223 -0.1324
35513POPC   D2A72141  12.644  32.150   7.805 -0.0828 -0.1343 -0.2761
35513POPC   C3A72142  12.714  31.963   7.388  0.3047  0.0246  0.0923
35513POPC   C4A72143  12.876  32.209   7.027 -0.0041  0.0881  0.0763
35513POPC   C1B72144  13.088  32.711   8.001  0.0999  0.2457  0.1455
35513POPC   C2B72145  13.100  32.864   7.567 -0.1535 -0.1646  0.2684
35513POPC   C3B72146  13.160  33.223   7.296 -0.0800 -0.0745 -0.2359
35513POPC   C4B72147  13.296  33.238   6.867  0.0929  0.3728  0.1143
35514POPC   NC372148  17.651  24.182  15.451  0.0971  0.1462 -0.1462
35514POPC   PO472149  17.434  23.900  15.608 -0.0247 -0.2455 -0.0921
35514POPC   GL172150  17.356  23.750  15.886 -0.5506 -0.1891 -0.0788
35514POPC   GL272151  17.103  23.901  16.006  0.0313 -0.0898 -0.0901
35514POPC   C1A72152  17.371  23.751  16.362 -0.1559  0.2674  0.0972
35514POPC   D2A72153  17.289  23.853  16.755  0.0063  0.0294 -0.3179
35514POPC   C3A72154  17.224  23.793  17.236 -0.0832  0.0274  0.2265
35514POPC   C4A72155  17.172  23.972  17.658  0.3096  0.2598 -0.1220
35514POPC   C1B72156  16.871  23.983  16.463 -0.1187 -0.0452  0.3095
35514POPC   C2B72157  16.831  23.853  16.892  0.0917  0.2374 -0.3061
35514POPC   C3B72158  16.706  23.726  17.272  0.0002 -0.1624 -0.0350
35514POPC   C4B72159  16.577  23.836  17.663  0.0753  0.1256 -0.1052
35515POPC   NC372160  13.189  19.145  12.312 -0.0480 -0.0079 -0.0990
35515POPC   PO472161  13.267  19.009  12.682  0.0244  0.0003  0.2191
35515POPC   GL172162  12.988  19.235  12.941  0.0096  0.0479  0.1412
35515POPC   GL272163  12.744  19.332  13.015 -0.2750 -0.0529 -0.2199
35515POPC   C1A72164  13.039  19.625  13.197 -0.0272 -0.0161  0.2288
35515POPC   D2A72165  12.930  19.977  13.505  0.0457 -0.0267  0.0867
35515POPC   C3A72166  13.055  20.242  13.874 -0.0726  0.0921 -0.2216
35515POPC   C4A72167  13.248  20.298  14.304 -0.2462  0.1173  0.4341
35515POPC   C1B72168  12.562  19.606  13.319  0.1663  0.0330  0.3715
35515POPC   C2B72169  12.188  19.902  13.420 -0.1329 -0.1406 -0.3676
35515POPC   C3B72170  11.938  20.255  13.462 -0.3062 -0.0048 -0.0543
35515POPC   C4B72171  11.672  20.661  13.573 -0.1508 -0.2715 -0.0177
35516POPC   NC372172   6.930  30.817  16.170 -0.1949  0.1365  0.3709
35516POPC   PO472173   7.081  31.149  16.073  0.0894  0.3247 -0.2053
35516POPC   GL172174   6.866  31.286  16.422  0.0415 -0.0046  0.2970
35516POPC   GL272175   6.857  31.085  16.551 -0.1377 -0.1954 -0.1171
35516POPC   C1A72176   7.097  31.430  16.801  0.1905  0.2695  0.1565
35516POPC   D2A72177   7.130  31.760  17.125  0.0005 -0.1325  0.0537
35516POPC   C3A72178   7.010  31.647  17.528 -0.0738 -0.0297 -0.1276
35516POPC   C4A72179   6.637  31.548  17.777  0.0891 -0.0790  0.1233
35516POPC   C1B72180   6.588  31.207  17.013 -0.2233 -0.1057 -0.1376
35516POPC   C2B72181   6.395  31.192  17.426  0.0533  0.0688  0.1458
35516POPC   C3B72182   6.145  31.488  17.743 -0.1189  0.2249 -0.1304
35516POPC   C4B72183   6.254  31.669  18.158 -0.2444  0.2214 -0.0835
35517POPC   NC372184  13.825  26.863  15.804  0.2122  0.3056 -0.1650
35517POPC   PO472185  14.148  27.103  15.656 -0.0413  0.2791 -0.0196
35517POPC   GL172186  14.377  26.973  16.018 -0.0967 -0.2963 -0.1770
35517POPC   GL272187  14.237  26.741  16.085  0.3366  0.0119  0.0411
35517POPC   C1A72188  14.305  27.012  16.487 -0.3403  0.0720 -0.0009
35517POPC   D2A72189  14.480  27.104  16.919 -0.4380  0.3299  0.0197
35517POPC   C3A72190  14.312  26.822  17.216  0.3221 -0.1030 -0.2516
35517POPC   C4A72191  13.946  26.777  17.462  0.1640  0.1869  0.1680
35517POPC   C1B72192  14.111  26.517  16.492 -0.0438  0.0820 -0.4019
35517POPC   C2B72193  14.087  26.306  16.928 -0.0851  0.3132  0.1697
35517POPC   C3B72194  13.967  25.909  17.189  0.1116 -0.2849 -0.1708
35517POPC   C4B72195  13.660  25.574  17.153  0.0704 -0.1706  0.1962
35518POPC   NC372196  13.952  24.754  13.693 -0.0646  0.0270 -0.0374
35518POPC   PO472197  13.645  24.985  13.710 -0.0623 -0.0323  0.1295
35518POPC   GL172198  13.486  24.646  13.770  0.3683 -0.1360  0.1562
35518POPC   GL272199  13.470  24.546  14.062 -0.1053  0.0344  0.0716
35518POPC   C1A72200  13.038  24.468  13.884 -0.0371 -0.2990 -0.3216
35518POPC   D2A72201  12.631  24.355  14.062 -0.0761 -0.0495 -0.1759
35518POPC   C3A72202  12.498  24.595  14.406  0.0655 -0.2677 -0.0712
35518POPC   C4A72203  12.280  24.781  14.736 -0.1885 -0.1751 -0.0445
35518POPC   C1B72204  13.364  24.614  14.477 -0.2276 -0.0468 -0.0800
35518POPC   C2B72205  13.078  24.682  14.840 -0.1634 -0.1480 -0.0577
35518POPC   C3B72206  12.667  24.464  14.907  0.0546 -0.0433  0.2016
35518POPC   C4B72207  12.388  24.162  14.660 -0.2667  0.1885  0.0893
35519POPC   NC372208  16.127  17.892  15.969  0.0047 -0.0864 -0.2944
35519POPC   PO472209  16.014  17.522  16.051  0.2503  0.0380 -0.1218
35519POPC   GL172210  15.941  17.711  16.444 -0.0294 -0.4157 -0.0845
35519POPC   GL272211  15.994  18.070  16.503 -0.0693  0.0347 -0.1372
35519POPC   C1A72212  15.960  17.601  16.891  0.1742 -0.0510  0.0314
35519POPC   D2A72213  15.882  17.732  17.279  0.1610 -0.0701 -0.2865
35519POPC   C3A72214  15.527  17.618  17.538  0.1745  0.3254 -0.0412
35519POPC   C4A72215  15.150  17.637  17.831  0.1490  0.0465 -0.1832
35519POPC   C1B72216  15.963  18.128  16.943  0.2430 -0.1947  0.2014
35519POPC   C2B72217  15.806  18.511  17.270 -0.1176  0.0925 -0.1220
35519POPC   C3B72218  15.865  18.832  17.633 -0.1563  0.1768 -0.0284
35519POPC   C4B72219  15.633  19.065  17.960 -0.0842 -0.1358  0.1203
35520POPC   NC372220  16.561  21.854  15.337 -0.1829 -0.2772  0.1999
35520POPC   PO472221  16.351  22.182  15.281  0.1121  0.0151 -0.0855
35520POPC   GL172222  16.188  22.444  15.638 -0.5558 -0.4636  0.2656
35520POPC   GL272223  16.319  22.710  15.620 -0.2536 -0.0153 -0.1788
35520POPC   C1A72224  16.121  22.487  16.109 -0.0484  0.2856  0.2039
35520POPC   D2A72225  16.017  22.524  16.510  0.2305 -0.1692  0.1892
35520POPC   C3A72226  16.293  22.296  16.749 -0.1003  0.1075  0.3592
35520POPC   C4A72227  16.458  21.912  16.863 -0.1878 -0.1915 -0.0435
35520POPC   C1B72228  16.057  22.946  15.945  0.1027 -0.2128  0.1621
35520POPC   C2B72229  15.817  23.031  16.263  0.1301  0.0477  0.1908
35520POPC   C3B72230  15.891  23.048  16.696  0.2678  0.2474 -0.1920
35520POPC   C4B72231  15.911  22.647  16.997 -0.1430 -0.0653  0.1197
35521POPC   NC372232  11.686  26.682  14.938  0.2004 -0.2181  0.2007
35521POPC   PO472233  11.586  27.043  14.965 -0.1759  0.1638 -0.2457
35521POPC   GL172234  11.531  26.891  15.365  0.0316 -0.0763  0.4605
35521POPC   GL272235  11.235  26.893  15.391  0.1385  0.0082  0.0534
35521POPC   C1A72236  11.644  27.062  15.812 -0.1476  0.1691  0.1313
35521POPC   D2A72237  11.662  26.862  16.221 -0.2372 -0.1840 -0.0992
35521POPC   C3A72238  11.822  26.443  16.233  0.0660  0.0751 -0.0441
35521POPC   C4A72239  11.845  26.104  16.544 -0.1450 -0.1313 -0.2454
35521POPC   C1B72240  11.161  26.630  15.812 -0.4651  0.2255  0.4089
35521POPC   C2B72241  11.228  26.389  16.157  0.2703 -0.2561 -0.2126
35521POPC   C3B72242  11.420  26.320  16.585  0.2088  0.0323 -0.0555
35521POPC   C4B72243  11.403  25.863  16.562 -0.2003 -0.1811  0.0226
35522POPC   NC372244   5.997  28.979  16.718  0.2032 -0.0670  0.2277
35522POPC   PO472245   6.207  28.759  16.492 -0.2384 -0.1391 -0.2512
35522POPC   GL172246   6.427  28.749  16.837  0.1079  0.2521 -0.0421
35522POPC   GL272247   6.685  28.777  16.802 -0.1762  0.0963  0.3073
35522POPC   C1A72248   6.301  28.459  17.147  0.1939  0.1424  0.0022
35522POPC   D2A72249   6.050  28.294  17.475 -0.1571 -0.2859 -0.0813
35522POPC   C3A72250   6.183  28.095  17.832 -0.0545 -0.0351  0.0649
35522POPC   C4A72251   6.153  28.201  18.301  0.0693 -0.0491  0.2227
35522POPC   C1B72252   6.756  28.551  17.239  0.2355  0.1816 -0.2208
35522POPC   C2B72253   6.491  28.395  17.634 -0.1897  0.1786  0.0701
35522POPC   C3B72254   6.571  28.349  18.118  0.0313  0.1017  0.2304
35522POPC   C4B72255   6.820  28.314  18.481  0.0058 -0.2454 -0.0179
35523POPC   NC372256  14.526  21.492  13.178 -0.2087 -0.1981 -0.0891
35523POPC   PO472257  14.590  21.524  13.548  0.0190 -0.3330 -0.2783
35523POPC   GL172258  14.293  21.757  13.429 -0.2111 -0.0621  0.2574
35523POPC   GL272259  14.084  21.597  13.415  0.2192  0.3533  0.3400
35523POPC   C1A72260  14.007  21.950  13.769  0.2218 -0.0462 -0.0263
35523POPC   D2A72261  13.733  21.850  14.085 -0.1495 -0.1942 -0.0888
35523POPC   C3A72262  13.413  22.063  14.379 -0.1968 -0.0565  0.0925
35523POPC   C4A72263  13.122  22.338  14.619  0.0170  0.2877 -0.4910
35523POPC   C1B72264  13.700  21.505  13.707  0.2807  0.0808  0.0280
35523POPC   C2B72265  13.352  21.537  13.993  0.2728  0.0966  0.1640
35523POPC   C3B72266  13.134  21.950  14.028  0.1386 -0.0104  0.1207
35523POPC   C4B72267  13.127  22.396  14.132  0.4589  0.2383 -0.1400
35524POPC   NC372268  14.915  21.855  11.363  0.3460 -0.3644  0.2099
35524POPC   PO472269  14.808  21.536  11.100  0.4519  0.1655  0.0284
35524POPC   GL172270  14.605  21.796  10.836 -0.0590  0.0535 -0.0872
35524POPC   GL272271  14.426  21.500  10.744 -0.2953 -0.0871 -0.1646
35524POPC   C1A72272  14.230  22.028  10.723 -0.1534 -0.2178  0.0655
35524POPC   D2A72273  13.794  22.125  10.839  0.1060 -0.3392 -0.0436
35524POPC   C3A72274  13.451  22.313  10.545 -0.0515 -0.2385  0.0175
35524POPC   C4A72275  13.054  22.296  10.266 -0.1570 -0.2490 -0.0454
35524POPC   C1B72276  14.002  21.620  10.846  0.3502  0.0792  0.3494
35524POPC   C2B72277  13.571  21.704  10.922  0.0416 -0.1877  0.0014
35524POPC   C3B72278  13.288  22.018  10.993  0.0275 -0.2178  0.1529
35524POPC   C4B72279  12.934  22.166  11.241 -0.0786 -0.3962 -0.1141
35525POPC   NC372280   3.039  23.050  15.331  0.0317  0.0152 -0.0486
35525POPC   PO472281   3.162  23.278  15.657 -0.0719 -0.1913  0.1373
35525POPC   GL172282   3.249  23.254  16.002 -0.3053  0.2532  0.2005
35525POPC   GL272283   3.555  23.450  15.983  0.0036  0.2396  0.0426
35525POPC   C1A72284   3.233  23.170  16.429 -0.0022  0.4014 -0.1334
35525POPC   D2A72285   3.445  23.251  16.804 -0.0061  0.1639 -0.2824
35525POPC   C3A72286   3.829  23.275  17.008  0.2426  0.1196  0.0986
35525POPC   C4A72287   4.115  23.428  17.288 -0.1172  0.0965 -0.1969
35525POPC   C1B72288   3.647  23.525  16.467 -0.0349  0.0944  0.1922
35525POPC   C2B72289   4.061  23.662  16.625  0.0532 -0.3071  0.2037
35525POPC   C3B72290   4.296  23.853  16.949  0.2880  0.0485 -0.1173
35525POPC   C4B72291   4.356  23.940  17.431 -0.6136 -0.0879 -0.0048
35526POPC   NC372292   8.895  27.198  13.581  0.0965 -0.0816  0.1018
35526POPC   PO472293   8.658  26.930  13.493 -0.0008 -0.0572  0.2568
35526POPC   GL172294   8.807  26.558  13.267 -0.0563 -0.5514  0.2043
35526POPC   GL272295   8.989  26.448  13.142  0.3648 -0.1697  0.3306
35526POPC   C1A72296   8.846  26.112  13.417 -0.0873  0.0779 -0.1297
35526POPC   D2A72297   8.843  25.653  13.429  0.1840 -0.0251  0.1759
35526POPC   C3A72298   9.218  25.357  13.485  0.1517  0.0709 -0.0098
35526POPC   C4A72299   9.196  25.095  13.863 -0.2227  0.0872 -0.1365
35526POPC   C1B72300   9.214  26.052  13.110 -0.1179  0.0898  0.1464
35526POPC   C2B72301   9.294  25.607  12.995 -0.1689 -0.1558 -0.0769
35526POPC   C3B72302   9.093  25.181  13.030 -0.2842  0.0201 -0.1065
35526POPC   C4B72303   9.063  24.879  13.379  0.1314  0.1925 -0.1125
35527POPC   NC372304   7.485  26.439  15.740 -0.1087  0.1521 -0.0452
35527POPC   PO472305   7.830  26.458  15.932 -0.2263  0.1763 -0.0197
35527POPC   GL172306   8.170  26.301  15.971 -0.1356  0.2147  0.3262
35527POPC   GL272307   8.417  26.311  15.816 -0.2099  0.2169  0.1525
35527POPC   C1A72308   8.453  26.172  16.289 -0.0004 -0.2880 -0.0846
35527POPC   D2A72309   8.729  26.335  16.663  0.0285 -0.1835 -0.3464
35527POPC   C3A72310   8.614  26.731  16.619  0.2275  0.0465 -0.1335
35527POPC   C4A72311   8.203  26.968  16.671 -0.1189 -0.0873 -0.1432
35527POPC   C1B72312   8.656  25.892  15.852 -0.0909 -0.1052 -0.4815
35527POPC   C2B72313   9.011  25.628  15.840  0.2732 -0.0804  0.2988
35527POPC   C3B72314   9.425  25.357  15.841  0.0638  0.1177 -0.0507
35527POPC   C4B72315   9.823  25.161  15.681  0.4559 -0.1276  0.2492
35528POPC   NC372316   6.872  32.482  15.447  0.0918  0.1745 -0.1286
35528POPC   PO472317   6.590  32.413  15.717  0.2922 -0.0852  0.1071
35528POPC   GL172318   6.551  32.394  16.147  0.1418 -0.0888  0.0102
35528POPC   GL272319   6.355  32.329  16.337  0.0833  0.2067 -0.0996
35528POPC   C1A72320   6.848  32.584  16.400  0.2840  0.2208 -0.0849
35528POPC   D2A72321   7.004  33.004  16.524  0.1994  0.1262  0.3140
35528POPC   C3A72322   7.392  33.227  16.611 -0.3089  0.1152 -0.0894
35528POPC   C4A72323   7.651  33.608  16.719  0.1880 -0.0332 -0.0907
35528POPC   C1B72324   6.464  32.578  16.692  0.1263 -0.0967  0.4501
35528POPC   C2B72325   6.754  32.634  17.048 -0.2784  0.2127  0.0525
35528POPC   C3B72326   7.075  32.671  17.401  0.4236  0.1576 -0.0632
35528POPC   C4B72327   7.170  32.616  17.858  0.1850 -0.4012  0.1204
35529POPC   NC372328   3.288  25.785  16.020  0.0523 -0.1961  0.1138
35529POPC   PO472329   2.904  25.798  15.887 -0.0067 -0.1712 -0.1458
35529POPC   GL172330   2.939  25.700  16.320  0.2549 -0.1139 -0.0713
35529POPC   GL272331   2.874  25.953  16.513  0.2177  0.0776 -0.0156
35529POPC   C1A72332   3.282  25.454  16.543 -0.1455 -0.1661 -0.2178
35529POPC   D2A72333   3.185  25.232  16.947 -0.1909  0.0396 -0.2267
35529POPC   C3A72334   3.226  25.328  17.401  0.3863  0.0403 -0.0478
35529POPC   C4A72335   2.966  25.631  17.610  0.0267 -0.0353 -0.1984
35529POPC   C1B72336   2.603  26.013  16.834  0.0873  0.1252  0.0191
35529POPC   C2B72337   2.681  25.937  17.295  0.0525 -0.0356  0.1724
35529POPC   C3B72338   2.516  25.989  17.719  0.0646 -0.2248  0.0722
35529POPC   C4B72339   2.794  25.880  18.079 -0.0012 -0.2106  0.0231
35530POPC   NC372340   2.531  28.161  16.418 -0.0377  0.0349 -0.0679
35530POPC   PO472341   2.765  27.842  16.452 -0.2693 -0.1176  0.3181
35530POPC   GL172342   2.736  28.036  16.800 -0.0813 -0.5404 -0.0539
35530POPC   GL272343   2.883  28.328  16.924 -0.0859  0.1503 -0.3464
35530POPC   C1A72344   2.996  27.877  17.219 -0.3475  0.0852  0.2937
35530POPC   D2A72345   3.316  27.728  17.577  0.0354 -0.1240  0.2475
35530POPC   C3A72346   3.151  27.764  18.016 -0.1334 -0.0771 -0.0512
35530POPC   C4A72347   2.910  27.541  18.326 -0.1496 -0.0971 -0.0349
35530POPC   C1B72348   2.630  28.267  17.328  0.0342 -0.2981  0.0173
35530POPC   C2B72349   2.502  28.088  17.709 -0.0061 -0.0729 -0.2203
35530POPC   C3B72350   2.512  28.128  18.151 -0.3393 -0.0146  0.1965
35530POPC   C4B72351   2.529  27.959  18.584 -0.0545  0.1045  0.0297
35531POPC   NC372352   4.001  16.535  15.502 -0.1157  0.1993  0.0357
35531POPC   PO472353   3.883  16.341  15.812 -0.0415  0.0669 -0.3217
35531POPC   GL172354   3.918  16.323  16.199 -0.0250  0.2381 -0.0066
35531POPC   GL272355   3.798  16.138  16.451  0.1425  0.4993 -0.0175
35531POPC   C1A72356   3.932  16.634  16.554  0.0486  0.1609  0.0605
35531POPC   D2A72357   4.207  16.721  16.890 -0.3735  0.0477  0.1232
35531POPC   C3A72358   4.073  16.883  17.329 -0.5056  0.2064  0.1573
35531POPC   C4A72359   4.176  16.763  17.750  0.1020  0.0397 -0.0758
35531POPC   C1B72360   3.705  16.137  16.959 -0.2085  0.3655  0.0815
35531POPC   C2B72361   3.635  16.083  17.374 -0.0990  0.1513 -0.1239
35531POPC   C3B72362   3.763  16.223  17.727  0.1814 -0.1680  0.1582
35531POPC   C4B72363   3.680  16.700  17.831  0.0800 -0.1881  0.0109
35532POPC   NC372364   3.227  27.087  16.286  0.2329  0.1106  0.4472
35532POPC   PO472365   2.952  27.051  16.556 -0.0488 -0.0902 -0.0921
35532POPC   GL172366   2.745  26.895  16.890  0.5737  0.4297  0.0401
35532POPC   GL272367   2.996  26.901  17.060 -0.0244 -0.1300 -0.2136
35532POPC   C1A72368   2.557  26.850  17.293 -0.3519 -0.1704  0.1423
35532POPC   D2A72369   2.659  26.820  17.755 -0.1496 -0.1985  0.2027
35532POPC   C3A72370   2.710  27.248  17.861 -0.2399 -0.0056 -0.0588
35532POPC   C4A72371   2.448  27.563  18.087  0.0877  0.2850  0.1110
35532POPC   C1B72372   3.095  26.796  17.481 -0.1491 -0.2251  0.4786
35532POPC   C2B72373   3.127  26.831  17.922 -0.2249  0.1005 -0.0195
35532POPC   C3B72374   3.373  26.788  18.321  0.3177 -0.2495 -0.2783
35532POPC   C4B72375   3.740  26.896  18.593  0.0213  0.0201 -0.0765
35533POPC   NC372376   3.148  31.193  16.397 -0.3538 -0.3522 -0.0415
35533POPC   PO472377   3.132  31.602  16.399  0.1066 -0.0063  0.0869
35533POPC   GL172378   3.218  31.547  16.793  0.1208 -0.0540 -0.3120
35533POPC   GL272379   3.277  31.251  16.878 -0.3959 -0.2149 -0.1186
35533POPC   C1A72380   2.982  31.591  17.206 -0.0772 -0.0258 -0.0961
35533POPC   D2A72381   3.033  31.660  17.719 -0.0625  0.0460  0.0736
35533POPC   C3A72382   2.809  31.460  18.098  0.1464 -0.0513 -0.1359
35533POPC   C4A72383   2.763  31.092  18.427  0.1023 -0.0577  0.0231
35533POPC   C1B72384   3.298  31.147  17.365 -0.0681  0.1142  0.5455
35533POPC   C2B72385   3.454  31.352  17.786  0.2096  0.0700  0.3103
35533POPC   C3B72386   3.708  31.285  18.187 -0.1486 -0.0849 -0.2976
35533POPC   C4B72387   3.750  31.506  18.511  0.0087 -0.3331  0.3491
35534POPC   NC372388  12.573  17.500  13.786 -0.2935  0.0639 -0.1687
35534POPC   PO472389  12.235  17.472  13.839  0.0720  0.2470  0.0589
35534POPC   GL172390  12.207  17.755  14.073 -0.0522  0.0780 -0.0274
35534POPC   GL272391  12.141  17.565  14.302  0.2513  0.1742 -0.2757
35534POPC   C1A72392  11.942  18.153  14.073  0.2651 -0.0757 -0.2494
35534POPC   D2A72393  11.920  18.629  14.063 -0.2318  0.2806 -0.1517
35534POPC   C3A72394  11.725  19.046  14.136  0.0242  0.0212  0.1936
35534POPC   C4A72395  11.495  19.415  14.228  0.0172  0.4717 -0.0436
35534POPC   C1B72396  12.179  18.019  14.491  0.1524  0.5383 -0.1744
35534POPC   C2B72397  11.821  18.280  14.508  0.3269 -0.3303  0.0101
35534POPC   C3B72398  11.571  18.647  14.631 -0.2981 -0.2586  0.1190
35534POPC   C4B72399  11.317  18.692  15.018  0.0943 -0.0337 -0.1046
35535POPC   NC372400   9.227  27.012  14.821 -0.4445  0.0486  0.0304
35535POPC   PO472401   8.856  26.867  14.842 -0.0350 -0.1241  0.2427
35535POPC   GL172402   8.898  26.521  14.762  0.5228 -0.1045 -0.0818
35535POPC   GL272403   8.757  26.323  14.570  0.2306  0.0088  0.2043
35535POPC   C1A72404   8.846  26.175  15.084 -0.2992 -0.4386 -0.0189
35535POPC   D2A72405   9.018  26.077  15.489 -0.1839  0.1057 -0.0305
35535POPC   C3A72406   9.393  25.856  15.438 -0.0831 -0.0445 -0.1499
35535POPC   C4A72407   9.814  25.764  15.664  0.0673 -0.1911  0.1115
35535POPC   C1B72408   8.774  25.855  14.640  0.1452  0.0743  0.2581
35535POPC   C2B72409   8.620  25.407  14.851 -0.1608  0.0175  0.1686
35535POPC   C3B72410   8.782  25.101  15.138  0.0301 -0.0473 -0.2070
35535POPC   C4B72411   8.966  25.019  15.557 -0.1315  0.0419  0.1004
35536POPC   NC372412   6.354  31.089  16.559  0.0158 -0.3663 -0.0168
35536POPC   PO472413   6.165  30.722  16.508  0.1371  0.1663  0.3012
35536POPC   GL172414   6.115  30.876  16.918 -0.0206 -0.1300 -0.0741
35536POPC   GL272415   6.337  30.686  17.032  0.1658  0.0594 -0.0825
35536POPC   C1A72416   6.101  31.295  16.978 -0.0792 -0.0737  0.5212
35536POPC   D2A72417   6.161  31.656  17.240  0.3532  0.0232 -0.3811
35536POPC   C3A72418   5.900  31.981  17.443 -0.3262  0.2652  0.1633
35536POPC   C4A72419   5.605  32.304  17.360  0.1403  0.4230  0.1739
35536POPC   C1B72420   6.665  30.759  17.392  0.1186  0.0465  0.1390
35536POPC   C2B72421   6.833  31.111  17.659 -0.1297  0.3235 -0.2096
35536POPC   C3B72422   6.878  31.164  18.086 -0.0998  0.0182  0.0588
35536POPC   C4B72423   7.160  31.282  18.411  0.1836  0.0910  0.2217
35537POPC   NC372424   9.883  28.024  16.375 -0.0823  0.0830 -0.0712
35537POPC   PO472425   9.681  28.323  16.212 -0.0288  0.0121 -0.2022
35537POPC   GL172426   9.552  28.278  16.631 -0.0959  0.0125 -0.1288
35537POPC   GL272427   9.578  28.471  16.900  0.1238  0.1925 -0.0010
35537POPC   C1A72428   9.524  27.959  16.953 -0.0208 -0.1256  0.0271
35537POPC   D2A72429   9.731  27.592  17.088 -0.3264  0.0278 -0.2357
35537POPC   C3A72430   9.896  27.608  17.531 -0.0587 -0.0062  0.0582
35537POPC   C4A72431  10.016  27.279  17.877  0.2140  0.2618  0.1277
35537POPC   C1B72432   9.405  28.287  17.293 -0.1081  0.0512 -0.0765
35537POPC   C2B72433   9.377  27.832  17.432 -0.2473 -0.0015 -0.3318
35537POPC   C3B72434   9.404  27.486  17.726  0.0767  0.1749  0.3007
35537POPC   C4B72435   9.289  27.447  18.179  0.3048 -0.2417  0.2148
35538POPC   NC372436  12.963  18.252  14.052  0.2780 -0.0362  0.0816
35538POPC   PO472437  12.740  18.016  13.807  0.0016  0.3542 -0.0439
35538POPC   GL172438  12.530  18.328  14.003 -0.0736 -0.0474  0.4371
35538POPC   GL272439  12.376  18.431  13.788 -0.3466  0.3139  0.1758
35538POPC   C1A72440  12.288  18.460  14.373 -0.3423 -0.0743  0.2304
35538POPC   D2A72441  12.082  18.804  14.545  0.0538 -0.1455  0.2155
35538POPC   C3A72442  11.837  19.212  14.588  0.3838 -0.1526 -0.1947
35538POPC   C4A72443  11.798  19.582  14.905 -0.0927  0.0126  0.3028
35538POPC   C1B72444  12.420  18.792  14.064  0.1574  0.2343  0.0258
35538POPC   C2B72445  12.241  19.187  14.238 -0.0254 -0.1300  0.0142
35538POPC   C3B72446  12.022  19.614  14.305 -0.5443  0.2284  0.0271
35538POPC   C4B72447  11.610  19.838  14.307 -0.2570 -0.1353 -0.2026
35539POPC   NC372448  14.965  31.005  16.388 -0.1125  0.2608 -0.1567
35539POPC   PO472449  15.306  30.839  16.539  0.1030  0.1770  0.0646
35539POPC   GL172450  15.367  30.707  16.919 -0.3406 -0.2266 -0.2287
35539POPC   GL272451  15.065  30.717  17.020 -0.2131 -0.0193  0.0454
35539POPC   C1A72452  15.513  30.640  17.331 -0.1711 -0.0091 -0.4354
35539POPC   D2A72453  15.418  30.450  17.775  0.1168 -0.1332  0.2866
35539POPC   C3A72454  15.520  30.044  17.803 -0.0772 -0.0867  0.1037
35539POPC   C4A72455  15.647  29.656  18.016  0.3037  0.4329  0.1974
35539POPC   C1B72456  15.089  30.847  17.527 -0.0426 -0.1592  0.2930
35539POPC   C2B72457  15.124  31.162  17.893 -0.1605 -0.1016  0.0330
35539POPC   C3B72458  15.461  31.290  18.250 -0.1965  0.1211  0.1667
35539POPC   C4B72459  15.558  31.521  18.684 -0.3106  0.0184 -0.2014
35540POPC   NC372460   8.377  28.007  15.787  0.3599 -0.2802  0.0753
35540POPC   PO472461   8.003  28.002  15.825  0.3708 -0.3874 -0.1032
35540POPC   GL172462   8.089  27.881  16.136 -0.0899  0.0643 -0.1923
35540POPC   GL272463   7.819  27.676  16.214 -0.1793  0.0332 -0.0676
35540POPC   C1A72464   8.298  27.984  16.559 -0.3122 -0.2135  0.3308
35540POPC   D2A72465   8.388  28.074  16.990 -0.1458 -0.1608  0.3979
35540POPC   C3A72466   8.451  27.749  17.337  0.0067  0.2651 -0.1883
35540POPC   C4A72467   8.294  27.348  17.489 -0.2844 -0.1573  0.0783
35540POPC   C1B72468   8.127  27.466  16.475  0.3088 -0.2988 -0.1965
35540POPC   C2B72469   8.366  27.391  16.916  0.1087 -0.2974  0.2248
35540POPC   C3B72470   8.487  27.025  17.137 -0.3048 -0.0157 -0.2616
35540POPC   C4B72471   8.388  26.612  17.008 -0.0150  0.2486  0.2500
35541POPC   NC372472   4.934  31.338  16.205  0.0284  0.0300  0.0981
35541POPC   PO472473   4.941  31.545  16.503 -0.1871 -0.3494 -0.2525
35541POPC   GL172474   4.904  31.601  16.801 -0.0201 -0.2252  0.0300
35541POPC   GL272475   4.598  31.503  16.915 -0.0983 -0.1522  0.0514
35541POPC   C1A72476   5.105  31.505  17.172  0.1086 -0.0702 -0.4328
35541POPC   D2A72477   5.315  31.302  17.512 -0.3229 -0.1720  0.1422
35541POPC   C3A72478   5.552  31.635  17.698 -0.1371 -0.1076 -0.3038
35541POPC   C4A72479   5.820  31.791  18.022 -0.0237  0.1752 -0.2572
35541POPC   C1B72480   4.504  31.705  17.255  0.1075 -0.1356  0.2440
35541POPC   C2B72481   4.592  31.826  17.660 -0.0487 -0.0106 -0.0640
35541POPC   C3B72482   4.567  31.868  18.056 -0.3022  0.0289 -0.0316
35541POPC   C4B72483   4.272  32.118  18.322  0.0676  0.0977 -0.1098
35542POPC   NC372484  13.617  26.607  14.984 -0.0689 -0.3322 -0.0864
35542POPC   PO472485  13.516  26.664  15.358 -0.0163  0.0803  0.1437
35542POPC   GL172486  13.263  26.451  15.483 -0.2250 -0.0953  0.2413
35542POPC   GL272487  13.208  26.240  15.298  0.1522 -0.1130  0.3390
35542POPC   C1A72488  12.824  26.496  15.671 -0.0469 -0.0921 -0.0973
35542POPC   D2A72489  12.572  26.090  15.706 -0.0185  0.2016  0.4603
35542POPC   C3A72490  12.508  25.780  16.057 -0.0756 -0.2202  0.1273
35542POPC   C4A72491  12.590  25.371  16.325 -0.2907 -0.0745  0.1030
35542POPC   C1B72492  13.014  25.896  15.603  0.3104 -0.1084 -0.1900
35542POPC   C2B72493  12.897  25.493  15.836 -0.2162 -0.1706 -0.0770
35542POPC   C3B72494  13.131  25.351  16.180  0.0323  0.0126 -0.0459
35542POPC   C4B72495  13.169  24.911  16.440  0.2471 -0.2823  0.0035
35543POPC   NC372496  10.911  27.354  12.124  0.0649  0.3017 -0.0476
35543POPC   PO472497  11.006  27.585  12.383  0.0767 -0.1967  0.0004
35543POPC   GL172498  11.053  27.197  12.517  0.1820 -0.0317  0.0992
35543POPC   GL272499  10.949  27.275  12.812  0.1052 -0.2203  0.4679
35543POPC   C1A72500  10.852  26.786  12.414  0.1747  0.0813 -0.2271
35543POPC   D2A72501  11.069  26.452  12.240 -0.2620  0.2597 -0.0898
35543POPC   C3A72502  10.825  26.106  12.054  0.1039 -0.1597 -0.1437
35543POPC   C4A72503  10.603  25.723  11.836 -0.1788  0.0539  0.3919
35543POPC   C1B72504  11.164  26.837  12.841 -0.2533  0.0821  0.4272
35543POPC   C2B72505  11.283  26.531  13.130  0.1719  0.1261 -0.0931
35543POPC   C3B72506  11.385  26.090  13.070 -0.0439  0.3962  0.1506
35543POPC   C4B72507  11.538  25.634  13.158 -0.0698 -0.1551  0.1551
35544POPC   NC372508   3.562  26.264  16.404 -0.0737  0.0256 -0.3034
35544POPC   PO472509   3.714  26.186  16.054  0.0253 -0.0027 -0.0340
35544POPC   GL172510   4.020  26.150  16.349 -0.0362  0.2570  0.3203
35544POPC   GL272511   4.197  25.875  16.321 -0.1590  0.0048  0.0934
35544POPC   C1A72512   4.062  26.144  16.825  0.2879 -0.0743 -0.1693
35544POPC   D2A72513   3.798  26.005  17.182 -0.2044  0.2497  0.0127
35544POPC   C3A72514   4.019  25.723  17.449  0.0964 -0.0232  0.2416
35544POPC   C4A72515   4.322  25.400  17.550 -0.0580  0.1774 -0.0148
35544POPC   C1B72516   4.199  25.506  16.564 -0.0762 -0.1993 -0.2457
35544POPC   C2B72517   4.173  25.451  17.007 -0.1492  0.1274  0.1368
35544POPC   C3B72518   3.923  25.193  17.210 -0.0271 -0.0387  0.2293
35544POPC   C4B72519   3.727  25.263  17.616 -0.0515  0.4310 -0.2057
35545POPC   NC372520  14.465  23.547  12.795  0.0388 -0.4902  0.1246
35545POPC   PO472521  14.695  23.313  12.529 -0.5777 -0.1970 -0.1954
35545POPC   GL172522  14.419  23.118  12.349  0.2132  0.0761  0.1027
35545POPC   GL272523  14.133  23.198  12.285  0.0951 -0.1137  0.0405
35545POPC   C1A72524  14.114  22.767  12.492 -0.2821  0.0987  0.2188
35545POPC   D2A72525  13.876  22.470  12.298  0.0026  0.0995  0.0681
35545POPC   C3A72526  13.436  22.229  12.425 -0.1114 -0.1374  0.0289
35545POPC   C4A72527  13.095  22.434  12.649 -0.0594 -0.0301  0.3197
35545POPC   C1B72528  13.883  23.365  11.903 -0.0616  0.1841 -0.0299
35545POPC   C2B72529  13.504  23.262  11.667 -0.1718 -0.1148 -0.1591
35545POPC   C3B72530  13.254  23.101  11.341  0.0342 -0.0659 -0.0774
35545POPC   C4B72531  13.041  22.688  11.313 -0.0447  0.5446  0.3523
35546POPC   NC372532   4.091  30.924  16.899 -0.3023  0.2479 -0.3102
35546POPC   PO472533   4.109  31.265  16.696 -0.3590 -0.0506  0.7640
35546POPC   GL172534   3.828  31.303  17.064 -0.1190 -0.1190  0.1484
35546POPC   GL272535   4.020  31.381  17.225  0.0467  0.1889 -0.1118
35546POPC   C1A72536   3.557  31.548  17.334  0.0862  0.3194 -0.1109
35546POPC   D2A72537   3.489  31.814  17.752 -0.0477  0.2274  0.2912
35546POPC   C3A72538   3.343  31.683  18.133  0.0495 -0.0343 -0.0600
35546POPC   C4A72539   3.073  31.669  18.473 -0.1875  0.1007 -0.4164
35546POPC   C1B72540   3.941  31.492  17.674 -0.1675 -0.0924 -0.1485
35546POPC   C2B72541   3.966  31.723  18.060  0.3864 -0.1000  0.0567
35546POPC   C3B72542   4.229  31.452  18.314 -0.0176  0.0113 -0.0050
35546POPC   C4B72543   4.591  31.148  18.315 -0.1135  0.0454  0.1432
35547POPC   NC372544   1.665  26.404  16.268 -0.0897  0.0463  0.0681
35547POPC   PO472545   1.408  26.098  16.262 -0.0829  0.1141 -0.1742
35547POPC   GL172546   1.408  26.204  16.663 -0.0679 -0.1454  0.0411
35547POPC   GL272547   1.641  26.029  16.677 -0.2648  0.3231  0.1875
35547POPC   C1A72548   1.158  25.994  17.052  0.0481 -0.0576  0.1288
35547POPC   D2A72549   0.729  26.098  17.210 -0.0207 -0.1578  0.0078
35547POPC   C3A72550   0.566  26.210  17.594  0.0083  0.0204  0.0802
35547POPC   C4A72551   0.661  25.919  17.944  0.2484  0.0207  0.2894
35547POPC   C1B72552   1.617  26.003  17.150  0.1886  0.2552 -0.0005
35547POPC   C2B72553   1.592  26.001  17.589  0.0356  0.0294  0.0982
35547POPC   C3B72554   1.467  25.805  17.968 -0.0918  0.0495 -0.0780
35547POPC   C4B72555   1.517  25.404  18.208  0.1147  0.2335  0.2560
35548POPC   NC372556   8.223  16.217  14.321 -0.4276  0.1309  0.0334
35548POPC   PO472557   8.573  16.331  14.559 -0.1578  0.2708  0.1083
35548POPC   GL172558   8.675  16.741  14.639  0.2166  0.1338  0.1216
35548POPC   GL272559   8.367  16.847  14.701 -0.1197 -0.0944  0.0872
35548POPC   C1A72560   8.996  17.004  14.841 -0.1150  0.2031 -0.1383
35548POPC   D2A72561   9.307  17.270  15.077 -0.0050 -0.2428 -0.2738
35548POPC   C3A72562   9.606  17.505  15.310  0.1849 -0.0768  0.1716
35548POPC   C4A72563   9.794  17.660  15.682 -0.1490  0.0153 -0.0564
35548POPC   C1B72564   8.425  17.279  14.907 -0.1850  0.0939 -0.2315
35548POPC   C2B72565   8.370  17.642  15.173 -0.0120 -0.0687 -0.1345
35548POPC   C3B72566   8.227  18.038  15.170 -0.0381 -0.2172 -0.0579
35548POPC   C4B72567   8.125  18.487  15.130  0.1814  0.2234 -0.1695
35549POPC   NC372568   4.092  27.081  16.355 -0.0116 -0.0455 -0.0762
35549POPC   PO472569   4.433  26.947  16.190  0.1043 -0.0402 -0.1539
35549POPC   GL172570   4.286  26.569  16.424 -0.1430 -0.0633  0.0849
35549POPC   GL272571   4.163  26.694  16.661  0.0328 -0.2889  0.1836
35549POPC   C1A72572   4.494  26.346  16.811  0.0978  0.1104 -0.3655
35549POPC   D2A72573   4.381  26.073  17.205  0.0149  0.3266  0.0701
35549POPC   C3A72574   4.634  25.993  17.552  0.0787 -0.0783 -0.0610
35549POPC   C4A72575   4.866  26.011  17.954  0.2014  0.3161 -0.0792
35549POPC   C1B72576   4.004  26.610  17.075 -0.2072  0.2515 -0.2960
35549POPC   C2B72577   3.882  26.435  17.464  0.2934  0.0722  0.0538
35549POPC   C3B72578   3.883  26.067  17.743  0.1621  0.2004 -0.1456
35549POPC   C4B72579   3.826  25.623  17.931  0.4130  0.0156 -0.0917
35550POPC   NC372580   0.507  32.733  16.150 -0.2087 -0.4199 -0.1664
35550POPC   PO472581   0.903  32.628  16.147 -0.2069  0.4548  0.0991
35550POPC   GL172582   1.120  32.632  16.566 -0.2473  0.3067 -0.0310
35550POPC   GL272583   1.065  32.903  16.515 -0.0321  0.2303 -0.0798
35550POPC   C1A72584   1.036  32.348  16.940 -0.0471 -0.0340 -0.1037
35550POPC   D2A72585   0.994  31.961  17.173  0.1790  0.1247  0.1554
35550POPC   C3A72586   0.987  31.794  17.592  0.1717 -0.0676 -0.4516
35550POPC   C4A72587   0.929  31.587  17.980  0.3171  0.0326 -0.0050
35550POPC   C1B72588   0.875  32.823  16.955 -0.2050 -0.1757 -0.3312
35550POPC   C2B72589   1.040  32.732  17.431  0.3400 -0.0276 -0.2830
35550POPC   C3B72590   1.161  32.605  17.852 -0.5931  0.0010 -0.1186
35550POPC   C4B72591   1.504  32.603  18.206  0.1937  0.2801  0.0098
35551POPC   NC372592  13.078  30.321  16.238  0.2174  0.0731  0.2537
35551POPC   PO472593  13.228  30.622  16.443 -0.1101 -0.1078  0.0587
35551POPC   GL172594  13.089  30.684  16.783  0.2423 -0.2721  0.0595
35551POPC   GL272595  12.809  30.865  16.838  0.3026  0.0380  0.0769
35551POPC   C1A72596  13.123  30.549  17.240  0.2097  0.2141  0.0039
35551POPC   D2A72597  13.068  30.551  17.655  0.4716 -0.1325  0.1075
35551POPC   C3A72598  13.309  30.211  17.940 -0.0543  0.0450  0.1842
35551POPC   C4A72599  13.373  30.063  18.384  0.2189 -0.1842 -0.1100
35551POPC   C1B72600  12.666  30.667  17.221  0.0060 -0.0408  0.0552
35551POPC   C2B72601  12.645  30.353  17.555 -0.1859  0.5522 -0.2549
35551POPC   C3B72602  12.451  30.132  17.864 -0.1765  0.2201 -0.1226
35551POPC   C4B72603  12.138  30.008  18.213 -0.0500  0.1137  0.0990
35552POPC   NC372604  12.038  26.412  13.897  0.0405 -0.0891  0.4391
35552POPC   PO472605  12.385  26.396  14.069 -0.0571  0.0177  0.2039
35552POPC   GL172606  12.256  25.997  14.171  0.1068  0.3292  0.3124
35552POPC   GL272607  12.124  25.775  13.979  0.0551  0.2140  0.1497
35552POPC   C1A72608  12.258  25.741  14.571  0.2751  0.2148  0.0318
35552POPC   D2A72609  12.547  25.582  14.884  0.0519  0.1897  0.1063
35552POPC   C3A72610  12.375  25.256  15.177 -0.0868 -0.2372  0.0206
35552POPC   C4A72611  12.148  24.897  15.356  0.0087 -0.1420  0.2692
35552POPC   C1B72612  12.037  25.326  13.877 -0.2592  0.3256  0.1215
35552POPC   C2B72613  11.676  25.019  13.995  0.2055  0.0982 -0.1101
35552POPC   C3B72614  11.515  24.931  14.429  0.0827  0.0021 -0.1504
35552POPC   C4B72615  11.226  24.674  14.599 -0.0319  0.1412  0.2169
35553POPC   NC372616   8.499  29.329  16.300  0.0879 -0.2475 -0.0326
35553POPC   PO472617   8.802  29.363  16.025 -0.0654  0.0466  0.0932
35553POPC   GL172618   8.918  29.492  16.389  0.2400 -0.1534 -0.2547
35553POPC   GL272619   9.240  29.593  16.538  0.0942  0.0037 -0.2116
35553POPC   C1A72620   8.945  29.435  16.875  0.1862 -0.3961 -0.1076
35553POPC   D2A72621   9.027  29.423  17.332  0.1554  0.0955  0.1008
35553POPC   C3A72622   8.980  29.298  17.788  0.1672 -0.1130  0.2092
35553POPC   C4A72623   9.088  28.959  18.107  0.3514  0.1269 -0.0625
35553POPC   C1B72624   9.292  29.865  16.863 -0.0065 -0.0605  0.2888
35553POPC   C2B72625   9.110  29.998  17.245  0.0801  0.0304 -0.0878
35553POPC   C3B72626   9.121  29.778  17.698  0.0190  0.1551  0.0062
35553POPC   C4B72627   8.855  29.642  18.072  0.1330 -0.0481  0.1485
35554POPC   NC372628   4.296  25.435  15.981  0.0124 -0.1707  0.0699
35554POPC   PO472629   4.551  25.753  16.001  0.1737 -0.0163  0.1839
35554POPC   GL172630   4.742  25.619  16.351 -0.0190 -0.1841  0.0552
35554POPC   GL272631   4.592  25.355  16.358  0.1835 -0.1975  0.0773
35554POPC   C1A72632   5.101  25.320  16.478 -0.0762 -0.0164 -0.1045
35554POPC   D2A72633   5.253  24.885  16.610  0.1279 -0.1186  0.2164
35554POPC   C3A72634   5.512  24.563  16.706 -0.0481 -0.0468  0.2711
35554POPC   C4A72635   5.935  24.491  17.002 -0.4548 -0.2980  0.2325
35554POPC   C1B72636   4.502  25.147  16.753 -0.2978  0.2631  0.1781
35554POPC   C2B72637   4.461  25.114  17.175 -0.0261  0.0714  0.3783
35554POPC   C3B72638   4.223  24.809  17.424  0.1819  0.0457 -0.0582
35554POPC   C4B72639   3.978  24.744  17.837 -0.1272  0.0037  0.0407
35555POPC   NC372640   0.050  19.080  15.759  0.3412 -0.1178  0.0880
35555POPC   PO472641  -0.216  19.134  15.499  0.0196  0.1044  0.0553
35555POPC   GL172642  -0.383  18.977  15.928 -0.0296 -0.1009  0.4095
35555POPC   GL272643  -0.334  19.243  16.099  0.1572 -0.3110  0.0456
35555POPC   C1A72644  -0.383  18.673  16.292 -0.1225  0.0104  0.0948
35555POPC   D2A72645  -0.426  18.739  16.725 -0.1618 -0.4589 -0.4274
35555POPC   C3A72646  -0.161  18.866  17.058  0.4161 -0.2229 -0.0724
35555POPC   C4A72647   0.076  18.928  17.411  0.2978  0.0367  0.0449
35555POPC   C1B72648  -0.711  19.038  16.328 -0.1852  0.3007  0.0499
35555POPC   C2B72649  -1.083  19.061  16.624 -0.4558 -0.2948 -0.1048
35555POPC   C3B72650  -1.507  19.201  16.724  0.0476 -0.1682 -0.0607
35555POPC   C4B72651  -1.784  18.981  17.055 -0.0748  0.0090  0.0804
35556POPC   NC372652   4.921  26.368  15.991 -0.2033  0.2108  0.0583
35556POPC   PO472653   4.976  25.970  15.940 -0.2662 -0.1298 -0.1746
35556POPC   GL172654   4.996  25.546  15.993 -0.0815  0.2819 -0.0567
35556POPC   GL272655   5.250  25.444  15.744  0.2343  0.0826 -0.0713
35556POPC   C1A72656   5.462  25.480  16.164  0.0526 -0.0072 -0.0356
35556POPC   D2A72657   5.818  25.514  16.427  0.0525  0.1372  0.2610
35556POPC   C3A72658   5.606  25.233  16.738 -0.2965 -0.1506  0.3601
35556POPC   C4A72659   5.460  25.075  17.136  0.1253 -0.0737  0.1930
35556POPC   C1B72660   5.198  25.073  16.023  0.3735 -0.1405  0.1906
35556POPC   C2B72661   5.324  24.640  16.122  0.3411  0.0275 -0.3356
35556POPC   C3B72662   5.343  24.249  16.384  0.1034  0.0065  0.2413
35556POPC   C4B72663   5.115  24.027  16.715 -0.0777 -0.0857 -0.4490
35557POPC   NC372664   7.403  26.268  15.006  0.3099 -0.2580 -0.4560
35557POPC   PO472665   7.616  26.508  15.246  0.4443 -0.1025 -0.1806
35557POPC   GL172666   7.587  26.102  15.428 -0.1518  0.3229 -0.2188
35557POPC   GL272667   7.740  25.877  15.242  0.1935  0.0648  0.0444
35557POPC   C1A72668   7.818  25.836  15.716 -0.0893 -0.2544 -0.1296
35557POPC   D2A72669   7.989  25.595  16.096  0.1298  0.3688  0.1130
35557POPC   C3A72670   8.440  25.509  16.116  0.0096 -0.0219  0.0644
35557POPC   C4A72671   8.847  25.199  16.094 -0.2189  0.0338 -0.1535
35557POPC   C1B72672   7.721  25.406  15.167 -0.1204  0.1143 -0.1326
35557POPC   C2B72673   7.848  24.956  15.280  0.0371 -0.0443  0.1388
35557POPC   C3B72674   7.714  24.572  15.508  0.3717  0.1140 -0.1081
35557POPC   C4B72675   7.403  24.277  15.615  0.1210 -0.4275  0.0953
35558POPC   NC372676  10.058  27.510  11.139  0.0957 -0.1419 -0.1160
35558POPC   PO472677   9.780  27.780  11.031 -0.1454 -0.2802 -0.2270
35558POPC   GL172678   9.573  27.687  10.778 -0.0531 -0.0187 -0.0181
35558POPC   GL272679   9.555  27.367  10.870  0.2053  0.1386  0.1268
35558POPC   C1A72680   9.306  27.583  10.445  0.2748 -0.0575  0.0707
35558POPC   D2A72681   9.193  27.541  10.034  0.0508 -0.1198 -0.1768
35558POPC   C3A72682   9.212  27.412   9.635  0.1627 -0.1114 -0.1152
35558POPC   C4A72683   9.430  27.166   9.307 -0.0978 -0.3401  0.0069
35558POPC   C1B72684   9.718  26.942  10.880  0.1626  0.3124  0.2453
35558POPC   C2B72685   9.775  26.558  11.141 -0.2188 -0.0219 -0.1092
35558POPC   C3B72686  10.099  26.227  11.097  0.0370 -0.0202  0.2239
35558POPC   C4B72687  10.279  25.794  10.961 -0.0759 -0.3612 -0.1354
35559POPC   NC372688  14.128  32.103   9.270 -0.2756  0.0157 -0.1655
35559POPC   PO472689  14.011  32.177   8.901 -0.0705 -0.0310 -0.2671
35559POPC   GL172690  13.977  32.350   8.516  0.3397 -0.1234 -0.0950
35559POPC   GL272691  13.771  32.168   8.393 -0.0440 -0.0693 -0.0800
35559POPC   C1A72692  13.850  32.683   8.240 -0.0979 -0.1093  0.1137
35559POPC   D2A72693  13.674  32.936   7.879 -0.0297  0.1341  0.0134
35559POPC   C3A72694  13.826  33.179   7.555  0.1864 -0.2107 -0.2691
35559POPC   C4A72695  13.833  33.250   7.142  0.1460 -0.3320 -0.1012
35559POPC   C1B72696  13.441  32.386   8.167 -0.1396 -0.0895  0.0702
35559POPC   C2B72697  13.490  32.518   7.741  0.0135 -0.1982  0.0857
35559POPC   C3B72698  13.661  32.765   7.375 -0.0637  0.0070  0.0497
35559POPC   C4B72699  13.638  32.677   6.922 -0.2523 -0.0900  0.0668
35560POPC   NC372700  13.510  26.807  10.207  0.0457  0.1755 -0.2041
35560POPC   PO472701  13.294  27.095  10.349  0.1660 -0.0513  0.2643
35560POPC   GL172702  12.991  26.902  10.049  0.0009 -0.1320 -0.1707
35560POPC   GL272703  13.172  26.894   9.843 -0.4273 -0.0218  0.1401
35560POPC   C1A72704  12.749  27.046   9.638  0.0076  0.1926  0.0618
35560POPC   D2A72705  12.724  27.013   9.196 -0.4000 -0.4049 -0.2337
35560POPC   C3A72706  12.316  27.077   9.031  0.1201  0.0954  0.3129
35560POPC   C4A72707  12.072  27.208   8.633 -0.2263  0.2563  0.2192
35560POPC   C1B72708  13.156  26.742   9.421 -0.0027 -0.0731 -0.2600
35560POPC   C2B72709  13.236  26.760   8.963  0.0330 -0.2483  0.1462
35560POPC   C3B72710  13.083  26.607   8.561 -0.1258  0.0439 -0.1544
35560POPC   C4B72711  12.982  26.463   8.120  0.0513  0.2444  0.2373
35561POPC   NC372712  10.842  28.188   9.984  0.0003 -0.2163 -0.2352
35561POPC   PO472713  11.171  28.138  10.297  0.3600 -0.1578  0.0503
35561POPC   GL172714  11.177  27.848  10.071 -0.1149 -0.2831 -0.3623
35561POPC   GL272715  10.949  27.647  10.044  0.2636  0.1193  0.0774
35561POPC   C1A72716  11.250  27.758   9.627  0.3110 -0.1834 -0.0689
35561POPC   D2A72717  11.087  27.591   9.162 -0.1736  0.2884  0.0721
35561POPC   C3A72718  11.154  27.498   8.725 -0.5356 -0.4296 -0.1878
35561POPC   C4A72719  11.141  27.595   8.309 -0.0372  0.0360 -0.3450
35561POPC   C1B72720  10.776  27.523   9.634  0.0657  0.1297 -0.0559
35561POPC   C2B72721  10.702  27.284   9.241 -0.1800  0.0894 -0.0930
35561POPC   C3B72722  10.707  27.265   8.793  0.2389 -0.2062 -0.0223
35561POPC   C4B72723  10.720  27.286   8.372  0.3267 -0.0001  0.0786
35562POPC   NC372724  10.120  31.024  16.241 -0.0916 -0.0904  0.0775
35562POPC   PO472725  10.389  31.225  16.045 -0.1224  0.4268  0.0694
35562POPC   GL172726  10.372  31.419  16.386  0.0981 -0.1305 -0.2325
35562POPC   GL272727  10.338  31.720  16.333 -0.0323 -0.0486 -0.1224
35562POPC   C1A72728  10.123  31.408  16.794 -0.1413 -0.0761 -0.0338
35562POPC   D2A72729  10.053  31.656  17.185  0.0698 -0.1254  0.2063
35562POPC   C3A72730  10.164  31.524  17.628 -0.1107 -0.2047 -0.1722
35562POPC   C4A72731  10.255  31.535  18.111  0.1023  0.0113  0.1822
35562POPC   C1B72732  10.508  31.764  16.761  0.4995  0.1956 -0.1479
35562POPC   C2B72733  10.835  31.997  17.058 -0.2959 -0.4250  0.1106
35562POPC   C3B72734  11.013  32.109  17.441  0.1426  0.3013  0.1425
35562POPC   C4B72735  11.134  32.201  17.845  0.1394 -0.0243 -0.0734
35563POPC   NC372736   5.378  25.459  10.239 -0.1729  0.1108 -0.0939
35563POPC   PO472737   5.538  25.825  10.258 -0.2337  0.1147  0.0511
35563POPC   GL172738   5.787  25.514  10.441  0.1156 -0.2224 -0.2205
35563POPC   GL272739   5.995  25.607  10.260 -0.4213 -0.1076  0.0448
35563POPC   C1A72740   5.851  25.060  10.234 -0.0384 -0.0475 -0.1539
35563POPC   D2A72741   6.132  24.944   9.907  0.1773  0.0206  0.0307
35563POPC   C3A72742   6.408  24.755   9.599  0.2789  0.1857  0.0575
35563POPC   C4A72743   6.458  24.498   9.195  0.1581 -0.2145 -0.1528
35563POPC   C1B72744   6.363  25.343  10.178  0.0779  0.0778  0.0085
35563POPC   C2B72745   6.750  25.184   9.914  0.1265  0.1482  0.0126
35563POPC   C3B72746   6.924  24.838   9.645  0.0718 -0.0110 -0.1099
35563POPC   C4B72747   7.418  24.690   9.454  0.1370 -0.2916 -0.0900
35564POPC   NC372748  13.741  27.836  16.076 -0.0579 -0.1192 -0.1268
35564POPC   PO472749  13.547  27.517  15.940 -0.0551 -0.0683  0.1578
35564POPC   GL172750  13.491  27.178  16.161 -0.0946 -0.1577 -0.2715
35564POPC   GL272751  13.566  27.315  16.405  0.1484  0.4013  0.4079
35564POPC   C1A72752  13.663  26.796  16.313 -0.0987  0.2611 -0.0704
35564POPC   D2A72753  13.742  26.364  16.213 -0.0170  0.1259 -0.1218
35564POPC   C3A72754  13.451  26.231  15.895 -0.0316 -0.0473  0.2399
35564POPC   C4A72755  12.983  26.150  16.025 -0.2608 -0.0494 -0.2106
35564POPC   C1B72756  13.459  27.051  16.676 -0.5292  0.3186 -0.3344
35564POPC   C2B72757  13.273  26.695  16.901  0.0751 -0.2073 -0.1420
35564POPC   C3B72758  12.987  26.387  17.106 -0.1766 -0.0776 -0.1690
35564POPC   C4B72759  12.734  26.066  17.314  0.1646 -0.4090  0.2287
35565POPC   NC372760   2.957  21.681  10.009 -0.2276 -0.1116  0.1068
35565POPC   PO472761   2.890  21.669   9.625  0.0085  0.0928 -0.0253
35565POPC   GL172762   3.241  21.683   9.378 -0.2163  0.2494  0.0276
35565POPC   GL272763   3.475  21.905   9.403  0.0426  0.0335 -0.0019
35565POPC   C1A72764   3.238  21.440   8.999  0.1424  0.1915  0.0226
35565POPC   D2A72765   3.294  21.438   8.553  0.0786  0.1716  0.1602
35565POPC   C3A72766   3.226  21.569   8.131  0.1055 -0.1561 -0.1008
35565POPC   C4A72767   3.152  21.687   7.632  0.3553  0.0256 -0.0215
35565POPC   C1B72768   3.543  22.230   9.039  0.3207  0.2041 -0.3470
35565POPC   C2B72769   3.764  22.243   8.593 -0.0956  0.2044 -0.0562
35565POPC   C3B72770   3.926  22.609   8.280 -0.0351 -0.1713  0.0097
35565POPC   C4B72771   4.264  22.674   7.954 -0.0294  0.2895  0.2385
35566POPC   NC372772   3.350  21.321  15.287  0.0529 -0.3320 -0.1613
35566POPC   PO472773   3.616  21.079  15.154 -0.2499  0.2889 -0.2020
35566POPC   GL172774   3.524  21.030  15.610  0.0340  0.3052 -0.1574
35566POPC   GL272775   3.550  21.252  15.772 -0.2321  0.0580  0.1594
35566POPC   C1A72776   3.599  20.676  15.867 -0.3147  0.1800 -0.4877
35566POPC   D2A72777   3.618  20.499  16.329 -0.2053  0.0480 -0.2958
35566POPC   C3A72778   3.399  20.168  16.594  0.0151  0.1207  0.3504
35566POPC   C4A72779   3.355  19.771  16.307  0.0969 -0.0084 -0.2199
35566POPC   C1B72780   3.915  21.458  15.931 -0.0561  0.1404 -0.0608
35566POPC   C2B72781   4.154  21.436  16.331  0.1719  0.3457  0.2055
35566POPC   C3B72782   4.162  21.262  16.800 -0.2577 -0.1533 -0.0328
35566POPC   C4B72783   4.144  20.854  17.018  0.0339  0.2161 -0.1961
35567POPC   NC372784   8.326  27.515  16.035 -0.0127 -0.2575  0.4406
35567POPC   PO472785   8.657  27.677  16.030 -0.4089 -0.3146 -0.2881
35567POPC   GL172786   8.906  27.739  16.326  0.4508  0.0218 -0.1729
35567POPC   GL272787   8.815  28.012  16.357 -0.2959 -0.0226  0.1841
35567POPC   C1A72788   9.205  27.393  16.482  0.3978  0.3049  0.2932
35567POPC   D2A72789   9.421  27.048  16.764 -0.2641  0.1210 -0.1551
35567POPC   C3A72790   9.408  26.767  17.132  0.0626  0.1908  0.0771
35567POPC   C4A72791   9.330  26.763  17.598 -0.0037 -0.0010 -0.1284
35567POPC   C1B72792   8.660  27.743  16.714  0.0206  0.1207  0.0112
35567POPC   C2B72793   8.786  27.467  17.115  0.2120 -0.1446 -0.0819
35567POPC   C3B72794   8.794  27.325  17.568  0.0534  0.2723  0.2437
35567POPC   C4B72795   9.052  27.159  17.909 -0.0181 -0.1861 -0.4020
35568POPC   NC372796   8.584  30.191  16.032  0.3576  0.1083 -0.0501
35568POPC   PO472797   8.321  30.058  16.262  0.1307  0.0826 -0.0141
35568POPC   GL172798   8.393  30.106  16.675  0.1637  0.5662  0.2198
35568POPC   GL272799   8.503  29.782  16.781  0.1382 -0.0297 -0.0176
35568POPC   C1A72800   8.208  30.071  17.081 -0.1051 -0.1903  0.0816
35568POPC   D2A72801   8.147  30.026  17.527  0.0567 -0.1244  0.0161
35568POPC   C3A72802   8.298  30.248  17.838  0.0694 -0.0163  0.0943
35568POPC   C4A72803   8.558  30.336  18.257  0.3178  0.0056  0.1601
35568POPC   C1B72804   8.636  29.822  17.232  0.1955 -0.3891  0.0205
35568POPC   C2B72805   8.602  29.882  17.695  0.1116  0.0045 -0.1320
35568POPC   C3B72806   8.412  29.808  18.115 -0.0319 -0.3740  0.3655
35568POPC   C4B72807   8.363  29.797  18.594 -0.0943 -0.2593 -0.0149
35569POPC   NC372808  12.724  26.296  15.199  0.4683 -0.1779  0.0638
35569POPC   PO472809  12.649  26.500  14.895  0.2533 -0.3859  0.2500
35569POPC   GL172810  12.302  26.167  14.945 -0.4601 -0.1327 -0.0227
35569POPC   GL272811  12.176  26.284  15.132 -0.1813 -0.3862  0.0768
35569POPC   C1A72812  12.122  25.737  15.111  0.0824  0.0059  0.0060
35569POPC   D2A72813  11.768  25.455  15.198 -0.4351 -0.0228  0.0900
35569POPC   C3A72814  11.799  25.201  15.586 -0.1676  0.3396 -0.1726
35569POPC   C4A72815  11.715  25.279  16.078  0.2648  0.0098  0.0166
35569POPC   C1B72816  12.059  26.034  15.511  0.0320  0.1017  0.1479
35569POPC   C2B72817  11.832  25.737  15.728  0.0449 -0.7964  0.0024
35569POPC   C3B72818  11.401  25.623  15.843 -0.0348 -0.0276 -0.0678
35569POPC   C4B72819  10.966  25.786  16.045  0.3231 -0.1994 -0.0713
35570POPC   NC372820   3.041  20.346  15.575 -0.2200 -0.2404  0.0585
35570POPC   PO472821   2.697  20.571  15.527 -0.0650 -0.1238  0.0577
35570POPC   GL172822   2.856  20.775  15.857  0.1265 -0.4622  0.0435
35570POPC   GL272823   3.134  20.720  15.815  0.0463 -0.1436 -0.1155
35570POPC   C1A72824   2.807  20.871  16.298 -0.1369 -0.0785 -0.3255
35570POPC   D2A72825   2.842  20.834  16.793 -0.1244 -0.1598  0.3352
35570POPC   C3A72826   3.071  20.823  17.201 -0.1647 -0.0148  0.2620
35570POPC   C4A72827   3.141  20.727  17.581  0.0797  0.2392  0.2327
35570POPC   C1B72828   3.291  20.851  16.255  0.2630 -0.1698 -0.0094
35570POPC   C2B72829   3.345  20.732  16.687 -0.1368  0.0967  0.0509
35570POPC   C3B72830   3.415  20.549  17.088  0.1788  0.1153 -0.0036
35570POPC   C4B72831   3.340  20.258  17.397  0.0107 -0.1059  0.1378
35571POPC   NC372832  14.227  29.243  16.373 -0.2118  0.3609 -0.1909
35571POPC   PO472833  13.886  29.149  16.282  0.4764 -0.3063  0.3378
35571POPC   GL172834  13.871  29.409  16.646  0.1753  0.1113  0.2850
35571POPC   GL272835  14.094  29.387  16.838  0.2021  0.1404 -0.1704
35571POPC   C1A72836  13.637  29.323  17.045 -0.1178 -0.2030  0.1420
35571POPC   D2A72837  13.324  28.956  17.216 -0.1481  0.1074  0.0187
35571POPC   C3A72838  13.357  28.540  17.509 -0.0547  0.1865 -0.2307
35571POPC   C4A72839  13.423  28.063  17.636  0.1377 -0.0103  0.1620
35571POPC   C1B72840  14.062  29.227  17.302  0.2136 -0.1116 -0.0660
35571POPC   C2B72841  14.205  29.197  17.732 -0.1473  0.1167 -0.0456
35571POPC   C3B72842  14.213  29.255  18.224  0.1381 -0.1355  0.3549
35571POPC   C4B72843  14.221  29.251  18.702 -0.1594  0.4333  0.2300
35572POPC   NC372844   8.266  32.790  15.267  0.0881  0.0906 -0.1598
35572POPC   PO472845   8.208  32.413  15.178  0.0789  0.0344  0.1405
35572POPC   GL172846   8.325  32.296  15.489 -0.1102  0.0077  0.1997
35572POPC   GL272847   8.563  32.337  15.552 -0.1201  0.4078 -0.0781
35572POPC   C1A72848   8.251  32.239  15.928  0.0666  0.0226  0.3042
35572POPC   D2A72849   8.145  31.894  16.190  0.1587  0.2648  0.0820
35572POPC   C3A72850   8.081  31.951  16.678 -0.1976 -0.1892  0.1894
35572POPC   C4A72851   8.037  31.921  17.136  0.0265 -0.4743 -0.1226
35572POPC   C1B72852   8.909  32.528  15.833 -0.1110  0.0758 -0.0077
35572POPC   C2B72853   9.058  32.725  16.281  0.1809 -0.0940 -0.0049
35572POPC   C3B72854   9.246  33.112  16.377 -0.0617  0.0711 -0.2676
35572POPC   C4B72855   9.156  33.554  16.345 -0.1049  0.1166 -0.0623
35573POPC   NC372856   7.519  26.556  11.547  0.1718 -0.0578 -0.0071
35573POPC   PO472857   7.791  26.846  11.480  0.0298  0.0550 -0.0050
35573POPC   GL172858   8.131  26.742  11.228  0.0463  0.0066  0.0345
35573POPC   GL272859   8.335  26.685  11.426  0.1277 -0.1775 -0.1030
35573POPC   C1A72860   8.353  26.444  10.877 -0.0504  0.1274 -0.0102
35573POPC   D2A72861   8.439  26.029  10.776  0.1514 -0.1394  0.1114
35573POPC   C3A72862   8.704  25.655  10.861 -0.1910  0.0732  0.1619
35573POPC   C4A72863   9.067  25.296  10.854  0.1701 -0.4274  0.1108
35573POPC   C1B72864   8.684  26.371  11.257  0.0155  0.3282  0.0875
35573POPC   C2B72865   8.969  25.977  11.269  0.2414  0.1320 -0.0941
35573POPC   C3B72866   9.386  25.765  11.214 -0.0180  0.0927  0.1309
35573POPC   C4B72867   9.528  25.471  10.867  0.0038 -0.3514 -0.0911
35574POPC   NC372868  16.272  25.372  15.701  0.2741  0.0893 -0.1324
35574POPC   PO472869  16.414  25.703  15.853 -0.1493  0.0763  0.0590
35574POPC   GL172870  16.333  25.592  16.181  0.2435  0.2431 -0.0361
35574POPC   GL272871  16.445  25.329  16.335 -0.0635 -0.2059  0.2366
35574POPC   C1A72872  16.282  25.681  16.665  0.2479 -0.2458 -0.0461
35574POPC   D2A72873  16.313  25.292  16.912  0.2075 -0.0952 -0.0088
35574POPC   C3A72874  16.187  25.202  17.359 -0.4493 -0.2649  0.3664
35574POPC   C4A72875  16.198  25.130  17.848 -0.1491  0.3725 -0.1031
35574POPC   C1B72876  16.224  24.950  16.599  0.0090  0.1485 -0.1285
35574POPC   C2B72877  16.058  24.873  17.007  0.1060  0.4401  0.2260
35574POPC   C3B72878  15.920  24.590  17.374  0.2964 -0.0906  0.3988
35574POPC   C4B72879  15.505  24.551  17.599 -0.1980  0.0728 -0.2071
35575POPC   NC372880   6.047  27.984   9.176 -0.0228  0.0179  0.1549
35575POPC   PO472881   5.772  27.717   9.052  0.1644 -0.0534 -0.0459
35575POPC   GL172882   5.683  27.781   8.681  0.1135 -0.2025  0.1146
35575POPC   GL272883   5.896  27.767   8.541  0.1462 -0.2357  0.0889
35575POPC   C1A72884   5.450  27.522   8.357  0.0075 -0.0322 -0.0477
35575POPC   D2A72885   5.328  27.043   8.261 -0.1207 -0.1344  0.1211
35575POPC   C3A72886   5.226  26.804   7.861  0.0352 -0.0534  0.0005
35575POPC   C4A72887   4.962  26.720   7.479  0.1976 -0.2390  0.0668
35575POPC   C1B72888   6.021  27.511   8.191  0.0643 -0.1779 -0.1479
35575POPC   C2B72889   6.248  27.454   7.819  0.0595 -0.1220 -0.3065
35575POPC   C3B72890   6.491  27.396   7.445  0.1432 -0.1313  0.2885
35575POPC   C4B72891   6.472  27.477   6.981  0.3120  0.2486  0.1055
35576POPC   NC372892  15.909  21.471  15.172 -0.0478  0.1086 -0.0124
35576POPC   PO472893  16.081  21.758  15.246  0.0919 -0.0090  0.2767
35576POPC   GL172894  15.738  21.783  15.505  0.2601 -0.0248 -0.1068
35576POPC   GL272895  15.471  21.600  15.455 -0.0004 -0.0246 -0.2084
35576POPC   C1A72896  15.693  21.660  15.937  0.1405  0.0921 -0.2327
35576POPC   D2A72897  15.277  21.654  16.266 -0.0456 -0.0646  0.1675
35576POPC   C3A72898  14.843  21.477  16.361  0.0430 -0.2243  0.5726
35576POPC   C4A72899  14.404  21.300  16.352 -0.0879  0.0506  0.0934
35576POPC   C1B72900  15.280  21.840  15.774 -0.0050  0.0000 -0.0183
35576POPC   C2B72901  14.872  21.940  15.966 -0.1350 -0.0793  0.1629
35576POPC   C3B72902  14.485  21.751  16.154 -0.2718  0.3777 -0.0371
35576POPC   C4B72903  14.041  21.632  16.318 -0.0137  0.1203  0.1587
35577POPC   NC372904  11.031  27.582  13.320 -0.1764 -0.0911 -0.1082
35577POPC   PO472905  10.961  27.185  13.381 -0.1209 -0.0466 -0.3707
35577POPC   GL172906  10.965  26.791  13.349 -0.2178 -0.3264  0.0929
35577POPC   GL272907  11.179  26.626  13.617 -0.0676  0.2104  0.0216
35577POPC   C1A72908  10.738  26.410  13.139 -0.3654 -0.1937  0.0462
35577POPC   D2A72909  10.444  26.159  12.946  0.1984  0.1734  0.3716
35577POPC   C3A72910  10.376  25.725  12.843 -0.0730  0.0618 -0.0806
35577POPC   C4A72911  10.710  25.402  12.865 -0.1649  0.3644  0.0734
35577POPC   C1B72912  11.001  26.226  13.479 -0.1592 -0.2870  0.0502
35577POPC   C2B72913  11.138  25.755  13.491 -0.0170  0.0179  0.0717
35577POPC   C3B72914  10.992  25.378  13.779  0.0354  0.1649 -0.2472
35577POPC   C4B72915  10.690  25.189  14.091  0.0811  0.1347 -0.1696
35578POPC   NC372916  13.467  25.707  11.302  0.2243 -0.0109 -0.1604
35578POPC   PO472917  13.173  25.864  11.054 -0.0867  0.1409 -0.3682
35578POPC   GL172918  12.878  25.681  10.804  0.0444  0.0766  0.0339
35578POPC   GL272919  12.688  25.522  10.898  0.3130 -0.1620  0.0111
35578POPC   C1A72920  12.779  25.948  10.459  0.0802 -0.0192 -0.3164
35578POPC   D2A72921  12.673  25.866   9.977 -0.0072 -0.1855  0.0779
35578POPC   C3A72922  12.285  25.664   9.861  0.0608  0.1419 -0.3459
35578POPC   C4A72923  11.936  25.446   9.688 -0.0563  0.3182  0.1165
35578POPC   C1B72924  12.461  25.170  10.617  0.1353 -0.0205 -0.0726
35578POPC   C2B72925  12.235  25.103  10.261 -0.0136 -0.0434 -0.0124
35578POPC   C3B72926  12.033  24.661  10.408  0.0304 -0.1615 -0.2829
35578POPC   C4B72927  11.811  24.535  10.825 -0.0650  0.2844 -0.2429
35579POPC   NC372928   2.034  18.680  15.725  0.1672  0.2431  0.3693
35579POPC   PO472929   2.294  18.401  15.758 -0.2113 -0.5440 -0.3194
35579POPC   GL172930   2.548  18.615  15.963 -0.3837  0.7282  0.0576
35579POPC   GL272931   2.369  18.787  16.125  0.2260 -0.0682  0.0229
35579POPC   C1A72932   2.792  18.633  16.381  0.1325  0.0015 -0.0708
35579POPC   D2A72933   2.797  18.893  16.695  0.2387 -0.1457 -0.0320
35579POPC   C3A72934   3.135  19.100  16.865  0.1735 -0.0186 -0.0074
35579POPC   C4A72935   3.504  18.949  17.056 -0.0015  0.0114  0.0740
35579POPC   C1B72936   2.410  19.095  16.465  0.1233  0.0703 -0.0622
35579POPC   C2B72937   2.532  19.210  16.913  0.2468 -0.0273  0.0316
35579POPC   C3B72938   2.816  19.315  17.275 -0.1667 -0.4429  0.0556
35579POPC   C4B72939   3.031  19.336  17.673  0.1710  0.0394 -0.2637
35580POPC   NC372940   1.330  32.168  16.519  0.5250 -0.1910  0.0359
35580POPC   PO472941   1.587  32.002  16.736  0.0675  0.1537  0.2133
35580POPC   GL172942   1.433  32.095  17.024 -0.1218  0.1419  0.1497
35580POPC   GL272943   1.556  31.923  17.211  0.0160  0.1909 -0.3077
35580POPC   C1A72944   1.282  32.333  17.356  0.3232 -0.1589 -0.2147
35580POPC   D2A72945   1.451  32.272  17.762 -0.0328 -0.0693  0.0014
35580POPC   C3A72946   1.395  31.829  17.913  0.0817 -0.3321  0.0113
35580POPC   C4A72947   1.268  31.603  18.286 -0.0540 -0.1487 -0.1782
35580POPC   C1B72948   1.438  31.535  17.352  0.0743 -0.0111  0.0455
35580POPC   C2B72949   1.583  31.386  17.740  0.2390  0.1863  0.4314
35580POPC   C3B72950   1.838  31.586  18.041  0.2658  0.0359 -0.0348
35580POPC   C4B72951   2.083  31.888  18.235 -0.0570 -0.1139  0.3845
35581POPC   NC372952  12.698  28.832  16.784 -0.0272 -0.0187  0.0102
35581POPC   PO472953  12.578  28.557  16.484 -0.2350 -0.3131  0.0208
35581POPC   GL172954  12.675  28.171  16.688 -0.4918 -0.3722  0.0672
35581POPC   GL272955  12.882  27.969  16.764 -0.1122  0.4319 -0.0319
35581POPC   C1A72956  12.521  28.024  17.108 -0.1122  0.1586 -0.0276
35581POPC   D2A72957  12.323  28.107  17.538 -0.3295 -0.1653  0.2366
35581POPC   C3A72958  12.628  28.307  17.822  0.2036 -0.0786  0.1456
35581POPC   C4A72959  12.791  28.164  18.218  0.0277  0.0086 -0.0075
35581POPC   C1B72960  12.941  27.742  17.169  0.2445  0.0354 -0.3757
35581POPC   C2B72961  12.654  27.742  17.515 -0.0540  0.0892  0.0799
35581POPC   C3B72962  12.478  27.818  17.919  0.0230  0.2292 -0.0213
35581POPC   C4B72963  12.347  27.516  18.298 -0.1306 -0.3893 -0.1857
35582POPC   NC372964   5.445  26.994  16.324  0.0070  0.2999 -0.0594
35582POPC   PO472965   5.671  26.769  16.140 -0.1272  0.3093 -0.5372
35582POPC   GL172966   5.758  26.633  16.522  0.0325  0.2468 -0.0296
35582POPC   GL272967   5.821  26.882  16.747  0.0114 -0.0978  0.0707
35582POPC   C1A72968   6.003  26.433  16.897  0.0243  0.5187  0.0239
35582POPC   D2A72969   6.191  26.406  17.237  0.0940  0.0401  0.0215
35582POPC   C3A72970   5.973  26.015  17.333 -0.4606  0.1506 -0.0512
35582POPC   C4A72971   5.806  25.967  17.745  0.1166  0.1659  0.0031
35582POPC   C1B72972   5.729  27.003  17.145 -0.1092 -0.3231  0.2202
35582POPC   C2B72973   5.802  26.977  17.628  0.0906 -0.1210 -0.0255
35582POPC   C3B72974   5.712  26.726  18.061 -0.1587 -0.0909 -0.1778
35582POPC   C4B72975   5.454  26.735  18.405  0.1963 -0.1209 -0.0669
35583POPC   NC372976   6.753  28.939  16.317  0.0075 -0.1641 -0.0253
35583POPC   PO472977   6.631  29.220  16.559 -0.4018 -0.0605 -0.3161
35583POPC   GL172978   6.376  29.183  16.894  0.1502 -0.1242  0.3018
35583POPC   GL272979   6.342  29.456  16.904 -0.2955 -0.0391  0.0647
35583POPC   C1A72980   6.295  28.895  17.278  0.0086 -0.0389 -0.1684
35583POPC   D2A72981   6.342  28.867  17.705 -0.0891  0.4035  0.0730
35583POPC   C3A72982   5.932  29.012  18.010 -0.1354  0.1402  0.2025
35583POPC   C4A72983   5.565  29.287  18.073 -0.0731 -0.1390 -0.2067
35583POPC   C1B72984   6.409  29.501  17.374  0.1431  0.0937 -0.0676
35583POPC   C2B72985   6.593  29.699  17.682  0.1277 -0.2008  0.0667
35583POPC   C3B72986   6.890  29.745  18.018  0.1176  0.0433  0.0948
35583POPC   C4B72987   7.002  29.752  18.412 -0.0974 -0.0309 -0.4035
35584POPC   NC372988  10.135  27.292  12.146 -0.0080 -0.0370 -0.2086
35584POPC   PO472989  10.436  27.472  12.019 -0.3004 -0.0138 -0.4817
35584POPC   GL172990  10.542  27.211  11.828 -0.0551 -0.1779  0.1063
35584POPC   GL272991  10.545  26.957  12.053  0.1631 -0.0966 -0.1098
35584POPC   C1A72992  10.615  26.962  11.431  0.0207 -0.2162  0.0190
35584POPC   D2A72993  10.571  26.870  10.953 -0.1477  0.0178  0.0397
35584POPC   C3A72994  10.187  26.662  10.759 -0.0674 -0.1366 -0.1124
35584POPC   C4A72995  10.281  26.241  10.650 -0.0476  0.2664 -0.0340
35584POPC   C1B72996  10.766  26.631  11.829 -0.3706  0.1707  0.0683
35584POPC   C2B72997  10.743  26.271  11.563  0.0371  0.1497  0.0415
35584POPC   C3B72998  10.748  25.897  11.276 -0.2350 -0.2407  0.0937
35584POPC   C4B72999  10.870  25.466  11.415  0.0936  0.0930 -0.1925
35585POPC   NC373000   1.841  32.263  16.367  0.1662 -0.0243 -0.3953
35585POPC   PO473001   2.154  32.475  16.448 -0.0541  0.1122 -0.1452
35585POPC   GL173002   2.407  32.660  16.729  0.0195  0.2509 -0.1856
35585POPC   GL273003   2.170  32.832  16.870  0.2103  0.0250 -0.1984
35585POPC   C1A73004   2.783  32.474  16.834 -0.1585 -0.1070  0.1213
35585POPC   D2A73005   3.236  32.416  16.812 -0.0196  0.0213  0.1614
35585POPC   C3A73006   3.424  32.544  17.210  0.0954 -0.0693 -0.2434
35585POPC   C4A73007   3.453  32.448  17.668  0.0046 -0.1996  0.0086
35585POPC   C1B73008   2.330  33.187  17.152 -0.0418 -0.0237 -0.1472
35585POPC   C2B73009   2.088  33.418  17.476 -0.0065  0.1821 -0.1084
35585POPC   C3B73010   2.237  33.716  17.774  0.1430  0.0173 -0.1045
35585POPC   C4B73011   2.055  33.867  18.168  0.2552 -0.1536 -0.1405
35586POPC   NC373012   4.406  15.670  15.902 -0.2896  0.0183 -0.0672
35586POPC   PO473013   4.394  15.333  16.100 -0.0502 -0.0353  0.2071
35586POPC   GL173014   4.363  15.557  16.441 -0.0330 -0.2954 -0.1461
35586POPC   GL273015   4.059  15.632  16.324 -0.2091 -0.6125 -0.0735
35586POPC   C1A73016   4.653  15.938  16.583  0.0301 -0.0678 -0.0676
35586POPC   D2A73017   5.027  16.009  16.871 -0.0431 -0.1480 -0.2471
35586POPC   C3A73018   5.044  16.274  17.250  0.1630  0.0851 -0.2363
35586POPC   C4A73019   5.031  16.695  17.367 -0.3343 -0.1006 -0.0046
35586POPC   C1B73020   4.116  15.840  16.714  0.0523 -0.1307  0.0857
35586POPC   C2B73021   4.112  15.886  17.204  0.0343  0.3158 -0.0938
35586POPC   C3B73022   4.218  16.210  17.442 -0.2052  0.0174 -0.0300
35586POPC   C4B73023   4.547  16.402  17.659  0.2239 -0.2370  0.0941
35587POPC   NC373024   1.215  19.886  15.930 -0.1133 -0.2341  0.1410
35587POPC   PO473025   1.583  20.035  15.829  0.0255  0.0580 -0.1999
35587POPC   GL173026   1.559  20.194  16.203 -0.3013  0.2065  0.2971
35587POPC   GL273027   1.517  19.924  16.353  0.0192 -0.0712  0.1364
35587POPC   C1A73028   1.828  20.154  16.643 -0.1740  0.1239 -0.1758
35587POPC   D2A73029   2.234  20.076  16.809 -0.1568 -0.0942  0.1079
35587POPC   C3A73030   2.218  20.145  17.234  0.0537  0.3450 -0.2490
35587POPC   C4A73031   2.282  20.495  17.594 -0.2597 -0.0337  0.4168
35587POPC   C1B73032   1.354  20.017  16.784  0.1172  0.0237  0.0356
35587POPC   C2B73033   0.957  19.890  17.011 -0.1517  0.3519 -0.0982
35587POPC   C3B73034   0.560  19.740  17.101 -0.0258  0.2598 -0.3545
35587POPC   C4B73035   0.327  19.492  17.394  0.1149 -0.0026 -0.1323
35588POPC   NC373036   1.226  27.181  15.977 -0.0638  0.0622  0.0603
35588POPC   PO473037   1.424  26.841  16.107  0.2120 -0.2014  0.0318
35588POPC   GL173038   1.376  26.687  16.451  0.1813  0.2719  0.4367
35588POPC   GL273039   1.218  26.864  16.635  0.0429 -0.2674 -0.0350
35588POPC   C1A73040   1.719  26.601  16.738 -0.0781 -0.0215 -0.2325
35588POPC   D2A73041   1.895  26.409  17.109 -0.2087 -0.4224 -0.2300
35588POPC   C3A73042   1.542  26.477  17.406  0.0126  0.1081  0.0319
35588POPC   C4A73043   1.261  26.716  17.677  0.0461 -0.1942 -0.0767
35588POPC   C1B73044   1.113  27.043  17.075  0.1315  0.0737 -0.1656
35588POPC   C2B73045   1.034  27.107  17.462  0.0654 -0.3077 -0.1309
35588POPC   C3B73046   0.972  27.068  17.901  0.4265  0.2166  0.2737
35588POPC   C4B73047   1.168  26.803  18.196 -0.1148 -0.1852  0.4055
35589POPC   NC373048   8.487  27.835   9.839  0.2174  0.3093 -0.2661
35589POPC   PO473049   8.738  27.914  10.140 -0.0385  0.2916 -0.2711
35589POPC   GL173050   8.765  27.612  10.107  0.2548 -0.2553 -0.2104
35589POPC   GL273051   8.791  27.366  10.267 -0.1574  0.1250 -0.0348
35589POPC   C1A73052   8.714  27.367   9.733 -0.0177  0.0993 -0.0892
35589POPC   D2A73053   8.938  26.985   9.529  0.0755 -0.0233  0.1124
35589POPC   C3A73054   9.086  26.899   9.080  0.0731 -0.0730 -0.0094
35589POPC   C4A73055   9.437  26.766   8.842  0.1639 -0.1362 -0.0318
35589POPC   C1B73056   8.975  26.983  10.056 -0.0349  0.2807 -0.0010
35589POPC   C2B73057   8.984  26.611   9.813 -0.0166 -0.0673  0.0114
35589POPC   C3B73058   9.131  26.199   9.638  0.0915 -0.1113  0.1520
35589POPC   C4B73059   9.229  25.938  10.012 -0.0308  0.1183 -0.2121
35590POPC   NC373060  10.183  26.818  14.207 -0.1519  0.2935 -0.0499
35590POPC   PO473061  10.154  26.734  13.822  0.0315  0.1168 -0.2090
35590POPC   GL173062  10.292  26.573  13.543 -0.0070  0.1127 -0.3158
35590POPC   GL273063  10.595  26.569  13.587  0.2971 -0.2105  0.0545
35590POPC   C1A73064  10.402  26.128  13.437 -0.2634  0.0311 -0.1033
35590POPC   D2A73065  10.637  25.809  13.303 -0.0519  0.1189  0.0461
35590POPC   C3A73066  10.623  25.341  13.475  0.2509  0.1344  0.0283
35590POPC   C4A73067  10.688  24.926  13.355 -0.0347  0.3218  0.0820
35590POPC   C1B73068  10.688  26.169  13.826  0.3046 -0.1602  0.0167
35590POPC   C2B73069  10.501  25.688  13.796 -0.1791  0.0339 -0.0759
35590POPC   C3B73070  10.268  25.418  14.111 -0.1070  0.0808 -0.1237
35590POPC   C4B73071  10.287  25.132  14.475  0.1544 -0.0929 -0.0756
35591POPC   NC373072  11.985  30.255  16.470 -0.2551  0.0081  0.2592
35591POPC   PO473073  11.742  29.923  16.454  0.0780 -0.2505 -0.0759
35591POPC   GL173074  11.795  29.979  16.811  0.2033  0.3246  0.0332
35591POPC   GL273075  11.467  30.023  16.909 -0.1009 -0.2448 -0.1415
35591POPC   C1A73076  11.696  29.597  17.093 -0.1862  0.0399 -0.1698
35591POPC   D2A73077  11.461  29.213  17.342  0.4144  0.0115 -0.3035
35591POPC   C3A73078  11.512  29.328  17.855  0.3370  0.0636 -0.0759
35591POPC   C4A73079  11.325  29.484  18.228 -0.5340  0.0836 -0.1917
35591POPC   C1B73080  11.236  30.077  17.326 -0.2048  0.0190 -0.2124
35591POPC   C2B73081  10.886  30.157  17.549 -0.3718  0.1197 -0.1321
35591POPC   C3B73082  10.508  29.887  17.634  0.0688 -0.1144 -0.2698
35591POPC   C4B73083  10.189  29.675  17.403  0.1501  0.1095 -0.1569
35592POPC   NC373084  16.065  19.518  14.826 -0.1576  0.2893 -0.1395
35592POPC   PO473085  16.052  19.803  15.127  0.0870 -0.1372  0.2660
35592POPC   GL173086  15.831  19.795  15.494 -0.0246  0.1572 -0.1203
35592POPC   GL273087  15.817  19.539  15.516 -0.1533  0.2334 -0.2655
35592POPC   C1A73088  15.770  19.932  15.905 -0.0314  0.0963 -0.0230
35592POPC   D2A73089  15.527  20.039  16.288 -0.1451  0.3354  0.5034
35592POPC   C3A73090  15.082  20.095  16.452 -0.0517  0.0903  0.0416
35592POPC   C4A73091  14.844  20.173  16.817  0.0374 -0.0853  0.2738
35592POPC   C1B73092  15.473  19.527  15.807  0.3390 -0.2361 -0.1104
35592POPC   C2B73093  15.231  19.644  16.242 -0.0712 -0.0674  0.1159
35592POPC   C3B73094  14.893  19.600  16.552  0.2720 -0.3244  0.1353
35592POPC   C4B73095  14.731  19.344  16.854 -0.1545  0.1771 -0.0742
35593POPC   NC373096   3.354  26.980   8.530 -0.2003  0.1412  0.3356
35593POPC   PO473097   3.037  27.122   8.401 -0.1769 -0.1433 -0.1541
35593POPC   GL173098   3.105  27.141   8.018 -0.2494 -0.0096 -0.0342
35593POPC   GL273099   3.060  27.402   7.826 -0.1272 -0.6656 -0.2775
35593POPC   C1A73100   3.042  26.884   7.649  0.1064  0.0220  0.0624
35593POPC   D2A73101   2.976  26.603   7.306 -0.0987  0.0370  0.0749
35593POPC   C3A73102   2.784  26.216   7.204 -0.0938  0.0913 -0.5401
35593POPC   C4A73103   2.512  25.875   7.243 -0.1386  0.1902 -0.1919
35593POPC   C1B73104   3.230  27.287   7.467 -0.0417  0.2146  0.0591
35593POPC   C2B73105   3.056  27.060   7.064  0.4408 -0.0711 -0.1766
35593POPC   C3B73106   3.162  26.940   6.649 -0.1568  0.1535 -0.1990
35593POPC   C4B73107   3.351  26.574   6.463 -0.0894  0.1060  0.0641
35594POPC   NC373108   3.955  24.918  15.458  0.1202 -0.2750  0.0669
35594POPC   PO473109   4.226  24.824  15.178 -0.1846 -0.2518  0.0906
35594POPC   GL173110   4.525  24.575  15.364 -0.1866 -0.2639  0.1898
35594POPC   GL273111   4.348  24.391  15.483  0.0079 -0.1692  0.2353
35594POPC   C1A73112   4.914  24.294  15.458 -0.2627  0.1173 -0.1191
35594POPC   D2A73113   5.277  24.161  15.758 -0.1599  0.0874 -0.1728
35594POPC   C3A73114   5.533  23.878  16.048 -0.0862 -0.3417  0.0100
35594POPC   C4A73115   5.924  23.706  16.283 -0.1603  0.0881 -0.0989
35594POPC   C1B73116   4.436  24.175  15.824 -0.0020  0.2506  0.1060
35594POPC   C2B73117   4.497  23.901  16.204 -0.0073  0.1480 -0.0232
35594POPC   C3B73118   4.700  23.622  16.584  0.1890 -0.0543  0.0408
35594POPC   C4B73119   5.001  23.286  16.732  0.0109 -0.0741 -0.0087
35595POPC   NC373120   6.124  18.480  11.603  0.1539 -0.0862  0.1180
35595POPC   PO473121   6.256  18.439  11.284  0.3780  0.0203 -0.2597
35595POPC   GL173122   6.436  18.683  11.327  0.0781 -0.2771  0.0210
35595POPC   GL273123   6.330  18.929  11.443 -0.1047  0.0672  0.1826
35595POPC   C1A73124   6.832  18.918  11.207  0.1160 -0.1552 -0.1079
35595POPC   D2A73125   7.292  18.978  11.322 -0.3613 -0.0092 -0.5966
35595POPC   C3A73126   7.260  19.404  11.489 -0.0022  0.0537  0.1373
35595POPC   C4A73127   7.265  19.577  11.927 -0.4710 -0.2108  0.1124
35595POPC   C1B73128   6.352  19.300  11.720 -0.1560 -0.4182  0.0780
35595POPC   C2B73129   6.646  19.610  12.012  0.0143  0.1870  0.0952
35595POPC   C3B73130   7.033  19.712  12.293 -0.1918 -0.3856 -0.1023
35595POPC   C4B73131   7.428  19.656  12.513  0.0716 -0.1091 -0.0068
35596POPC   NC373132   6.343  32.020  15.871  0.0628  0.4259 -0.1689
35596POPC   PO473133   5.993  32.187  16.011 -0.1855  0.0957 -0.2249
35596POPC   GL173134   5.879  32.458  16.176 -0.3067  0.0097  0.1267
35596POPC   GL273135   5.850  32.396  16.445  0.0964 -0.1458 -0.3584
35596POPC   C1A73136   6.148  32.796  16.396 -0.1946 -0.3810  0.2249
35596POPC   D2A73137   6.498  33.044  16.512 -0.1725  0.1002 -0.0706
35596POPC   C3A73138   6.698  33.181  16.868  0.1712 -0.3559 -0.0561
35596POPC   C4A73139   6.933  33.261  17.309  0.3583 -0.1339  0.0464
35596POPC   C1B73140   5.955  32.455  16.935 -0.2377  0.0106  0.0220
35596POPC   C2B73141   6.044  32.556  17.369  0.2453  0.0770 -0.0185
35596POPC   C3B73142   6.085  32.884  17.797 -0.3109 -0.3231  0.3239
35596POPC   C4B73143   6.353  33.276  17.891  0.0591 -0.0072 -0.0646
35597POPC   NC373144  14.569  23.693  11.230  0.0925 -0.1147  0.0874
35597POPC   PO473145  14.793  23.528  10.962 -0.1693 -0.0876 -0.1041
35597POPC   GL173146  14.478  23.382  10.742  0.0864 -0.4523 -0.0631
35597POPC   GL273147  14.313  23.335  10.983 -0.4317 -0.0206 -0.1730
35597POPC   C1A73148  14.219  23.578  10.359 -0.1591  0.2233 -0.3144
35597POPC   D2A73149  13.904  23.594  10.074  0.4588  0.1065 -0.3876
35597POPC   C3A73150  13.598  23.795   9.825  0.0752 -0.1737 -0.3073
35597POPC   C4A73151  13.223  23.978   9.925 -0.0016 -0.2408 -0.1104
35597POPC   C1B73152  13.999  23.139  10.699  0.2608  0.2304  0.0458
35597POPC   C2B73153  13.677  23.122  10.351  0.1323 -0.2036  0.0364
35597POPC   C3B73154  13.236  23.238  10.212 -0.0163  0.4340  0.0434
35597POPC   C4B73155  12.979  23.056   9.853  0.1200  0.1696  0.0365
35598POPC   NC373156   3.854  22.807  14.900  0.2866 -0.3746 -0.0003
35598POPC   PO473157   4.029  23.008  14.579  0.1271  0.1794  0.0116
35598POPC   GL173158   4.293  23.078  14.962  0.0893  0.0313 -0.0225
35598POPC   GL273159   4.324  22.785  15.071 -0.0903  0.1302 -0.0254
35598POPC   C1A73160   4.417  23.146  15.410 -0.0105  0.2874 -0.0912
35598POPC   D2A73161   4.726  23.114  15.727 -0.2409 -0.0048 -0.0971
35598POPC   C3A73162   5.136  23.041  15.920 -0.1527  0.1129  0.2956
35598POPC   C4A73163   5.290  23.100  16.299 -0.2538  0.0002  0.0334
35598POPC   C1B73164   4.748  22.936  15.105 -0.0680 -0.0441  0.5127
35598POPC   C2B73165   5.116  22.842  15.399  0.2687  0.0152  0.1193
35598POPC   C3B73166   5.459  22.807  15.676  0.1961 -0.2677  0.2791
35598POPC   C4B73167   5.715  22.910  16.093  0.0520  0.2464 -0.0688
35599POPC   NC373168  10.462  28.688  16.830 -0.0101  0.0435 -0.1483
35599POPC   PO473169  10.623  28.676  16.471  0.0688 -0.2172  0.0311
35599POPC   GL173170  10.697  28.325  16.679 -0.0143  0.0919 -0.3806
35599POPC   GL273171  10.622  28.071  16.773 -0.0960 -0.1632  0.3032
35599POPC   C1A73172  10.863  28.325  17.102 -0.0021  0.0613  0.0107
35599POPC   D2A73173  10.898  28.046  17.475  0.1062 -0.3254 -0.1715
35599POPC   C3A73174  11.233  27.915  17.676 -0.1394 -0.0216  0.1971
35599POPC   C4A73175  11.536  27.554  17.725 -0.1022 -0.0345  0.1565
35599POPC   C1B73176  10.683  27.646  16.898  0.0192  0.2745  0.0326
35599POPC   C2B73177  10.792  27.246  17.077  0.3650 -0.0027 -0.2256
35599POPC   C3B73178  11.069  26.888  17.145 -0.4514 -0.1607  0.0910
35599POPC   C4B73179  11.367  26.585  16.999 -0.1462  0.0032  0.1848
35600POPC   NC373180   2.174  20.727  15.345 -0.0349  0.0154  0.2598
35600POPC   PO473181   2.118  20.790  15.728 -0.1130 -0.2111 -0.2451
35600POPC   GL173182   2.270  20.910  16.100  0.2760 -0.1104  0.2292
35600POPC   GL273183   2.399  21.155  16.015 -0.1811 -0.1597 -0.3061
35600POPC   C1A73184   2.411  20.895  16.545  0.0861  0.1940 -0.0894
35600POPC   D2A73185   2.294  21.062  17.002  0.0594  0.1023 -0.2409
35600POPC   C3A73186   2.397  21.363  17.311  0.0772  0.2315 -0.2245
35600POPC   C4A73187   2.403  21.686  17.618 -0.1524 -0.0856  0.2692
35600POPC   C1B73188   2.082  21.390  16.372 -0.3307  0.1303  0.0889
35600POPC   C2B73189   1.884  21.305  16.772 -0.0747  0.1987  0.0349
35600POPC   C3B73190   1.650  21.509  17.131  0.1145 -0.2567  0.3940
35600POPC   C4B73191   1.359  21.533  17.480 -0.0025 -0.1667 -0.2477
35601POPC   NC373192   7.245  18.347  13.258  0.2491 -0.1029 -0.2993
35601POPC   PO473193   7.452  18.295  12.937 -0.1181  0.0964 -0.0850
35601POPC   GL173194   7.786  18.352  13.012 -0.0250 -0.2869 -0.1308
35601POPC   GL273195   8.049  18.280  13.071  0.5160 -0.1448  0.1442
35601POPC   C1A73196   7.909  18.774  13.218  0.0379  0.0795  0.1515
35601POPC   D2A73197   8.106  19.201  13.371  0.2034  0.0978  0.1339
35601POPC   C3A73198   8.017  19.630  13.348  0.1678  0.0974  0.0300
35601POPC   C4A73199   8.076  20.006  13.117  0.0152  0.0945  0.4814
35601POPC   C1B73200   8.348  18.578  13.181 -0.3588  0.1424 -0.1298
35601POPC   C2B73201   8.595  18.889  13.402 -0.0732 -0.3323  0.0031
35601POPC   C3B73202   8.586  19.303  13.547  0.0168  0.0975 -0.0056
35601POPC   C4B73203   8.558  19.818  13.463  0.2643  0.0802  0.0175
35602POPC   NC373204   1.844  21.143  15.941  0.2473 -0.1355  0.2249
35602POPC   PO473205   1.518  21.316  16.041  0.0179  0.0660  0.1875
35602POPC   GL173206   1.427  21.140  16.405  0.0864  0.3253 -0.0754
35602POPC   GL273207   1.341  20.836  16.288  0.3538 -0.0355 -0.2191
35602POPC   C1A73208   1.352  21.343  16.837 -0.0983 -0.0651  0.1088
35602POPC   D2A73209   1.217  21.108  17.224 -0.1497  0.0547 -0.0973
35602POPC   C3A73210   1.375  20.745  17.481 -0.0555  0.1075 -0.1763
35602POPC   C4A73211   1.506  20.635  17.946  0.0752 -0.1818  0.2016
35602POPC   C1B73212   1.116  20.871  16.669  0.0756  0.3673 -0.0511
35602POPC   C2B73213   1.143  20.591  17.029 -0.2967 -0.2237 -0.1252
35602POPC   C3B73214   1.164  20.236  17.319 -0.2046  0.2617 -0.0115
35602POPC   C4B73215   0.800  19.979  17.484 -0.0134 -0.2215 -0.3549
35603POPC   NC373216   8.494  27.240  12.190  0.3730 -0.1386 -0.0169
35603POPC   PO473217   8.856  27.397  12.187  0.1028 -0.1218 -0.0640
35603POPC   GL173218   9.100  27.034  12.155 -0.2096 -0.0506 -0.0388
35603POPC   GL273219   8.888  26.886  12.278  0.1394  0.2341  0.0180
35603POPC   C1A73220   9.140  26.785  11.826 -0.2424 -0.1691 -0.0078
35603POPC   D2A73221   9.428  26.732  11.525  0.2171 -0.2552  0.0226
35603POPC   C3A73222   9.738  26.992  11.428 -0.1585  0.0365  0.2358
35603POPC   C4A73223  10.114  26.900  11.205  0.0375 -0.1761  0.2291
35603POPC   C1B73224   8.829  26.438  12.219 -0.1391  0.0725 -0.0497
35603POPC   C2B73225   8.773  26.020  11.994  0.1773 -0.0675 -0.2983
35603POPC   C3B73226   9.034  25.755  11.699  0.1624 -0.1485 -0.0947
35603POPC   C4B73227   9.144  25.422  11.443 -0.0161  0.0601  0.1301
35604POPC   NC373228  14.838  29.535  20.865 -0.0593  0.0709 -0.1065
35604POPC   PO473229  14.542  29.333  20.771 -0.0510  0.1619  0.3966
35604POPC   GL173230  14.656  29.317  20.388 -0.3572  0.0820  0.2384
35604POPC   GL273231  14.738  29.067  20.375 -0.0364 -0.2575 -0.0849
35604POPC   C1A73232  14.302  29.385  20.145  0.0546 -0.2011 -0.2950
35604POPC   D2A73233  14.249  29.832  19.971  0.3023  0.0699 -0.3599
35604POPC   C3A73234  14.480  30.125  19.688 -0.1292  0.2797  0.2508
35604POPC   C4A73235  14.541  30.206  19.273  0.1113 -0.1508 -0.2575
35604POPC   C1B73236  14.729  29.114  19.932  0.1263  0.1673  0.1962
35604POPC   C2B73237  14.576  29.047  19.517 -0.0169 -0.0854  0.1670
35604POPC   C3B73238  14.331  28.909  19.124 -0.0993  0.0897  0.0237
35604POPC   C4B73239  14.261  28.542  18.766 -0.0273  0.3885 -0.1613
35605POPC   NC373240  14.408  28.905  20.992  0.2614  0.0454 -0.1066
35605POPC   PO473241  14.662  28.734  20.739 -0.1832  0.2097 -0.2776
35605POPC   GL173242  14.530  28.588  20.398  0.3430  0.4057 -0.2306
35605POPC   GL273243  14.620  28.686  20.154 -0.1218  0.0964  0.1121
35605POPC   C1A73244  14.140  28.477  20.163 -0.0300  0.0199  0.2726
35605POPC   D2A73245  13.707  28.612  20.147 -0.2653 -0.0477 -0.0014
35605POPC   C3A73246  13.803  28.611  19.702  0.3304 -0.1312  0.0907
35605POPC   C4A73247  13.516  28.702  19.312 -0.1245 -0.0762  0.0785
35605POPC   C1B73248  14.252  28.926  19.930 -0.1337 -0.3019 -0.1828
35605POPC   C2B73249  14.167  29.380  19.675  0.0159 -0.1426 -0.2206
35605POPC   C3B73250  14.201  29.808  19.458 -0.2207 -0.2782 -0.1335
35605POPC   C4B73251  14.175  29.995  19.065  0.0020 -0.0907  0.2369
35606POPC   NC373252   4.763  25.701  20.348 -0.2312  0.1368  0.0443
35606POPC   PO473253   4.893  25.414  20.059  0.1997 -0.0490 -0.2944
35606POPC   GL173254   4.827  25.596  19.770 -0.1249 -0.1902 -0.1149
35606POPC   GL273255   4.703  25.864  19.838 -0.2914 -0.0356 -0.1692
35606POPC   C1A73256   4.780  25.826  19.362  0.1194  0.1763  0.0157
35606POPC   D2A73257   4.667  25.951  18.924 -0.1017  0.1777 -0.2009
35606POPC   C3A73258   4.991  26.121  18.574  0.0834 -0.0917  0.0130
35606POPC   C4A73259   5.191  26.353  18.238  0.1869 -0.0373 -0.0297
35606POPC   C1B73260   4.319  25.844  19.512 -0.0773 -0.1232  0.0010
35606POPC   C2B73261   4.080  26.069  19.217  0.1376  0.3858  0.1533
35606POPC   C3B73262   3.987  26.243  18.822  0.1378 -0.0348  0.2121
35606POPC   C4B73263   3.566  26.404  18.723  0.2604  0.4676  0.1450
35607POPC   NC373264   8.876  30.358  20.013 -0.1161 -0.3517 -0.1605
35607POPC   PO473265   8.565  30.201  20.256  0.0035 -0.1375  0.3375
35607POPC   GL173266   8.447  30.165  19.948 -0.2800  0.1950  0.3554
35607POPC   GL273267   8.357  30.417  19.779  0.1059  0.3340  0.0197
35607POPC   C1A73268   8.549  29.836  19.582  0.0366  0.0038  0.2190
35607POPC   D2A73269   8.897  29.615  19.379  0.0797  0.2708 -0.2819
35607POPC   C3A73270   8.858  29.497  18.948 -0.0791 -0.0915 -0.3167
35607POPC   C4A73271   8.665  29.404  18.523  0.7605 -0.0619 -0.3517
35607POPC   C1B73272   7.991  30.275  19.495  0.3566 -0.1116 -0.2774
35607POPC   C2B73273   7.794  30.292  19.107 -0.2644 -0.1988  0.0238
35607POPC   C3B73274   7.881  30.152  18.630  0.2487  0.1877 -0.2352
35607POPC   C4B73275   8.041  30.316  18.286  0.0571 -0.0876 -0.1312
35608POPC   NC373276  15.016  28.647  20.448 -0.0324 -0.4226  0.2110
35608POPC   PO473277  15.376  28.425  20.425 -0.0722 -0.3569 -0.2140
35608POPC   GL173278  15.588  28.425  20.068  0.3955  0.0875  0.1944
35608POPC   GL273279  15.428  28.461  19.839  0.0989  0.2573  0.0979
35608POPC   C1A73280  15.915  28.658  19.814 -0.0230 -0.1890 -0.0912
35608POPC   D2A73281  15.923  28.909  19.409 -0.2438  0.0789 -0.2730
35608POPC   C3A73282  15.765  28.985  18.997 -0.3836  0.0408  0.0273
35608POPC   C4A73283  15.494  29.195  18.612 -0.2566 -0.1466  0.3394
35608POPC   C1B73284  15.472  28.759  19.495 -0.0060  0.0402  0.1598
35608POPC   C2B73285  15.293  28.958  19.132 -0.1505 -0.1795  0.0076
35608POPC   C3B73286  15.180  28.780  18.675 -0.2134  0.0159 -0.3968
35608POPC   C4B73287  15.126  28.875  18.211  0.0449 -0.0728 -0.1903
35609POPC   NC373288  15.232  22.918  19.099 -0.0075  0.1987  0.0417
35609POPC   PO473289  15.466  22.639  18.926 -0.0976 -0.1146 -0.1538
35609POPC   GL173290  15.610  22.472  18.642  0.2013  0.0599  0.1749
35609POPC   GL273291  15.947  22.485  18.724  0.0384  0.0281  0.2144
35609POPC   C1A73292  15.506  22.436  18.171  0.2081  0.1359 -0.3777
35609POPC   D2A73293  15.210  22.614  17.885 -0.0223  0.1562 -0.1126
35609POPC   C3A73294  15.062  22.829  17.515 -0.1851  0.0338  0.1159
35609POPC   C4A73295  14.702  22.756  17.206 -0.3432 -0.1380 -0.1903
35609POPC   C1B73296  15.974  22.587  18.292 -0.1798 -0.4166  0.0900
35609POPC   C2B73297  15.866  22.530  17.818 -0.0375 -0.4843  0.2927
35609POPC   C3B73298  15.627  22.500  17.405  0.0941  0.2466  0.2767
35609POPC   C4B73299  15.361  22.621  17.083  0.2302 -0.1213  0.1688
35610POPC   NC373300   0.514  16.475  20.291  0.1139  0.1372 -0.0283
35610POPC   PO473301   0.201  16.401  20.156  0.1605 -0.0136  0.0699
35610POPC   GL173302   0.127  16.294  19.789 -0.0668 -0.4298  0.0474
35610POPC   GL273303   0.399  16.365  19.639  0.1796  0.1326  0.0097
35610POPC   C1A73304  -0.154  15.976  19.547  0.0903  0.1340 -0.1768
35610POPC   D2A73305  -0.525  15.905  19.285  0.0964 -0.4954  0.0085
35610POPC   C3A73306  -0.317  15.780  18.892 -0.2175  0.1912 -0.1291
35610POPC   C4A73307   0.085  15.767  18.698  0.1924 -0.2810 -0.0880
35610POPC   C1B73308   0.485  16.404  19.230  0.1114  0.0598  0.2225
35610POPC   C2B73309   0.535  16.139  18.855  0.0546  0.1495  0.0363
35610POPC   C3B73310   0.930  15.963  18.599  0.0747 -0.0901  0.0963
35610POPC   C4B73311   1.352  15.862  18.504  0.1982 -0.0527  0.1301
35611POPC   NC373312   0.728  30.589  20.656 -0.0051 -0.0294  0.0844
35611POPC   PO473313   0.691  30.903  20.845  0.1450 -0.1324  0.3838
35611POPC   GL173314   0.355  30.866  20.633  0.1170  0.0922 -0.1079
35611POPC   GL273315   0.481  30.948  20.390 -0.2258  0.2968  0.0814
35611POPC   C1A73316   0.115  30.624  20.300  0.0562  0.0466 -0.1193
35611POPC   D2A73317   0.059  30.462  19.855 -0.3143 -0.3184  0.2347
35611POPC   C3A73318   0.009  30.727  19.477  0.1686 -0.0258 -0.0838
35611POPC   C4A73319  -0.266  31.063  19.497 -0.2230  0.0023  0.0014
35611POPC   C1B73320   0.550  30.649  20.046 -0.4650  0.0906  0.0536
35611POPC   C2B73321   0.470  30.514  19.551  0.0427 -0.1609  0.0129
35611POPC   C3B73322   0.628  30.638  19.184 -0.1383  0.0062 -0.2127
35611POPC   C4B73323   0.901  30.589  18.814 -0.1687 -0.2923  0.0443
35612POPC   NC373324   7.257  21.164  17.138 -0.0384 -0.4573  0.1013
35612POPC   PO473325   7.416  21.506  17.250  0.2002  0.0876 -0.1977
35612POPC   GL173326   7.178  21.565  16.845 -0.4561  0.3333 -0.0681
35612POPC   GL273327   6.932  21.418  16.868 -0.1312  0.1459  0.1902
35612POPC   C1A73328   7.034  21.903  16.567  0.2130 -0.2089 -0.0393
35612POPC   D2A73329   6.942  22.163  16.141  0.0811 -0.0455  0.2323
35612POPC   C3A73330   6.695  22.595  16.210  0.0006 -0.0073  0.2271
35612POPC   C4A73331   6.641  23.064  16.366 -0.4217 -0.0227 -0.0217
35612POPC   C1B73332   6.564  21.657  16.655 -0.2017  0.3323 -0.0250
35612POPC   C2B73333   6.117  21.698  16.411  0.2878 -0.1540  0.1145
35612POPC   C3B73334   5.720  21.535  16.290 -0.0473  0.2375  0.0280
35612POPC   C4B73335   5.299  21.406  16.441 -0.2273  0.2081  0.0853
35613POPC   NC373336   2.088  24.735  20.294 -0.0673 -0.0708  0.0586
35613POPC   PO473337   2.485  24.620  20.290  0.0605  0.1084  0.2562
35613POPC   GL173338   2.595  24.540  19.934  0.0631 -0.0152 -0.1810
35613POPC   GL273339   2.625  24.810  19.884 -0.3054 -0.1814 -0.1197
35613POPC   C1A73340   2.494  24.393  19.516  0.1637  0.1928  0.0399
35613POPC   D2A73341   2.426  24.644  19.106  0.0664 -0.2523 -0.0165
35613POPC   C3A73342   2.391  24.887  18.698 -0.4095  0.0881 -0.2575
35613POPC   C4A73343   2.509  25.178  18.366 -0.0859  0.1459  0.0407
35613POPC   C1B73344   2.727  24.925  19.389 -0.1676 -0.1699 -0.4509
35613POPC   C2B73345   2.754  25.119  18.954  0.1012  0.1463  0.2285
35613POPC   C3B73346   2.818  25.479  18.655  0.1559 -0.2285  0.5204
35613POPC   C4B73347   3.022  25.461  18.256 -0.1901  0.2955 -0.2803
35614POPC   NC373348  11.041  27.032  19.833 -0.0713  0.1099  0.3028
35614POPC   PO473349  10.947  26.661  19.757 -0.0390 -0.3587 -0.2033
35614POPC   GL173350  10.802  26.687  19.379  0.1355 -0.1738 -0.0448
35614POPC   GL273351  11.018  26.675  19.229 -0.1822 -0.1260 -0.1904
35614POPC   C1A73352  10.650  27.043  19.078  0.0918 -0.0052 -0.1177
35614POPC   D2A73353  10.850  27.235  18.742  0.0438  0.0760 -0.2627
35614POPC   C3A73354  10.933  27.282  18.343 -0.0026  0.0097 -0.1087
35614POPC   C4A73355  10.939  27.505  17.925  0.1129  0.0425  0.0525
35614POPC   C1B73356  10.922  26.730  18.827 -0.0420 -0.1115 -0.0591
35614POPC   C2B73357  10.846  26.800  18.339  0.1788 -0.1097  0.2451
35614POPC   C3B73358  10.728  26.931  17.922  0.4212  0.0845  0.1249
35614POPC   C4B73359  10.654  26.960  17.493 -0.0108 -0.0375 -0.2865
35615POPC   NC373360   9.852  25.009  19.052  0.0243  0.1242 -0.0290
35615POPC   PO473361   9.963  24.794  18.749  0.3524 -0.0762 -0.1793
35615POPC   GL173362   9.945  25.000  18.466  0.1260  0.0543 -0.2824
35615POPC   GL273363   9.899  25.325  18.607  0.0556 -0.2068  0.0297
35615POPC   C1A73364   9.676  25.157  18.084 -0.1779  0.3428  0.1388
35615POPC   D2A73365   9.581  25.081  17.606 -0.2487  0.1947 -0.1534
35615POPC   C3A73366   9.307  25.309  17.306  0.2570  0.0943 -0.2686
35615POPC   C4A73367   9.397  25.732  17.182 -0.2962 -0.1393 -0.1619
35615POPC   C1B73368   9.627  25.635  18.482  0.1341 -0.1007  0.1616
35615POPC   C2B73369   9.627  25.975  18.176 -0.1530 -0.0916  0.1560
35615POPC   C3B73370   9.410  26.320  17.940 -0.0508 -0.0852  0.0054
35615POPC   C4B73371   9.226  26.738  18.039 -0.1051  0.1649  0.0575
35616POPC   NC373372   1.523  21.341  19.903 -0.3163 -0.0246  0.1496
35616POPC   PO473373   1.158  21.307  19.751 -0.0928 -0.2049 -0.0418
35616POPC   GL173374   1.289  21.598  19.477  0.1847 -0.1615 -0.0730
35616POPC   GL273375   1.021  21.618  19.350 -0.1391 -0.1507  0.0437
35616POPC   C1A73376   1.325  21.540  18.984 -0.1034  0.3990 -0.1169
35616POPC   D2A73377   1.633  21.200  18.724  0.0184  0.0894 -0.1178
35616POPC   C3A73378   1.797  21.446  18.334  0.0535 -0.2898 -0.1423
35616POPC   C4A73379   1.797  21.779  18.016  0.2388  0.0026  0.2390
35616POPC   C1B73380   0.721  21.453  19.000  0.3561 -0.0367 -0.0247
35616POPC   C2B73381   0.742  21.331  18.598  0.3696  0.0651 -0.1722
35616POPC   C3B73382   0.787  21.161  18.173  0.0050  0.2309 -0.2277
35616POPC   C4B73383   0.981  21.152  17.707 -0.2089 -0.1148  0.2157
35617POPC   NC373384   8.813  18.228  18.102  0.1194  0.0792 -0.0367
35617POPC   PO473385   9.011  18.469  18.340 -0.0326  0.2263 -0.2977
35617POPC   GL173386   9.243  18.386  18.023  0.1912  0.1616  0.2890
35617POPC   GL273387   9.054  18.468  17.764 -0.2047  0.2264  0.0449
35617POPC   C1A73388   9.342  18.023  17.729 -0.1356  0.4204 -0.0514
35617POPC   D2A73389   9.190  17.892  17.325 -0.0298  0.0280  0.3936
35617POPC   C3A73390   9.545  17.907  17.017 -0.2489  0.0089 -0.0263
35617POPC   C4A73391   9.784  17.592  16.810  0.2441 -0.2582  0.0569
35617POPC   C1B73392   8.815  18.140  17.599  0.0466 -0.2872 -0.1076
35617POPC   C2B73393   8.554  17.817  17.879 -0.1193  0.0401 -0.0033
35617POPC   C3B73394   8.163  17.580  17.828 -0.4476  0.1817  0.0399
35617POPC   C4B73395   7.762  17.456  18.022  0.1884  0.4008  0.2966
35618POPC   NC373396  13.620  21.122  18.070  0.1513 -0.1727  0.0491
35618POPC   PO473397  13.908  21.357  18.107 -0.1049 -0.2150 -0.0715
35618POPC   GL173398  14.108  21.400  17.717  0.0562 -0.2596  0.1515
35618POPC   GL273399  13.837  21.495  17.515 -0.0195 -0.0603 -0.0029
35618POPC   C1A73400  14.313  21.342  17.310 -0.1872 -0.1238 -0.0738
35618POPC   D2A73401  14.600  21.247  16.938 -0.1873 -0.0444  0.0126
35618POPC   C3A73402  15.078  21.429  16.859 -0.0065  0.1097 -0.0012
35618POPC   C4A73403  15.328  21.793  16.759 -0.0800 -0.0993  0.2520
35618POPC   C1B73404  13.908  21.601  17.058  0.2058 -0.0145 -0.1050
35618POPC   C2B73405  14.171  21.378  16.770  0.2037 -0.1845 -0.1590
35618POPC   C3B73406  13.897  21.185  16.463 -0.0721 -0.3978  0.1099
35618POPC   C4B73407  13.540  20.850  16.412 -0.0369  0.2434 -0.0079
35619POPC   NC373408   5.051  31.725  20.841 -0.2292 -0.1652 -0.1068
35619POPC   PO473409   5.413  31.750  20.679 -0.1160 -0.1395  0.2729
35619POPC   GL173410   5.164  31.818  20.246  0.1694  0.0264  0.2563
35619POPC   GL273411   5.029  32.102  20.195  0.1129  0.0447  0.1050
35619POPC   C1A73412   5.492  32.005  19.983 -0.0131  0.2739 -0.1524
35619POPC   D2A73413   5.945  32.022  19.800  0.0078 -0.3385  0.0311
35619POPC   C3A73414   6.431  32.031  19.729  0.1444  0.0782 -0.0647
35619POPC   C4A73415   6.877  32.077  19.788 -0.0901 -0.2546 -0.0092
35619POPC   C1B73416   4.852  31.814  19.833  0.0853 -0.2884  0.1891
35619POPC   C2B73417   4.626  31.479  19.676  0.3349  0.0313  0.0666
35619POPC   C3B73418   4.372  31.456  19.312 -0.2495  0.0768 -0.1443
35619POPC   C4B73419   3.921  31.243  19.296  0.2628 -0.0879  0.1005
35620POPC   NC373420  10.953  21.991  14.830  0.3524  0.0612  0.1502
35620POPC   PO473421  11.279  21.891  15.010  0.3434  0.1106 -0.2763
35620POPC   GL173422  11.759  21.748  14.986 -0.0292 -0.0171  0.0870
35620POPC   GL273423  11.605  21.537  14.994 -0.2515  0.0095  0.0174
35620POPC   C1A73424  12.216  21.787  15.088  0.2738 -0.1295 -0.4432
35620POPC   D2A73425  12.551  22.084  15.233  0.3855  0.1846  0.1646
35620POPC   C3A73426  12.965  22.025  15.093 -0.0254 -0.2349  0.1252
35620POPC   C4A73427  13.350  22.225  15.082 -0.0748  0.3642 -0.2286
35620POPC   C1B73428  11.997  21.380  14.816 -0.4311  0.0145  0.2323
35620POPC   C2B73429  12.404  21.232  14.639 -0.2248 -0.0555 -0.0506
35620POPC   C3B73430  12.757  20.964  14.439 -0.0193 -0.0143  0.1696
35620POPC   C4B73431  13.173  20.902  14.614  0.3190 -0.0415 -0.1589
35621POPC   NC373432   4.609  24.430  19.457  0.3458  0.2669 -0.2765
35621POPC   PO473433   4.994  24.446  19.527 -0.2445 -0.2827  0.0456
35621POPC   GL173434   5.232  24.620  19.209 -0.0156 -0.0349 -0.2326
35621POPC   GL273435   5.088  24.840  19.181  0.0395 -0.5374 -0.5902
35621POPC   C1A73436   5.227  24.690  18.735  0.0818 -0.0864  0.0957
35621POPC   D2A73437   5.493  24.702  18.379  0.0048  0.0645 -0.2263
35621POPC   C3A73438   5.465  24.587  17.917 -0.1240 -0.1311  0.1917
35621POPC   C4A73439   5.391  24.862  17.552 -0.1547  0.1545  0.1438
35621POPC   C1B73440   4.693  24.781  18.969 -0.2466 -0.1491 -0.0859
35621POPC   C2B73441   4.626  25.001  18.542  0.0260 -0.2821 -0.0835
35621POPC   C3B73442   4.583  25.343  18.214 -0.0597 -0.2470 -0.1889
35621POPC   C4B73443   4.707  25.552  17.851  0.2173 -0.0580 -0.1396
35622POPC   NC373444  16.374  17.223  19.782 -0.2554  0.0090 -0.1616
35622POPC   PO473445  16.770  17.166  19.663 -0.0284  0.0715  0.0824
35622POPC   GL173446  16.669  17.050  19.331  0.2695 -0.1046 -0.3992
35622POPC   GL273447  16.401  17.003  19.243  0.3179  0.0751  0.3559
35622POPC   C1A73448  16.804  16.688  19.077 -0.0742  0.0714  0.0391
35622POPC   D2A73449  16.823  16.506  18.663 -0.0704  0.1048  0.2423
35622POPC   C3A73450  16.547  16.821  18.444 -0.0152  0.2011 -0.1661
35622POPC   C4A73451  16.473  17.281  18.336 -0.0187 -0.2214 -0.0655
35622POPC   C1B73452  16.466  17.178  18.844  0.0258  0.1852 -0.0557
35622POPC   C2B73453  16.805  17.520  18.674  0.3741 -0.2209  0.1300
35622POPC   C3B73454  17.153  17.630  18.568  0.1904  0.0475  0.1493
35622POPC   C4B73455  17.359  17.936  18.367  0.4552  0.0266  0.4468
35623POPC   NC373456   2.352  25.555  20.285 -0.1048 -0.0321 -0.0874
35623POPC   PO473457   2.608  25.842  20.145  0.1580 -0.0324 -0.1770
35623POPC   GL173458   2.512  26.010  19.787  0.0484  0.2299  0.2783
35623POPC   GL273459   2.574  25.825  19.596  0.0596  0.2028  0.2765
35623POPC   C1A73460   2.425  26.279  19.425  0.2858  0.0444  0.1258
35623POPC   D2A73461   2.239  26.669  19.137 -0.3848 -0.1737  0.0128
35623POPC   C3A73462   2.386  26.743  18.675 -0.0654 -0.0276  0.1010
35623POPC   C4A73463   2.565  27.051  18.316 -0.3514 -0.1294 -0.0657
35623POPC   C1B73464   2.577  25.920  19.112  0.2576  0.1568 -0.1893
35623POPC   C2B73465   2.294  26.189  18.869  0.2573  0.1702  0.4093
35623POPC   C3B73466   1.996  26.169  18.488 -0.4069 -0.2548 -0.0229
35623POPC   C4B73467   1.595  26.059  18.435 -0.1580  0.0749 -0.4300
35624POPC   NC373468  10.982  22.072  11.885 -0.2822 -0.0260  0.0111
35624POPC   PO473469  10.906  22.452  12.040  0.2756 -0.0857  0.0875
35624POPC   GL173470  11.310  22.630  12.166  0.1494 -0.0067 -0.1663
35624POPC   GL273471  11.410  22.455  12.337  0.0501 -0.2310 -0.0082
35624POPC   C1A73472  11.747  22.629  11.944  0.2717  0.1220 -0.0395
35624POPC   D2A73473  12.139  22.417  11.949  0.2553 -0.1547 -0.0820
35624POPC   C3A73474  11.878  22.044  12.097  0.0322 -0.1835  0.1717
35624POPC   C4A73475  11.502  21.836  12.114  0.0707  0.2889  0.0034
35624POPC   C1B73476  11.730  22.311  12.598 -0.1074  0.0385 -0.2515
35624POPC   C2B73477  11.979  22.196  12.954  0.2056 -0.1850 -0.2536
35624POPC   C3B73478  12.224  21.820  13.061 -0.1166 -0.2438  0.1577
35624POPC   C4B73479  12.535  21.532  13.324  0.2595 -0.2166  0.0822
35625POPC   NC373480   9.849  21.325  13.656 -0.2196 -0.0856  0.2636
35625POPC   PO473481  10.164  21.316  13.471  0.1183 -0.2725 -0.1973
35625POPC   GL173482  10.389  21.073  13.334  0.0059  0.4598  0.3511
35625POPC   GL273483  10.422  20.850  13.510 -0.0855 -0.0293  0.0240
35625POPC   C1A73484  10.765  21.158  13.103  0.1312  0.1764 -0.0520
35625POPC   D2A73485  11.136  21.092  12.847 -0.0745 -0.3399  0.1121
35625POPC   C3A73486  11.517  21.317  12.875  0.1117 -0.0382 -0.0869
35625POPC   C4A73487  11.848  20.996  12.723  0.2663  0.1797  0.0200
35625POPC   C1B73488  10.631  20.652  13.153 -0.1355 -0.0867 -0.0091
35625POPC   C2B73489  11.025  20.406  13.079  0.0234  0.1143 -0.1476
35625POPC   C3B73490  11.221  20.237  12.806 -0.1852 -0.2958 -0.1029
35625POPC   C4B73491  11.678  20.400  12.605  0.1870  0.2240 -0.2364
35626POPC   NC373492  15.406  21.806  19.301 -0.2258  0.0496  0.1206
35626POPC   PO473493  15.766  21.858  19.227  0.1823  0.0532  0.0181
35626POPC   GL173494  15.834  21.866  18.786 -0.1325  0.0707  0.0163
35626POPC   GL273495  15.784  22.052  18.500 -0.3230 -0.1510 -0.3675
35626POPC   C1A73496  16.205  21.757  18.537 -0.1584  0.1808  0.0134
35626POPC   D2A73497  16.704  21.854  18.361  0.0290  0.1161 -0.0225
35626POPC   C3A73498  16.856  21.597  17.999 -0.1572  0.2130 -0.0548
35626POPC   C4A73499  17.102  21.249  17.796  0.0193 -0.0051  0.1004
35626POPC   C1B73500  15.922  22.125  18.141 -0.0292  0.1735 -0.0339
35626POPC   C2B73501  16.271  21.915  18.065 -0.1408  0.5207 -0.0556
35626POPC   C3B73502  16.654  22.053  17.863  0.0942 -0.1722  0.1562
35626POPC   C4B73503  17.113  22.054  17.810 -0.0515 -0.0465  0.0777
35627POPC   NC373504   2.540  19.824  19.723 -0.3420 -0.0357 -0.0497
35627POPC   PO473505   2.767  19.510  19.680 -0.1237  0.2361  0.1824
35627POPC   GL173506   2.871  19.388  19.264  0.1948  0.1750 -0.0491
35627POPC   GL273507   2.934  19.663  19.224  0.1707  0.2239 -0.0412
35627POPC   C1A73508   2.812  19.101  18.845 -0.0956  0.1511 -0.0349
35627POPC   D2A73509   2.797  18.700  18.637  0.0350 -0.0362 -0.0966
35627POPC   C3A73510   2.924  18.669  18.131 -0.1030 -0.0454 -0.0541
35627POPC   C4A73511   3.077  18.630  17.701  0.1802 -0.0093  0.1015
35627POPC   C1B73512   2.694  19.541  18.853 -0.0225 -0.4896 -0.1607
35627POPC   C2B73513   2.925  19.523  18.449  0.0300  0.0527 -0.0645
35627POPC   C3B73514   3.255  19.544  18.112  0.1552 -0.4960 -0.1233
35627POPC   C4B73515   3.691  19.410  18.084  0.2866 -0.0922  0.0052
35628POPC   NC373516   8.454  18.803  18.450 -0.2665  0.1670  0.0462
35628POPC   PO473517   8.417  18.414  18.375  0.1208  0.2959  0.0474
35628POPC   GL173518   8.096  18.314  18.059 -0.1177 -0.1381 -0.0028
35628POPC   GL273519   8.260  18.224  17.806  0.0763 -0.0056  0.3649
35628POPC   C1A73520   7.873  18.436  17.632 -0.2696 -0.2106  0.1886
35628POPC   D2A73521   7.953  18.559  17.243  0.2623  0.1159 -0.0624
35628POPC   C3A73522   7.681  18.740  16.919 -0.3528 -0.1405 -0.0795
35628POPC   C4A73523   7.406  18.601  16.562  0.4632 -0.1305 -0.1890
35628POPC   C1B73524   8.266  18.104  17.343 -0.0002 -0.2873  0.0710
35628POPC   C2B73525   8.306  17.958  16.933  0.1038  0.1375  0.2248
35628POPC   C3B73526   8.261  17.996  16.475 -0.0303 -0.1279 -0.1713
35628POPC   C4B73527   8.593  17.903  16.166  0.1833  0.2253 -0.1042
35629POPC   NC373528   9.518  20.520  15.842 -0.0785 -0.0757 -0.1039
35629POPC   PO473529   9.383  20.359  16.174  0.1202  0.0268 -0.2680
35629POPC   GL173530   9.371  20.023  15.999  0.5194 -0.0908 -0.0286
35629POPC   GL273531   9.362  20.006  15.697  0.1011 -0.2193  0.0462
35629POPC   C1A73532   9.076  19.674  15.981  0.0852  0.0881 -0.1011
35629POPC   D2A73533   8.701  19.774  15.716  0.1022 -0.1364 -0.0750
35629POPC   C3A73534   8.641  19.473  15.415  0.1034 -0.0037  0.0617
35629POPC   C4A73535   8.667  19.308  14.976  0.0097  0.1631  0.0847
35629POPC   C1B73536   9.068  19.707  15.437 -0.2335 -0.1385  0.3453
35629POPC   C2B73537   9.132  19.447  15.081  0.1788  0.2773  0.1315
35629POPC   C3B73538   9.448  19.344  14.684  0.7078 -0.0933 -0.5803
35629POPC   C4B73539   9.661  19.492  14.350 -0.4261  0.0624  0.1568
35630POPC   NC373540   4.158  22.789  19.445 -0.0310 -0.0275  0.1824
35630POPC   PO473541   4.426  22.520  19.389 -0.0711  0.0446 -0.1248
35630POPC   GL173542   4.310  22.485  19.012  0.1945 -0.0780 -0.2278
35630POPC   GL273543   4.604  22.623  18.874  0.2118 -0.0978 -0.1246
35630POPC   C1A73544   4.154  22.380  18.593  0.2952 -0.1097 -0.1741
35630POPC   D2A73545   3.979  22.397  18.141  0.2947 -0.1357  0.0979
35630POPC   C3A73546   3.652  22.347  17.863 -0.3023  0.1192  0.1178
35630POPC   C4A73547   3.409  22.102  17.575 -0.1687  0.0457 -0.0600
35630POPC   C1B73548   4.514  22.725  18.435  0.1292  0.0398  0.2854
35630POPC   C2B73549   4.343  22.726  18.026 -0.0897  0.1651 -0.2465
35630POPC   C3B73550   4.141  22.973  17.654  0.0221  0.1469  0.0611
35630POPC   C4B73551   4.108  22.838  17.194  0.1914 -0.0263  0.0727
35631POPC   NC373552   3.967  25.174  20.196 -0.1172 -0.1636  0.0937
35631POPC   PO473553   3.789  25.533  20.110 -0.0637  0.2132 -0.1021
35631POPC   GL173554   3.821  25.616  19.738  0.3726 -0.0967  0.0165
35631POPC   GL273555   4.113  25.427  19.748 -0.1836  0.0402 -0.3070
35631POPC   C1A73556   3.490  25.544  19.353  0.0298 -0.1193 -0.0483
35631POPC   D2A73557   3.404  25.448  18.925  0.0590  0.2301 -0.2109
35631POPC   C3A73558   3.317  25.722  18.565  0.1323  0.0854 -0.0194
35631POPC   C4A73559   3.206  26.153  18.458 -0.2914  0.0837 -0.1238
35631POPC   C1B73560   4.014  25.492  19.297 -0.0511  0.1370 -0.3002
35631POPC   C2B73561   3.908  25.486  18.854 -0.3190  0.0802 -0.0044
35631POPC   C3B73562   3.841  25.499  18.416  0.0435 -0.0411 -0.2583
35631POPC   C4B73563   3.649  25.926  18.268 -0.0140  0.2811  0.0154
35632POPC   NC373564   8.929  22.739  13.959 -0.4993  0.0840  0.2347
35632POPC   PO473565   8.992  22.389  14.097 -0.0590 -0.1088  0.1450
35632POPC   GL173566   8.589  22.398  13.927 -0.0576 -0.1329  0.4270
35632POPC   GL273567   8.688  22.239  13.740  0.3122 -0.1719 -0.0861
35632POPC   C1A73568   8.208  22.496  13.693  0.3376  0.2551  0.0650
35632POPC   D2A73569   7.986  22.736  13.366  0.2267 -0.0560 -0.0283
35632POPC   C3A73570   8.061  23.141  13.211  0.1526 -0.1259  0.1023
35632POPC   C4A73571   8.237  23.403  12.915 -0.1901 -0.2859 -0.2181
35632POPC   C1B73572   8.339  22.109  13.406 -0.2434  0.1354 -0.0728
35632POPC   C2B73573   8.086  21.718  13.283 -0.3017 -0.2021 -0.0801
35632POPC   C3B73574   7.714  21.530  13.029 -0.0150  0.0935  0.0570
35632POPC   C4B73575   7.235  21.557  13.036  0.2221 -0.0074 -0.1466
35633POPC   NC373576   9.453  31.334  20.204  0.0541  0.0656 -0.1387
35633POPC   PO473577   9.102  31.169  20.210 -0.1648  0.1577 -0.0972
35633POPC   GL173578   8.903  31.239  19.766  0.0448  0.2207  0.3404
35633POPC   GL273579   8.694  31.341  19.825 -0.1465  0.1012  0.4347
35633POPC   C1A73580   9.050  31.189  19.348  0.1483 -0.0354  0.0761
35633POPC   D2A73581   9.068  31.522  18.986 -0.0050 -0.2354  0.1192
35633POPC   C3A73582   8.726  31.767  18.917 -0.1198 -0.1428 -0.0418
35633POPC   C4A73583   8.480  31.949  18.521 -0.2551 -0.3351 -0.0147
35633POPC   C1B73584   8.607  31.356  19.373  0.0860  0.0560  0.2978
35633POPC   C2B73585   8.489  31.364  18.896 -0.2647 -0.0056 -0.0061
35633POPC   C3B73586   8.593  31.424  18.463  0.0819 -0.0378  0.0732
35633POPC   C4B73587   8.650  31.721  18.119  0.0716  0.0199 -0.1353
35634POPC   NC373588   7.621  23.679  18.142 -0.3365  0.0123  0.0826
35634POPC   PO473589   7.776  23.378  17.951  0.2030  0.0116 -0.0051
35634POPC   GL173590   7.512  23.489  17.621  0.0243  0.2255  0.4213
35634POPC   GL273591   7.677  23.715  17.517  0.1563 -0.0213  0.4850
35634POPC   C1A73592   7.217  23.855  17.646  0.1532 -0.4893  0.1651
35634POPC   D2A73593   6.869  24.124  17.447  0.0559 -0.0349 -0.1819
35634POPC   C3A73594   6.658  24.540  17.501  0.0095 -0.0769 -0.0894
35634POPC   C4A73595   6.515  24.963  17.459 -0.2528  0.3749  0.0523
35634POPC   C1B73596   7.549  23.885  17.110 -0.0140  0.3419 -0.1422
35634POPC   C2B73597   7.396  24.173  16.739  0.2564 -0.0797 -0.2830
35634POPC   C3B73598   7.404  24.615  16.654 -0.2820 -0.1333 -0.4950
35634POPC   C4B73599   7.473  25.062  16.763  0.3518  0.0420 -0.0055
35635POPC   NC373600  11.806  32.225  20.442 -0.0453  0.0806 -0.0262
35635POPC   PO473601  11.561  31.918  20.529  0.0333 -0.0208 -0.1969
35635POPC   GL173602  11.675  31.806  20.093 -0.0814  0.2443 -0.1184
35635POPC   GL273603  11.460  31.911  19.953  0.1767  0.0508  0.2075
35635POPC   C1A73604  11.937  31.632  19.837 -0.2413  0.1687 -0.1687
35635POPC   D2A73605  12.275  31.347  19.668 -0.2723 -0.0277 -0.2039
35635POPC   C3A73606  12.266  31.401  19.220  0.0603 -0.2098 -0.0849
35635POPC   C4A73607  12.386  31.533  18.796  0.3401  0.1214 -0.0675
35635POPC   C1B73608  11.375  31.768  19.549  0.1715  0.0588 -0.2367
35635POPC   C2B73609  11.471  31.743  19.070  0.0255 -0.0712  0.1373
35635POPC   C3B73610  11.308  31.680  18.623 -0.1900  0.3362  0.1286
35635POPC   C4B73611  11.267  31.847  18.204 -0.1344  0.2383  0.0391
35636POPC   NC373612  10.727  24.151  17.980  0.0558  0.1059 -0.0087
35636POPC   PO473613  10.532  23.974  17.661 -0.0311 -0.0064 -0.0601
35636POPC   GL173614  10.751  24.341  17.546  0.2021  0.1637  0.5319
35636POPC   GL273615  11.001  24.423  17.600 -0.1207  0.1759  0.0538
35636POPC   C1A73616  10.630  24.807  17.672  0.1398  0.1774  0.2369
35636POPC   D2A73617  10.553  25.156  17.937 -0.4793 -0.1319  0.1154
35636POPC   C3A73618  10.641  25.545  17.791  0.1874 -0.0114  0.0743
35636POPC   C4A73619  10.466  25.818  17.492 -0.0903  0.2491  0.1374
35636POPC   C1B73620  11.009  24.791  17.265  0.0336  0.0570  0.2431
35636POPC   C2B73621  11.154  25.181  16.996  0.3248 -0.1708  0.1346
35636POPC   C3B73622  10.950  25.477  16.712  0.1062 -0.0385 -0.1862
35636POPC   C4B73623  10.629  25.698  16.471 -0.0209  0.0016  0.2119
35637POPC   NC373624  13.841  20.181  18.899 -0.2270  0.1440 -0.0268
35637POPC   PO473625  13.864  20.581  18.870 -0.2416  0.2376 -0.0800
35637POPC   GL173626  13.772  20.567  18.415 -0.1561  0.2522  0.5253
35637POPC   GL273627  13.969  20.309  18.399  0.1586 -0.1031  0.1946
35637POPC   C1A73628  14.012  20.730  18.040 -0.2107  0.3134  0.0827
35637POPC   D2A73629  14.153  20.500  17.650  0.1793  0.1591  0.1333
35637POPC   C3A73630  13.931  20.573  17.217 -0.0675  0.0854 -0.1314
35637POPC   C4A73631  13.545  20.668  16.974 -0.3181 -0.2521  0.0245
35637POPC   C1B73632  14.310  20.279  18.097  0.1663 -0.2516  0.1130
35637POPC   C2B73633  14.594  20.143  17.723  0.1643  0.0381 -0.1478
35637POPC   C3B73634  14.830  20.076  17.312  0.2149 -0.0139 -0.5604
35637POPC   C4B73635  15.006  19.772  17.017  0.0325  0.3908  0.1961
35638POPC   NC373636   4.998  29.538  20.192  0.0494  0.0781 -0.2561
35638POPC   PO473637   5.221  29.642  20.525  0.0032 -0.1982  0.3365
35638POPC   GL173638   5.374  29.739  20.102  0.2121  0.0819 -0.1523
35638POPC   GL273639   5.449  30.028  20.014 -0.1382  0.0698 -0.2301
35638POPC   C1A73640   5.276  29.472  19.727  0.1482  0.0250 -0.0204
35638POPC   D2A73641   5.219  29.435  19.276  0.0089 -0.1735 -0.2064
35638POPC   C3A73642   4.847  29.271  18.995  0.1756  0.0130 -0.1271
35638POPC   C4A73643   4.621  28.902  18.887 -0.1633  0.2304 -0.1347
35638POPC   C1B73644   5.006  29.915  19.860  0.2562  0.0363  0.2231
35638POPC   C2B73645   4.800  29.584  19.574 -0.0776  0.0800 -0.1340
35638POPC   C3B73646   4.538  29.191  19.356  0.0780  0.0071  0.0884
35638POPC   C4B73647   4.199  29.219  19.046  0.1716 -0.1567  0.2448
35639POPC   NC373648   4.200   0.800  19.900  0.2092  0.1528 -0.0816
35639POPC   PO473649   4.554   0.665  19.957  0.1450 -0.3725  0.0075
35639POPC   GL173650   4.630   0.560  19.576  0.2336  0.0115 -0.2366
35639POPC   GL273651   4.533   0.593  19.330  0.1930 -0.0880  0.0428
35639POPC   C1A73652   4.816   0.240  19.269 -0.1401 -0.0852 -0.0610
35639POPC   D2A73653   5.043   0.054  18.901  0.5137 -0.1526 -0.1940
35639POPC   C3A73654   4.719  -0.238  18.704  0.0889 -0.0187 -0.5336
35639POPC   C4A73655   4.521  -0.349  18.315 -0.1117  0.0100  0.1054
35639POPC   C1B73656   4.298   0.490  18.892 -0.0133  0.0287 -0.2013
35639POPC   C2B73657   4.092   0.462  18.512  0.2309 -0.1395 -0.1290
35639POPC   C3B73658   3.743   0.673  18.178  0.1134  0.2299 -0.2580
35639POPC   C4B73659   3.306   0.546  18.000 -0.2950 -0.2003  0.2227
35640POPC   NC373660   5.993  17.212  19.164 -0.2979  0.0301 -0.5196
35640POPC   PO473661   6.006  17.572  19.383 -0.0614  0.0756  0.0241
35640POPC   GL173662   6.122  17.710  19.005  0.1475  0.0443  0.0117
35640POPC   GL273663   6.074  18.031  18.930 -0.0220  0.0495 -0.4602
35640POPC   C1A73664   6.038  17.408  18.634  0.0548 -0.0427 -0.2553
35640POPC   D2A73665   6.087  17.023  18.317  0.1271 -0.0447 -0.3143
35640POPC   C3A73666   6.060  17.031  17.862  0.1282  0.2685  0.1543
35640POPC   C4A73667   5.812  16.719  17.566  0.0660 -0.1498  0.1464
35640POPC   C1B73668   5.943  17.953  18.518  0.1036 -0.3013 -0.3292
35640POPC   C2B73669   5.874  18.011  18.023 -0.1569 -0.1858  0.1092
35640POPC   C3B73670   5.502  18.139  17.794  0.0735  0.1350  0.3506
35640POPC   C4B73671   5.193  18.323  17.497 -0.0135 -0.3920 -0.1622
35641POPC   NC373672  11.576  29.578  20.067  0.0595  0.0956  0.1342
35641POPC   PO473673  11.209  29.536  20.024 -0.1548  0.0118  0.1175
35641POPC   GL173674  11.224  29.501  19.682  0.1532 -0.0952  0.1505
35641POPC   GL273675  10.951  29.534  19.611 -0.1771  0.0382 -0.0366
35641POPC   C1A73676  11.218  29.457  19.197 -0.0960 -0.1719  0.1382
35641POPC   D2A73677  11.231  29.709  18.762  0.1848  0.0051 -0.3339
35641POPC   C3A73678  10.876  29.608  18.534  0.2226  0.1661 -0.0498
35641POPC   C4A73679  10.468  29.720  18.414 -0.1293 -0.0345  0.1682
35641POPC   C1B73680  10.729  29.546  19.170 -0.0299  0.2571 -0.0348
35641POPC   C2B73681  10.517  29.410  18.820 -0.0783 -0.0371 -0.1177
35641POPC   C3B73682  10.116  29.229  18.741 -0.0968 -0.0271 -0.2844
35641POPC   C4B73683   9.766  29.087  18.496  0.1369 -0.1116 -0.2240
35642POPC   NC373684  10.351  23.631  17.289  0.1131  0.2643  0.0660
35642POPC   PO473685  10.184  23.557  16.948 -0.3409 -0.2238 -0.0552
35642POPC   GL173686  10.182  23.982  16.918  0.0071  0.4703  0.2820
35642POPC   GL273687   9.985  24.032  16.768 -0.0817  0.0705  0.1107
35642POPC   C1A73688  10.465  24.352  16.761 -0.1451 -0.0742 -0.0913
35642POPC   D2A73689  10.907  24.540  16.727  0.0677 -0.1663  0.0116
35642POPC   C3A73690  10.793  24.961  16.626  0.1475 -0.1981 -0.3076
35642POPC   C4A73691  10.978  25.253  16.326  0.1685  0.0602  0.0991
35642POPC   C1B73692   9.745  24.335  16.520 -0.1418 -0.0863 -0.1358
35642POPC   C2B73693   9.703  24.792  16.455  0.0461  0.0640  0.0151
35642POPC   C3B73694   9.475  25.203  16.305  0.0049  0.0874 -0.2139
35642POPC   C4B73695   9.152  25.509  16.300  0.0701 -0.1137 -0.0379
35643POPC   NC373696  13.588  17.288  19.322  0.0467  0.2855  0.3727
35643POPC   PO473697  13.520  17.677  19.255  0.0646  0.1243  0.0974
35643POPC   GL173698  13.399  17.496  18.871 -0.1081 -0.1542  0.2192
35643POPC   GL273699  13.350  17.159  18.906 -0.1543 -0.0341  0.4131
35643POPC   C1A73700  13.351  17.632  18.413  0.0865  0.2793  0.1088
35643POPC   D2A73701  13.083  17.414  18.085 -0.1350  0.0365 -0.0470
35643POPC   C3A73702  13.117  17.652  17.652 -0.1032 -0.0701 -0.0689
35643POPC   C4A73703  13.160  17.545  17.172 -0.0804 -0.2595 -0.1050
35643POPC   C1B73704  13.731  17.284  18.593 -0.1732 -0.1456  0.1534
35643POPC   C2B73705  13.828  17.209  18.142 -0.0495  0.1179  0.1561
35643POPC   C3B73706  13.781  17.088  17.694 -0.0732 -0.1565  0.2047
35643POPC   C4B73707  13.996  16.896  17.308  0.1198 -0.0005 -0.1179
35644POPC   NC373708  12.753  18.772  18.790  0.0162  0.1486 -0.2018
35644POPC   PO473709  12.438  18.843  18.607 -0.4654 -0.3126  0.2232
35644POPC   GL173710  12.575  18.555  18.376 -0.0915  0.1116  0.1666
35644POPC   GL273711  12.565  18.694  18.117  0.1645 -0.1165 -0.0034
35644POPC   C1A73712  12.625  18.162  18.123 -0.0770 -0.1398  0.1884
35644POPC   D2A73713  12.709  17.947  17.723  0.1365  0.2657 -0.0002
35644POPC   C3A73714  12.715  17.492  17.493 -0.2623 -0.3092 -0.2344
35644POPC   C4A73715  12.738  17.013  17.448  0.0487 -0.2102 -0.0697
35644POPC   C1B73716  12.477  18.880  17.679  0.0888  0.0670  0.2361
35644POPC   C2B73717  12.303  18.980  17.277 -0.0653  0.3361 -0.1618
35644POPC   C3B73718  12.216  19.029  16.830 -0.2416  0.0189  0.0791
35644POPC   C4B73719  12.100  18.758  16.447  0.1380  0.2463  0.0065
35645POPC   NC373720  15.883  20.966  19.153 -0.0039  0.1529 -0.0730
35645POPC   PO473721  15.792  21.342  19.101  0.1155  0.0886 -0.1096
35645POPC   GL173722  15.897  21.450  18.773  0.0568  0.0612 -0.3899
35645POPC   GL273723  15.968  21.232  18.611 -0.1520 -0.1689  0.1462
35645POPC   C1A73724  15.712  21.599  18.392 -0.0550 -0.2329 -0.3963
35645POPC   D2A73725  15.859  21.623  17.964  0.3148  0.0709 -0.1079
35645POPC   C3A73726  15.938  21.956  17.694  0.2208  0.0361  0.2523
35645POPC   C4A73727  15.952  22.161  17.218 -0.2570 -0.0229 -0.2988
35645POPC   C1B73728  15.903  21.200  18.155 -0.3192  0.0384 -0.0384
35645POPC   C2B73729  15.865  21.180  17.651  0.3282  0.0548 -0.4427
35645POPC   C3B73730  15.493  21.158  17.426  0.3487 -0.2763  0.0892
35645POPC   C4B73731  15.049  21.051  17.206 -0.0471 -0.0273  0.0189
35646POPC   NC373732  10.464  18.634  18.217  0.0868  0.4858  0.1216
35646POPC   PO473733  10.394  18.601  18.575 -0.0279  0.1414  0.2780
35646POPC   GL173734  10.302  18.232  18.369  0.1861 -0.2163  0.1541
35646POPC   GL273735  10.281  17.913  18.266 -0.0366  0.1041 -0.0071
35646POPC   C1A73736  10.437  18.230  17.898 -0.0676  0.1708  0.0414
35646POPC   D2A73737  10.392  17.968  17.524  0.1175 -0.3609  0.0468
35646POPC   C3A73738  10.329  18.231  17.188  0.1168  0.1551 -0.0858
35646POPC   C4A73739  10.465  18.345  16.782 -0.0524  0.1281  0.1328
35646POPC   C1B73740  10.110  17.645  17.863 -0.1147 -0.2715  0.0165
35646POPC   C2B73741   9.727  17.562  17.643 -0.0194  0.1048 -0.0317
35646POPC   C3B73742   9.579  17.350  17.368  0.0193  0.2251  0.0132
35646POPC   C4B73743   9.320  17.463  17.034  0.1586  0.2396  0.2288
35647POPC   NC373744   3.231  22.819  19.931 -0.1909  0.2547  0.2245
35647POPC   PO473745   2.854  22.986  19.842 -0.0510  0.1545 -0.0633
35647POPC   GL173746   3.063  23.112  19.540 -0.3289 -0.3105 -0.0307
35647POPC   GL273747   3.246  22.893  19.367  0.0587 -0.2261 -0.1326
35647POPC   C1A73748   2.908  23.228  19.148  0.1852  0.0841 -0.0494
35647POPC   D2A73749   2.900  23.095  18.715  0.2898  0.2625 -0.0707
35647POPC   C3A73750   2.756  23.248  18.305  0.1844 -0.0136 -0.2258
35647POPC   C4A73751   2.757  23.473  17.895 -0.0186 -0.2465 -0.3042
35647POPC   C1B73752   3.356  23.026  18.995  0.3750  0.0045 -0.3227
35647POPC   C2B73753   3.474  22.988  18.578 -0.1282 -0.1321 -0.0218
35647POPC   C3B73754   3.280  22.922  18.168 -0.0432 -0.1967  0.0156
35647POPC   C4B73755   2.995  23.068  17.831  0.0198  0.2278  0.1656
35648POPC   NC373756   4.015  27.542  20.575  0.1575 -0.1224  0.1039
35648POPC   PO473757   3.811  27.857  20.477 -0.1059  0.0659  0.2463
35648POPC   GL173758   3.890  28.031  20.001  0.1492 -0.0702 -0.1293
35648POPC   GL273759   4.127  27.799  19.917 -0.4549 -0.1068 -0.3381
35648POPC   C1A73760   3.651  27.879  19.629  0.2134  0.1237  0.0072
35648POPC   D2A73761   3.612  28.036  19.176  0.1755  0.0666  0.1241
35648POPC   C3A73762   3.677  28.131  18.781  0.1940 -0.1605  0.3004
35648POPC   C4A73763   3.993  28.306  18.471  0.1141  0.2352 -0.0364
35648POPC   C1B73764   4.160  27.749  19.438  0.0445 -0.0542  0.0338
35648POPC   C2B73765   4.288  27.550  19.045  0.0164  0.0388 -0.0810
35648POPC   C3B73766   4.336  27.251  18.668 -0.0293 -0.2033 -0.6180
35648POPC   C4B73767   4.183  26.803  18.572  0.3224 -0.2000  0.0725
35649POPC   NC373768   5.033  17.494  19.999  0.1056  0.0634 -0.0236
35649POPC   PO473769   5.133  17.238  19.725  0.1106  0.2822 -0.1991
35649POPC   GL173770   5.136  17.283  19.321  0.2491  0.1041 -0.3885
35649POPC   GL273771   5.222  17.018  19.264  0.1680  0.4451  0.0207
35649POPC   C1A73772   4.725  17.182  19.132 -0.0648 -0.1485 -0.0039
35649POPC   D2A73773   4.627  17.292  18.727 -0.1727  0.2868 -0.0811
35649POPC   C3A73774   4.780  17.081  18.263  0.0101  0.1727 -0.0202
35649POPC   C4A73775   4.621  16.883  17.868 -0.1973  0.0490  0.2454
35649POPC   C1B73776   5.179  17.099  18.811  0.3233 -0.3769  0.0034
35649POPC   C2B73777   5.352  16.922  18.471  0.1519 -0.1770 -0.0777
35649POPC   C3B73778   5.576  16.945  18.059  0.0172 -0.0873  0.2199
35649POPC   C4B73779   5.486  17.123  17.658  0.1979 -0.0280  0.4563
35650POPC   NC373780  10.365   0.136  19.558  0.4413 -0.0562  0.0113
35650POPC   PO473781  10.533  -0.065  19.868  0.3281  0.1074 -0.1347
35650POPC   GL173782  10.395  -0.347  19.665 -0.1875  0.3121  0.3531
35650POPC   GL273783  10.649  -0.376  19.491  0.0900 -0.1315  0.0923
35650POPC   C1A73784  10.029  -0.377  19.379 -0.1764 -0.3197 -0.1018
35650POPC   D2A73785   9.864  -0.701  19.127 -0.0899 -0.0490 -0.1175
35650POPC   C3A73786  10.205  -0.821  18.888  0.0037  0.0699 -0.2449
35650POPC   C4A73787  10.536  -1.039  18.593  0.0276  0.0484  0.2769
35650POPC   C1B73788  10.506  -0.373  19.090  0.1021 -0.1274 -0.0990
35650POPC   C2B73789  10.528  -0.475  18.677  0.2295 -0.3022  0.3231
35650POPC   C3B73790  10.464  -0.549  18.216 -0.1492 -0.1316  0.2610
35650POPC   C4B73791  10.626  -0.771  17.858  0.1297 -0.1917 -0.2302
35651POPC   NC373792   8.916  23.059  13.204 -0.0320  0.0886  0.1824
35651POPC   PO473793   8.874  22.740  13.466 -0.0089  0.2433 -0.1568
35651POPC   GL173794   8.503  22.851  13.413 -0.2454 -0.2838 -0.2682
35651POPC   GL273795   8.429  22.831  13.156 -0.2281  0.1252  0.4282
35651POPC   C1A73796   8.524  23.312  13.366 -0.2037 -0.2926  0.3026
35651POPC   D2A73797   8.801  23.533  13.023 -0.0963 -0.0819 -0.0231
35651POPC   C3A73798   8.656  23.899  13.156 -0.0999 -0.1532 -0.2995
35651POPC   C4A73799   8.349  24.255  13.159 -0.1309 -0.2335 -0.0699
35651POPC   C1B73800   8.204  22.433  13.053 -0.1224 -0.2956  0.1576
35651POPC   C2B73801   8.028  22.069  12.814 -0.0933 -0.0439 -0.0532
35651POPC   C3B73802   7.719  21.893  12.621  0.3457  0.2909 -0.2077
35651POPC   C4B73803   7.624  21.604  12.262 -0.2872 -0.0841  0.2181
35652POPC   NC373804  10.973  19.633  18.022 -0.1736  0.0862 -0.0531
35652POPC   PO473805  11.358  19.577  18.048 -0.0301  0.0602 -0.0019
35652POPC   GL173806  11.250  19.260  17.815 -0.0410  0.3722  0.5574
35652POPC   GL273807  11.479  19.303  17.578 -0.4378  0.2157 -0.0667
35652POPC   C1A73808  11.475  18.847  17.798 -0.0692  0.1031  0.0016
35652POPC   D2A73809  11.590  18.385  17.809 -0.0564 -0.0061 -0.1061
35652POPC   C3A73810  11.399  18.170  17.394 -0.0861 -0.2419 -0.0941
35652POPC   C4A73811  11.296  18.021  17.021  0.0029  0.0598 -0.0270
35652POPC   C1B73812  11.653  18.955  17.340 -0.2598 -0.0686  0.0218
35652POPC   C2B73813  11.749  18.873  16.853 -0.3530 -0.1169  0.0770
35652POPC   C3B73814  11.872  19.218  16.533  0.1514 -0.3063 -0.4314
35652POPC   C4B73815  12.051  19.158  16.176  0.1822  0.3392  0.1384
35653POPC   NC373816  13.541  18.911  19.229  0.2429  0.1999 -0.0264
35653POPC   PO473817  13.856  18.984  19.470 -0.2669 -0.2052  0.1568
35653POPC   GL173818  14.010  18.939  19.152  0.0752 -0.1570 -0.2646
35653POPC   GL273819  14.065  18.636  19.143  0.0566 -0.1725  0.0396
35653POPC   C1A73820  14.264  18.975  18.762  0.2772 -0.1222 -0.2089
35653POPC   D2A73821  14.372  18.796  18.350  0.2213 -0.1884  0.3340
35653POPC   C3A73822  14.724  18.882  18.090 -0.2260  0.1533 -0.0874
35653POPC   C4A73823  15.109  19.049  18.023 -0.1588 -0.0900 -0.0740
35653POPC   C1B73824  14.119  18.451  18.722  0.0294 -0.2345 -0.0301
35653POPC   C2B73825  14.339  18.246  18.381  0.1162 -0.3297  0.2186
35653POPC   C3B73826  14.641  18.145  17.988  0.0946  0.1288 -0.2763
35653POPC   C4B73827  14.733  17.946  17.604 -0.1567  0.1732 -0.0177
35654POPC   NC373828  15.845  30.693  20.774 -0.1268 -0.1374  0.0387
35654POPC   PO473829  15.434  30.587  20.772 -0.1332  0.2178 -0.1170
35654POPC   GL173830  15.527  30.439  20.440  0.1219 -0.1983 -0.1261
35654POPC   GL273831  15.569  30.720  20.253  0.0755 -0.0190 -0.0463
35654POPC   C1A73832  15.372  30.185  20.100 -0.0518 -0.1233 -0.0905
35654POPC   D2A73833  15.340  29.822  19.887  0.2542  0.1440  0.0060
35654POPC   C3A73834  15.530  29.729  19.451 -0.1609 -0.2877 -0.1054
35654POPC   C4A73835  15.497  29.434  19.115 -0.0842 -0.1710 -0.1168
35654POPC   C1B73836  15.368  30.679  19.888 -0.1310 -0.0827  0.2129
35654POPC   C2B73837  15.247  30.704  19.435  0.0257 -0.0784 -0.1088
35654POPC   C3B73838  15.172  30.689  18.999  0.1131  0.1727 -0.1352
35654POPC   C4B73839  15.357  30.596  18.617  0.1922  0.1439 -0.2856
35655POPC   NC373840   5.867  30.247  20.430 -0.1022 -0.1090  0.0169
35655POPC   PO473841   5.638  30.590  20.491  0.2034  0.2209  0.2148
35655POPC   GL173842   5.320  30.628  20.321  0.3913  0.1720  0.0768
35655POPC   GL273843   5.297  30.882  20.106 -0.0436 -0.2317  0.1714
35655POPC   C1A73844   5.023  30.464  19.999  0.0437  0.2504  0.1422
35655POPC   D2A73845   4.758  30.311  19.616  0.0881  0.1517  0.0617
35655POPC   C3A73846   4.764  29.989  19.298 -0.0215 -0.1687  0.1095
35655POPC   C4A73847   4.934  29.803  18.929  0.2621 -0.1853 -0.3252
35655POPC   C1B73848   5.290  30.716  19.687 -0.2056 -0.0782  0.0392
35655POPC   C2B73849   5.112  30.725  19.289  0.0360 -0.3008 -0.1391
35655POPC   C3B73850   4.980  30.747  18.834  0.0172  0.0410  0.1840
35655POPC   C4B73851   4.587  30.727  18.607 -0.1072 -0.0181  0.2392
35656POPC   NC373852   9.944  20.645  16.082  0.1169  0.2234  0.0864
35656POPC   PO473853   9.983  20.563  15.664  0.0995  0.3845 -0.2759
35656POPC   GL173854   9.957  20.285  15.519 -0.1870 -0.1538  0.1288
35656POPC   GL273855   9.706  20.234  15.448  0.0300  0.1184 -0.0163
35656POPC   C1A73856   9.939  19.784  15.545  0.5108 -0.0655 -0.0937
35656POPC   D2A73857   9.924  19.288  15.516 -0.0213  0.0503  0.2400
35656POPC   C3A73858   9.900  18.878  15.606 -0.0260 -0.0871  0.0374
35656POPC   C4A73859  10.102  18.528  15.392  0.2287  0.1851  0.0041
35656POPC   C1B73860   9.615  19.941  15.217 -0.2233 -0.0046  0.4026
35656POPC   C2B73861   9.698  19.473  15.071 -0.1794 -0.1458 -0.1486
35656POPC   C3B73862   9.484  19.076  15.180 -0.2995 -0.0836 -0.0866
35656POPC   C4B73863   9.431  18.801  15.559  0.2988  0.0179 -0.2558
35657POPC   NC373864   9.068  20.853  15.269  0.0226  0.0146  0.1374
35657POPC   PO473865   9.412  20.739  15.360 -0.2062 -0.1800 -0.1317
35657POPC   GL173866   9.346  20.561  14.995 -0.0023  0.0472 -0.0575
35657POPC   GL273867   9.151  20.578  14.883  0.0846 -0.1216  0.1862
35657POPC   C1A73868   9.520  20.278  14.648 -0.0738 -0.0530 -0.0939
35657POPC   D2A73869   9.917  20.016  14.502 -0.0546 -0.0625 -0.3375
35657POPC   C3A73870   9.978  19.599  14.656  0.1637 -0.0265 -0.3027
35657POPC   C4A73871   9.946  19.124  14.816 -0.0685 -0.3275 -0.1831
35657POPC   C1B73872   8.920  20.254  14.630 -0.0920 -0.3656  0.3066
35657POPC   C2B73873   8.734  19.918  14.582 -0.1390  0.1005  0.0666
35657POPC   C3B73874   8.383  19.702  14.810 -0.0940  0.1699 -0.1856
35657POPC   C4B73875   7.922  19.681  14.851  0.2014 -0.0412  0.0142
35658POPC   NC373876  17.391  22.314  19.799 -0.0278 -0.0365  0.3652
35658POPC   PO473877  17.600  22.678  19.805 -0.1120 -0.1966 -0.1796
35658POPC   GL173878  17.702  22.871  19.529  0.1627 -0.1099  0.3054
35658POPC   GL273879  17.630  23.134  19.726  0.1588  0.4243  0.0525
35658POPC   C1A73880  17.568  23.180  19.220  0.1882  0.0250  0.2098
35658POPC   D2A73881  17.264  23.431  18.968 -0.0057 -0.1045  0.0364
35658POPC   C3A73882  17.307  23.460  18.523  0.1555  0.0034  0.0733
35658POPC   C4A73883  17.525  23.178  18.159 -0.1042  0.0365 -0.1664
35658POPC   C1B73884  18.044  23.158  19.591 -0.1162  0.0151 -0.0302
35658POPC   C2B73885  18.242  23.267  19.179 -0.0843 -0.1016  0.0084
35658POPC   C3B73886  18.478  23.509  18.805 -0.0314  0.1732 -0.0495
35658POPC   C4B73887  18.677  23.906  18.730  0.1286  0.0932 -0.1733
35659POPC   NC373888  11.544  22.374  16.205  0.0238 -0.0257  0.1200
35659POPC   PO473889  11.464  22.014  16.055 -0.0004  0.3221  0.1663
35659POPC   GL173890  11.732  21.866  15.777 -0.2220  0.0672 -0.1808
35659POPC   GL273891  11.749  21.717  15.514 -0.3085 -0.1076 -0.1006
35659POPC   C1A73892  12.104  21.674  16.011  0.1051  0.1008 -0.1614
35659POPC   D2A73893  12.458  21.345  16.041 -0.1871 -0.1208 -0.0645
35659POPC   C3A73894  12.677  21.305  16.409  0.0365  0.0117  0.1325
35659POPC   C4A73895  13.052  21.053  16.340 -0.0659  0.0475  0.1417
35659POPC   C1B73896  12.005  21.383  15.302 -0.3924  0.1282 -0.1183
35659POPC   C2B73897  12.454  21.308  15.150  0.1852 -0.1807 -0.1529
35659POPC   C3B73898  12.853  21.447  15.283 -0.0297 -0.1391  0.2019
35659POPC   C4B73899  13.126  21.779  15.441  0.0046  0.3450  0.1678
35660POPC   NC373900  32.656  18.785  19.722  0.2673 -0.0856  0.2722
35660POPC   PO473901  32.904  19.059  19.673  0.1847 -0.1460  0.2928
35660POPC   GL173902  32.731  19.198  19.392  0.1719 -0.3521 -0.1649
35660POPC   GL273903  32.649  18.939  19.211 -0.0145 -0.1693 -0.1509
35660POPC   C1A73904  32.965  19.320  19.058 -0.2689 -0.0481 -0.1195
35660POPC   D2A73905  33.372  19.184  18.788 -0.1676 -0.0887  0.2769
35660POPC   C3A73906  33.705  19.347  18.571  0.1189 -0.2424  0.0725
35660POPC   C4A73907  33.801  19.331  18.143  0.1049 -0.0934 -0.2001
35660POPC   C1B73908  32.480  19.176  18.881 -0.0243  0.0522 -0.1084
35660POPC   C2B73909  32.431  19.130  18.460 -0.2120  0.3427  0.0100
35660POPC   C3B73910  32.468  19.437  18.101 -0.0729  0.0548  0.1131
35660POPC   C4B73911  32.667  19.763  17.856 -0.0385 -0.4999  0.1190
35661POPC   NC373912   8.984  31.633  20.196  0.0218  0.0096 -0.1448
35661POPC   PO473913   8.647  31.759  20.182  0.0283  0.0167 -0.0965
35661POPC   GL173914   8.361  31.630  20.016 -0.0918 -0.3212  0.2526
35661POPC   GL273915   8.431  31.773  19.694 -0.1441 -0.2262 -0.0520
35661POPC   C1A73916   8.160  31.370  19.648 -0.1155 -0.0402  0.0411
35661POPC   D2A73917   8.146  31.178  19.253  0.3697 -0.3001  0.1533
35661POPC   C3A73918   8.065  31.053  18.868  0.1104  0.0092  0.0870
35661POPC   C4A73919   7.957  30.620  18.735  0.1636 -0.3480  0.1686
35661POPC   C1B73920   8.200  31.716  19.309 -0.0547 -0.1968 -0.0950
35661POPC   C2B73921   8.129  31.803  18.874  0.0216  0.3043 -0.1589
35661POPC   C3B73922   7.993  31.924  18.439 -0.0200 -0.0634 -0.2612
35661POPC   C4B73923   7.869  32.176  18.091  0.3693 -0.0340  0.1510
35662POPC   NC373924   9.954  21.050  14.499  0.1484 -0.0443  0.0810
35662POPC   PO473925   9.597  20.913  14.501  0.0347  0.0281 -0.0165
35662POPC   GL173926   9.377  20.614  14.363 -0.0267  0.1628  0.6998
35662POPC   GL273927   9.257  20.851  14.135  0.0608 -0.0013  0.0618
35662POPC   C1A73928   9.333  20.192  14.120 -0.2129 -0.1743 -0.0132
35662POPC   D2A73929   9.686  19.865  14.058  0.0487  0.0598 -0.1763
35662POPC   C3A73930   9.862  19.680  13.702 -0.1978 -0.2786 -0.0145
35662POPC   C4A73931   9.850  19.725  13.253 -0.0297  0.0989  0.1754
35662POPC   C1B73932   9.265  20.553  13.752  0.0124 -0.2933 -0.1274
35662POPC   C2B73933   9.244  20.320  13.351  0.0738 -0.0334  0.0112
35662POPC   C3B73934   9.116  20.037  13.033  0.0785  0.1088  0.2554
35662POPC   C4B73935   8.686  20.017  13.025 -0.0476 -0.0474  0.1169
35663POPC   NC373936   7.524  18.686  18.598  0.0058 -0.2629  0.1609
35663POPC   PO473937   7.386  18.312  18.641 -0.0077 -0.1682  0.0727
35663POPC   GL173938   7.090  18.180  18.396 -0.1629 -0.2423  0.1053
35663POPC   GL273939   6.914  17.964  18.457 -0.2118  0.1281 -0.2167
35663POPC   C1A73940   7.087  18.111  17.950  0.0165  0.0768 -0.1054
35663POPC   D2A73941   6.775  17.833  17.614  0.0592  0.0457 -0.3894
35663POPC   C3A73942   7.167  17.850  17.326  0.0720  0.1833  0.0879
35663POPC   C4A73943   7.325  17.437  17.106  0.2191 -0.2663 -0.2401
35663POPC   C1B73944   6.777  17.715  18.129  0.0166 -0.1338  0.1818
35663POPC   C2B73945   6.905  17.406  17.803 -0.3785  0.1553 -0.0660
35663POPC   C3B73946   6.806  17.358  17.393  0.0853 -0.2393 -0.0636
35663POPC   C4B73947   6.636  16.993  17.149 -0.0257  0.0328  0.0118
35664POPC   NC373948   4.371  27.736  20.312 -0.3388  0.2174  0.2003
35664POPC   PO473949   4.423  27.971  20.601 -0.4240 -0.2897 -0.0203
35664POPC   GL173950   4.421  28.291  20.319  0.1739 -0.5621 -0.3503
35664POPC   GL273951   4.295  28.520  20.438  0.0483 -0.1435 -0.2605
35664POPC   C1A73952   4.477  28.493  19.929 -0.1205 -0.0403 -0.3568
35664POPC   D2A73953   4.542  28.759  19.578 -0.0343  0.0559  0.0172
35664POPC   C3A73954   4.328  28.678  19.208  0.3800 -0.1006 -0.1608
35664POPC   C4A73955   4.254  28.661  18.749  0.0273 -0.1345  0.1308
35664POPC   C1B73956   3.995  28.477  20.131 -0.1293  0.1053  0.1444
35664POPC   C2B73957   3.600  28.409  19.868  0.1563  0.0162  0.0299
35664POPC   C3B73958   3.617  28.509  19.372 -0.2075  0.0340 -0.1772
35664POPC   C4B73959   3.830  28.597  18.968  0.2321  0.2131 -0.1885
35665POPC   NC373960   4.922  22.622  19.284  0.0809  0.0281  0.1653
35665POPC   PO473961   4.662  22.968  19.338  0.0896  0.0061 -0.0390
35665POPC   GL173962   4.659  23.152  18.975  0.2073  0.0104  0.0523
35665POPC   GL273963   4.634  23.393  18.965  0.0017  0.2610  0.2856
35665POPC   C1A73964   4.816  23.175  18.588  0.1312  0.1406 -0.0486
35665POPC   D2A73965   5.113  23.354  18.205  0.3606 -0.0485 -0.0292
35665POPC   C3A73966   5.123  23.243  17.793  0.0471  0.0432 -0.1968
35665POPC   C4A73967   5.013  22.879  17.601 -0.1516 -0.1263 -0.2483
35665POPC   C1B73968   4.570  23.636  18.603  0.1439 -0.1349 -0.0435
35665POPC   C2B73969   4.510  23.952  18.430  0.0343 -0.0345 -0.1866
35665POPC   C3B73970   4.563  24.278  18.155  0.2248  0.1989 -0.2491
35665POPC   C4B73971   4.646  23.982  17.818 -0.4027  0.2707  0.1190
35666POPC   NC373972   5.592  23.241  19.278 -0.0686  0.0268 -0.0166
35666POPC   PO473973   5.883  23.485  19.436  0.1436 -0.1524  0.0626
35666POPC   GL173974   5.619  23.690  19.102  0.0388 -0.0804 -0.2981
35666POPC   GL273975   5.709  23.828  18.853 -0.0011  0.0353 -0.1854
35666POPC   C1A73976   5.538  23.360  18.764 -0.1551  0.0382 -0.0460
35666POPC   D2A73977   5.650  23.335  18.292  0.2741 -0.0068  0.2729
35666POPC   C3A73978   5.491  22.994  17.978 -0.1147  0.0623 -0.0478
35666POPC   C4A73979   5.550  22.862  17.534  0.1198  0.1550 -0.2184
35666POPC   C1B73980   5.509  23.777  18.429 -0.0084 -0.1388 -0.2253
35666POPC   C2B73981   5.631  23.993  18.056  0.2111 -0.0889  0.0627
35666POPC   C3B73982   5.486  24.106  17.621  0.0209  0.3192 -0.1843
35666POPC   C4B73983   5.663  24.475  17.433  0.2570 -0.0083  0.0575
35667POPC   NC373984   8.670  21.693  15.517 -0.1584 -0.0048  0.0861
35667POPC   PO473985   8.400  21.933  15.365  0.1142 -0.0683  0.2590
35667POPC   GL173986   7.983  21.853  15.175  0.0851  0.4775 -0.4564
35667POPC   GL273987   7.900  21.924  14.912 -0.1714 -0.1900  0.1009
35667POPC   C1A73988   7.483  21.944  15.217  0.3549  0.2808  0.1600
35667POPC   D2A73989   7.365  22.123  15.644  0.1816 -0.1684 -0.1164
35667POPC   C3A73990   6.932  21.924  15.752 -0.1299  0.1658 -0.0144
35667POPC   C4A73991   6.581  21.715  15.711 -0.0183  0.0469 -0.0049
35667POPC   C1B73992   7.538  21.800  14.683 -0.2062  0.1041 -0.0680
35667POPC   C2B73993   7.100  21.847  14.644  0.1275  0.1873 -0.0796
35667POPC   C3B73994   6.685  21.912  14.807 -0.0002 -0.2696  0.0377
35667POPC   C4B73995   6.401  22.152  15.066  0.0757  0.0543 -0.1280
35668POPC   NC373996  11.049  23.255  17.777 -0.2424 -0.1517  0.2185
35668POPC   PO473997  10.702  23.394  17.646 -0.0042 -0.2058  0.1260
35668POPC   GL173998  10.785  23.669  17.341  0.2171  0.1342 -0.3226
35668POPC   GL273999  11.106  23.668  17.464  0.0768  0.1069 -0.1226
35668POPC   C1A74000  10.688  23.992  17.035 -0.1449 -0.2073 -0.2930
35668POPC   D2A74001  10.857  24.058  16.594  0.3419  0.1886 -0.1464
35668POPC   C3A74002  10.563  24.292  16.288  0.1140  0.1287  0.2193
35668POPC   C4A74003  10.161  24.477  16.301  0.0077 -0.1373  0.2996
35668POPC   C1B74004  11.149  24.046  17.267  0.1044  0.0693 -0.3919
35668POPC   C2B74005  11.291  24.429  17.060 -0.3663 -0.0604 -0.3230
35668POPC   C3B74006  11.375  24.807  16.758 -0.2567  0.1571 -0.2811
35668POPC   C4B74007  11.498  25.235  16.623 -0.3310  0.1268 -0.0517
35669POPC   NC374008   0.878  29.412  20.514  0.1537 -0.3935 -0.0517
35669POPC   PO474009   1.253  29.519  20.657  0.0497 -0.1061 -0.2720
35669POPC   GL174010   1.291  29.596  20.308  0.0907 -0.0704  0.1710
35669POPC   GL274011   1.592  29.673  20.265  0.1934 -0.4271  0.0663
35669POPC   C1A74012   0.965  29.844  20.097  0.0997  0.0549  0.1686
35669POPC   D2A74013   0.739  29.758  19.672  0.2556  0.1282 -0.0383
35669POPC   C3A74014   0.776  29.906  19.274  0.1895  0.1810 -0.2697
35669POPC   C4A74015   0.643  30.074  18.855  0.2052 -0.0378 -0.2007
35669POPC   C1B74016   1.714  29.901  19.952  0.0874 -0.3506 -0.4575
35669POPC   C2B74017   1.735  30.292  19.737  0.4465 -0.1919 -0.2256
35669POPC   C3B74018   1.628  30.462  19.341 -0.0436  0.1963 -0.0670
35669POPC   C4B74019   1.834  30.365  18.934 -0.1997  0.2257 -0.1382
35670POPC   NC374020  13.244  17.579  19.708 -0.2148  0.1357  0.0650
35670POPC   PO474021  12.906  17.381  19.782 -0.1507  0.1921  0.0883
35670POPC   GL174022  12.971  17.035  19.524  0.1176 -0.1197  0.1573
35670POPC   GL274023  13.100  17.301  19.302  0.0469 -0.0933  0.0009
35670POPC   C1A74024  13.181  16.766  19.219 -0.2606 -0.1793  0.4112
35670POPC   D2A74025  13.128  16.476  18.846 -0.1166  0.0245 -0.1148
35670POPC   C3A74026  13.119  16.254  18.474  0.0920 -0.5024 -0.2024
35670POPC   C4A74027  13.179  15.861  18.268 -0.2015  0.0765 -0.0205
35670POPC   C1B74028  12.686  17.349  19.025  0.0831  0.0108  0.0277
35670POPC   C2B74029  12.423  17.132  18.775 -0.0296 -0.4657 -0.2082
35670POPC   C3B74030  12.298  16.895  18.393  0.1977 -0.1541  0.0987
35670POPC   C4B74031  12.387  16.563  18.077 -0.1222 -0.0847 -0.0122
35671POPC   NC374032   7.345  17.803  18.731  0.2044 -0.1323  0.1361
35671POPC   PO474033   7.707  17.927  18.744  0.1335 -0.0200 -0.1341
35671POPC   GL174034   7.711  17.894  18.298  0.1938 -0.1197  0.4120
35671POPC   GL274035   7.456  17.792  18.184  0.0258  0.2407  0.0143
35671POPC   C1A74036   7.822  17.924  17.841  0.0362 -0.0484  0.2223
35671POPC   D2A74037   7.578  18.091  17.474  0.2760  0.1144 -0.0322
35671POPC   C3A74038   7.716  18.077  17.076 -0.2571  0.3120 -0.3437
35671POPC   C4A74039   7.915  18.336  16.768  0.2699  0.2569 -0.0949
35671POPC   C1B74040   7.388  17.690  17.779  0.0280  0.0921  0.1705
35671POPC   C2B74041   7.762  17.488  17.503 -0.2774 -0.1180 -0.0359
35671POPC   C3B74042   8.127  17.605  17.250  0.1210 -0.0092  0.0067
35671POPC   C4B74043   8.550  17.616  17.421 -0.1715 -0.2182  0.4838
35672POPC   NC374044  11.151  22.136  13.574  0.3672  0.3413  0.1062
35672POPC   PO474045  10.807  22.212  13.296 -0.0823  0.1196 -0.2652
35672POPC   GL174046  11.209  22.052  13.108 -0.6112  0.0068 -0.1219
35672POPC   GL274047  11.432  22.306  13.073 -0.0832 -0.0670  0.0179
35672POPC   C1A74048  11.651  21.824  13.097  0.1801 -0.0963 -0.2824
35672POPC   D2A74049  11.924  21.492  13.263 -0.2063 -0.0702 -0.0782
35672POPC   C3A74050  12.138  21.319  13.620 -0.1026 -0.0371 -0.0537
35672POPC   C4A74051  12.206  21.016  13.971  0.2125  0.1675  0.0017
35672POPC   C1B74052  11.820  22.264  13.389  0.0584  0.0169  0.0351
35672POPC   C2B74053  12.002  22.657  13.565  0.1033  0.1415  0.2845
35672POPC   C3B74054  12.178  23.043  13.766  0.0734 -0.0850 -0.1105
35672POPC   C4B74055  11.971  23.474  13.748  0.2075  0.1267  0.0926
35673POPC   NC374056   8.582  23.610  15.433 -0.1863 -0.2963  0.0124
35673POPC   PO474057   8.716  23.270  15.264 -0.1935  0.2218  0.0595
35673POPC   GL174058   8.530  23.483  14.976 -0.2539  0.1223  0.0031
35673POPC   GL274059   8.546  23.759  14.967 -0.3088 -0.1008 -0.4195
35673POPC   C1A74060   8.118  23.465  14.842 -0.1532 -0.1112 -0.3715
35673POPC   D2A74061   7.801  23.589  14.506  0.3285 -0.1348 -0.2405
35673POPC   C3A74062   7.780  23.997  14.266  0.0384  0.1038  0.1762
35673POPC   C4A74063   7.842  24.432  14.029 -0.1498  0.3523  0.3666
35673POPC   C1B74064   8.397  24.030  14.636  0.1309  0.3415  0.1173
35673POPC   C2B74065   8.244  23.955  14.193  0.0112 -0.1766  0.1096
35673POPC   C3B74066   8.091  23.812  13.776 -0.5094 -0.3295  0.3939
35673POPC   C4B74067   8.204  23.809  13.262 -0.2508  0.0933  0.3286
35674POPC   NC374068   4.693  21.314  19.151 -0.0906  0.1708  0.2848
35674POPC   PO474069   4.939  21.060  18.967 -0.1894 -0.1172 -0.0180
35674POPC   GL174070   4.855  21.073  18.550  0.0316 -0.3382 -0.0500
35674POPC   GL274071   4.894  21.389  18.559 -0.0941 -0.1843 -0.0612
35674POPC   C1A74072   4.525  21.110  18.167  0.4635  0.0034  0.0990
35674POPC   D2A74073   4.416  21.124  17.754  0.4965 -0.2069 -0.1287
35674POPC   C3A74074   3.930  21.129  17.715  0.1613  0.3329  0.2885
35674POPC   C4A74075   3.466  21.055  17.819 -0.1396  0.0574  0.2123
35674POPC   C1B74076   5.252  21.544  18.248  0.1146  0.0177  0.3202
35674POPC   C2B74077   5.467  21.540  17.866  0.0840 -0.1563 -0.0836
35674POPC   C3B74078   5.414  21.425  17.408 -0.1149  0.3116 -0.1004
35674POPC   C4B74079   5.148  21.466  17.043  0.1276  0.0176 -0.0416
35675POPC   NC374080  13.338  20.487  18.148 -0.0799 -0.1756 -0.1559
35675POPC   PO474081  13.163  20.840  18.129  0.2790  0.0122  0.0538
35675POPC   GL174082  13.451  20.760  17.761  0.4134 -0.0378 -0.2525
35675POPC   GL274083  13.207  20.796  17.575 -0.4758  0.1920  0.0799
35675POPC   C1A74084  13.713  20.390  17.819  0.1366  0.0136  0.0124
35675POPC   D2A74085  14.032  20.031  17.756  0.4009 -0.1780  0.0601
35675POPC   C3A74086  14.281  19.921  17.363  0.7669 -0.2716 -0.2269
35675POPC   C4A74087  14.487  19.882  16.942  0.0997 -0.2131 -0.4688
35675POPC   C1B74088  13.029  20.561  17.196 -0.0930 -0.3109 -0.1702
35675POPC   C2B74089  12.999  20.138  17.117  0.2309 -0.4373  0.2678
35675POPC   C3B74090  13.343  19.805  17.234  0.0971 -0.2195 -0.2146
35675POPC   C4B74091  13.752  19.552  17.144 -0.0571  0.3663  0.7145
35676POPC   NC374092   3.441  25.282  20.434 -0.2029 -0.3529 -0.3149
35676POPC   PO474093   3.565  24.953  20.292 -0.0048  0.2541  0.1955
35676POPC   GL174094   3.668  24.882  19.937 -0.6139  0.2368  0.0670
35676POPC   GL274095   3.499  24.757  19.834  0.0294  0.1274  0.1451
35676POPC   C1A74096   3.750  25.078  19.553 -0.3970 -0.0751  0.0816
35676POPC   D2A74097   3.731  24.994  19.101 -0.2965 -0.2974 -0.3662
35676POPC   C3A74098   3.625  25.084  18.632  0.2815 -0.0638 -0.0838
35676POPC   C4A74099   3.546  25.129  18.166 -0.1146 -0.1130  0.1128
35676POPC   C1B74100   3.560  24.635  19.376 -0.0061 -0.0319  0.2399
35676POPC   C2B74101   3.519  24.562  18.919 -0.0446 -0.2297 -0.0779
35676POPC   C3B74102   3.317  24.627  18.491 -0.0379 -0.2233 -0.1428
35676POPC   C4B74103   3.361  24.521  18.039 -0.0930 -0.0004  0.0108
35677POPC   NC374104   5.519  23.592  20.013  0.0708  0.0623  0.0228
35677POPC   PO474105   5.743  23.909  19.928  0.4649  0.0427  0.3668
35677POPC   GL174106   5.569  23.953  19.470  0.0832  0.5059  0.1612
35677POPC   GL274107   5.548  24.285  19.500  0.1309  0.0825  0.2375
35677POPC   C1A74108   5.257  23.957  19.151 -0.0125  0.1501 -0.2636
35677POPC   D2A74109   4.935  24.277  19.028 -0.0562  0.1376 -0.0037
35677POPC   C3A74110   4.867  24.298  18.573  0.1326 -0.4184  0.0009
35677POPC   C4A74111   4.953  24.661  18.302 -0.0213  0.0208  0.1686
35677POPC   C1B74112   5.546  24.324  19.077 -0.2819  0.1401  0.0751
35677POPC   C2B74113   5.388  24.192  18.693  0.0344  0.0343 -0.2669
35677POPC   C3B74114   5.309  24.290  18.253  0.1559  0.3488  0.1877
35677POPC   C4B74115   5.044  24.253  17.933 -0.0509 -0.1942  0.3839
35678POPC   NC374116  12.760  25.014  19.225  0.1206 -0.3308 -0.1129
35678POPC   PO474117  12.952  25.303  19.381  0.0306  0.1574 -0.0151
35678POPC   GL174118  13.125  25.237  19.032 -0.3474 -0.1397 -0.0015
35678POPC   GL274119  12.977  25.317  18.847 -0.4308  0.0733  0.0908
35678POPC   C1A74120  13.403  25.343  18.661 -0.2378  0.2984 -0.3727
35678POPC   D2A74121  13.445  25.635  18.310  0.1061 -0.2438 -0.2614
35678POPC   C3A74122  13.561  25.640  17.902 -0.0428  0.0529 -0.1232
35678POPC   C4A74123  13.826  25.451  17.593 -0.0476  0.1707 -0.0073
35678POPC   C1B74124  13.014  25.674  18.548  0.2060  0.0521  0.2238
35678POPC   C2B74125  13.108  25.945  18.160  0.1218 -0.1814  0.1243
35678POPC   C3B74126  13.396  26.185  17.922 -0.2783  0.0239 -0.2248
35678POPC   C4B74127  13.698  26.466  17.785 -0.0105  0.0600  0.2511
35679POPC   NC374128  13.882  30.526  20.596  0.1000 -0.0016 -0.1912
35679POPC   PO474129  13.666  30.858  20.540 -0.2857 -0.0956 -0.1773
35679POPC   GL174130  13.523  30.623  20.268  0.3334 -0.1756 -0.0357
35679POPC   GL274131  13.620  30.296  20.189 -0.1273 -0.0769 -0.3072
35679POPC   C1A74132  13.535  30.798  19.829 -0.1101 -0.0620  0.3139
35679POPC   D2A74133  13.586  30.710  19.359 -0.1095 -0.0588 -0.0886
35679POPC   C3A74134  13.608  30.776  18.920  0.1509 -0.0346  0.0979
35679POPC   C4A74135  13.440  30.828  18.526 -0.3199 -0.2539  0.2780
35679POPC   C1B74136  13.782  29.924  19.915 -0.3831 -0.0533  0.0660
35679POPC   C2B74137  13.746  29.752  19.433  0.0999  0.1358  0.0135
35679POPC   C3B74138  14.027  29.474  19.204 -0.0635  0.2089 -0.0625
35679POPC   C4B74139  14.451  29.404  19.167 -0.1873 -0.1613 -0.2565
35680POPC   NC374140   3.631  24.263  19.837  0.2204 -0.0744  0.2143
35680POPC   PO474141   4.057  24.179  19.889 -0.1292 -0.1158  0.1628
35680POPC   GL174142   4.071  24.477  19.574  0.2535  0.1275 -0.0168
35680POPC   GL274143   4.108  24.694  19.785 -0.2527  0.3055  0.0215
35680POPC   C1A74144   4.131  24.584  19.099 -0.2333  0.1076  0.2458
35680POPC   D2A74145   3.924  24.679  18.687  0.0758 -0.1074 -0.0889
35680POPC   C3A74146   3.814  24.657  18.264 -0.1805  0.0514  0.1158
35680POPC   C4A74147   3.858  24.279  17.929 -0.1514 -0.1838  0.2893
35680POPC   C1B74148   4.302  24.992  19.464  0.1687  0.0455  0.3086
35680POPC   C2B74149   4.231  25.059  18.987  0.0218  0.1428  0.0187
35680POPC   C3B74150   4.149  25.139  18.544  0.0147  0.4515 -0.1707
35680POPC   C4B74151   4.069  25.173  18.022  0.0953  0.0624 -0.1856
35681POPC   NC374152   4.784  16.926  19.566 -0.0640 -0.0044  0.1029
35681POPC   PO474153   5.095  16.721  19.704  0.2610 -0.2042 -0.0214
35681POPC   GL174154   4.942  16.581  19.354  0.1425 -0.1905  0.0317
35681POPC   GL274155   4.898  16.702  19.049  0.2584 -0.1808 -0.1665
35681POPC   C1A74156   4.913  16.227  19.102 -0.0493 -0.2499 -0.1985
35681POPC   D2A74157   4.753  16.108  18.688 -0.2393 -0.0052  0.2700
35681POPC   C3A74158   4.779  15.993  18.246 -0.1385 -0.1776  0.2095
35681POPC   C4A74159   4.728  15.759  17.900 -0.2223  0.1250 -0.0363
35681POPC   C1B74160   4.633  16.577  18.693 -0.0553  0.0245  0.0283
35681POPC   C2B74161   4.762  16.492  18.231 -0.2620  0.0400  0.1931
35681POPC   C3B74162   5.001  16.324  17.874 -0.0983 -0.1121 -0.1754
35681POPC   C4B74163   5.081  15.949  17.629  0.0480 -0.1290 -0.0924
35682POPC   NC374164  13.075  19.723  18.518  0.0948  0.2721 -0.1627
35682POPC   PO474165  13.065  20.134  18.375  0.0237  0.2008  0.0081
35682POPC   GL174166  13.177  19.870  18.071 -0.0470  0.2842  0.0799
35682POPC   GL274167  12.970  19.610  18.023 -0.0887 -0.3273 -0.1860
35682POPC   C1A74168  13.338  20.053  17.695  0.1984  0.0308 -0.1435
35682POPC   D2A74169  13.408  20.344  17.395  0.0176 -0.2493 -0.2055
35682POPC   C3A74170  13.561  20.174  16.916 -0.0362  0.1518 -0.1041
35682POPC   C4A74171  13.815  20.463  16.663  0.0839 -0.1926  0.1715
35682POPC   C1B74172  13.161  19.504  17.670  0.1259 -0.3148 -0.0893
35682POPC   C2B74173  13.269  19.370  17.331 -0.0217  0.1401  0.0318
35682POPC   C3B74174  13.240  19.084  16.986 -0.2577  0.0915 -0.0034
35682POPC   C4B74175  13.222  18.664  16.743  0.1788 -0.2678  0.0644
35683POPC   NC374176   8.650  24.246  18.937  0.0831  0.0602  0.2245
35683POPC   PO474177   8.733  24.243  18.562 -0.0161 -0.0081 -0.1452
35683POPC   GL174178   8.649  24.509  18.229  0.1879 -0.1079  0.1648
35683POPC   GL274179   8.886  24.470  18.024  0.3677  0.3112  0.0106
35683POPC   C1A74180   8.401  24.530  17.835 -0.1359 -0.0235 -0.0900
35683POPC   D2A74181   8.080  24.645  17.499 -0.1852  0.2456  0.0161
35683POPC   C3A74182   7.859  25.059  17.423 -0.0300 -0.1668  0.2036
35683POPC   C4A74183   7.718  25.413  17.182  0.1939 -0.2825  0.0571
35683POPC   C1B74184   8.846  24.829  17.807  0.0458 -0.3076  0.7224
35683POPC   C2B74185   8.841  25.231  17.579 -0.0417  0.0492  0.0069
35683POPC   C3B74186   8.796  25.642  17.320  0.1136  0.0984 -0.1023
35683POPC   C4B74187   8.662  26.028  17.210  0.1641  0.2818 -0.3206
35684POPC   NC374188  12.458  21.638  16.835 -0.2685  0.2988  0.0929
35684POPC   PO474189  12.657  21.543  17.165  0.1056 -0.0642 -0.1071
35684POPC   GL174190  12.998  21.626  16.921 -0.3969 -0.0142  0.2655
35684POPC   GL274191  13.008  21.309  16.838  0.0119 -0.1380 -0.1463
35684POPC   C1A74192  13.220  21.767  16.500  0.2009 -0.0883 -0.1039
35684POPC   D2A74193  13.550  21.930  16.330  0.3227 -0.1596 -0.1312
35684POPC   C3A74194  13.698  22.004  15.911  0.0617  0.0657 -0.2915
35684POPC   C4A74195  13.604  22.200  15.505  0.2717  0.0135 -0.1532
35684POPC   C1B74196  13.140  20.918  16.852 -0.0237  0.1672 -0.1285
35684POPC   C2B74197  13.123  20.460  16.692  0.1786  0.2022 -0.3573
35684POPC   C3B74198  13.178  19.979  16.714 -0.1321 -0.2536  0.0139
35684POPC   C4B74199  13.292  19.567  16.837 -0.0287 -0.1924  0.1757
35685POPC   NC374200   9.397  19.557  17.767  0.1871  0.0812 -0.0216
35685POPC   PO474201   9.204  19.272  17.936 -0.2771  0.2076 -0.0399
35685POPC   GL174202   9.171  19.001  17.676 -0.1932  0.0780 -0.1636
35685POPC   GL274203   9.441  18.994  17.606 -0.0413  0.1675 -0.2484
35685POPC   C1A74204   9.158  18.881  17.218  0.2998 -0.1570  0.0022
35685POPC   D2A74205   9.349  18.659  16.825  0.0221 -0.2437 -0.0791
35685POPC   C3A74206   9.181  18.245  16.832 -0.2539  0.0915  0.1237
35685POPC   C4A74207   9.193  17.769  16.650 -0.1435  0.3588  0.4170
35685POPC   C1B74208   9.694  18.781  17.322  0.2646 -0.1859  0.1498
35685POPC   C2B74209   9.830  18.471  17.036 -0.4258  0.1688 -0.4857
35685POPC   C3B74210   9.988  18.106  16.867  0.2706 -0.0418 -0.0096
35685POPC   C4B74211   9.732  18.038  16.525  0.0205  0.1941 -0.0754
35686POPC   NC374212  14.945  25.197  19.577  0.4860 -0.1333 -0.1559
35686POPC   PO474213  14.924  24.791  19.484  0.2286 -0.2690 -0.1204
35686POPC   GL174214  14.777  24.718  19.142  0.1736 -0.0456  0.1575
35686POPC   GL274215  14.690  25.022  19.074  0.1700 -0.0394 -0.1515
35686POPC   C1A74216  14.829  24.652  18.677  0.0557  0.0679  0.1136
35686POPC   D2A74217  15.158  24.740  18.344 -0.0934 -0.1454  0.1134
35686POPC   C3A74218  15.504  24.841  18.087 -0.0249  0.2965  0.1788
35686POPC   C4A74219  15.741  25.284  18.060 -0.0968 -0.0594  0.1634
35686POPC   C1B74220  14.851  25.138  18.642  0.1752 -0.1124 -0.1700
35686POPC   C2B74221  14.795  25.020  18.233 -0.3538 -0.1466 -0.3058
35686POPC   C3B74222  14.902  24.961  17.764 -0.1816  0.1895 -0.2038
35686POPC   C4B74223  15.175  24.847  17.345  0.0878 -0.2356  0.2489
35687POPC   NC374224   6.098  26.281  20.028  0.1203 -0.0142 -0.0309
35687POPC   PO474225   6.439  26.160  20.091  0.0288  0.0225  0.2897
35687POPC   GL174226   6.528  26.516  19.873  0.1320  0.0410 -0.0578
35687POPC   GL274227   6.436  26.408  19.555  0.1250  0.2763  0.1528
35687POPC   C1A74228   6.513  26.872  19.568 -0.0900  0.1360  0.2218
35687POPC   D2A74229   6.625  26.855  19.125 -0.2383 -0.1416 -0.0452
35687POPC   C3A74230   6.809  27.125  18.773 -0.2170  0.2473  0.0240
35687POPC   C4A74231   6.686  27.560  18.614 -0.2311  0.0248 -0.1355
35687POPC   C1B74232   6.214  26.367  19.150 -0.3016 -0.2929  0.1907
35687POPC   C2B74233   6.058  26.632  18.824  0.2630 -0.4132 -0.0108
35687POPC   C3B74234   5.826  27.014  18.528 -0.2229 -0.0639 -0.1181
35687POPC   C4B74235   5.865  27.209  18.121  0.1480 -0.1431  0.1622
35688POPC   NC374236   5.155  20.564  18.442 -0.1220 -0.1049  0.1241
35688POPC   PO474237   4.839  20.635  18.670  0.3076  0.0300 -0.0277
35688POPC   GL174238   4.757  20.448  18.308  0.0013 -0.1410  0.3135
35688POPC   GL274239   4.439  20.447  18.308 -0.4114  0.4926  0.0275
35688POPC   C1A74240   4.564  20.649  17.892  0.1893  0.2862 -0.1735
35688POPC   D2A74241   4.442  20.647  17.416  0.2184  0.1699 -0.0199
35688POPC   C3A74242   4.462  21.137  17.258 -0.0193 -0.1643  0.1160
35688POPC   C4A74243   4.360  21.614  17.131 -0.2464  0.1784  0.0360
35688POPC   C1B74244   4.215  20.267  17.958  0.1094 -0.0842 -0.0350
35688POPC   C2B74245   3.790  20.191  17.692  0.1468  0.0414  0.1479
35688POPC   C3B74246   3.461  19.859  17.694  0.0783  0.2734 -0.4044
35688POPC   C4B74247   2.990  19.880  17.594  0.1685 -0.0926 -0.1555
35689POPC   NC374248  12.755  23.152  18.127 -0.0075 -0.1446  0.4385
35689POPC   PO474249  12.814  22.777  18.172 -0.1066  0.0398 -0.0382
35689POPC   GL174250  12.870  22.737  17.724  0.0742 -0.2882 -0.2324
35689POPC   GL274251  13.133  22.630  17.773 -0.3710  0.2014 -0.2663
35689POPC   C1A74252  12.904  22.945  17.336  0.2282 -0.4935  0.0633
35689POPC   D2A74253  13.224  22.961  17.025 -0.0661 -0.0204 -0.1120
35689POPC   C3A74254  13.414  23.310  16.813  0.0359 -0.1822  0.0346
35689POPC   C4A74255  13.635  23.650  16.583  0.2704  0.1594 -0.0962
35689POPC   C1B74256  13.437  22.810  17.508  0.0814  0.2863 -0.1945
35689POPC   C2B74257  13.682  23.114  17.229  0.1010  0.1628  0.0796
35689POPC   C3B74258  13.980  23.255  16.942 -0.1325  0.2450  0.0579
35689POPC   C4B74259  14.218  23.363  16.586  0.0158  0.0845  0.1573
35690POPC   NC374260  16.147   0.382  19.992  0.2738 -0.3006 -0.0967
35690POPC   PO474261  15.877   0.168  20.194  0.2172  0.0154  0.1334
35690POPC   GL174262  15.865   0.006  19.848  0.0389 -0.3795  0.6280
35690POPC   GL274263  15.589   0.027  19.770 -0.1750 -0.0786  0.0917
35690POPC   C1A74264  16.159  -0.171  19.559 -0.1596 -0.2000 -0.1123
35690POPC   D2A74265  16.437  -0.314  19.182  0.2471  0.1435  0.0445
35690POPC   C3A74266  16.276  -0.727  19.130  0.4335  0.2456  0.1622
35690POPC   C4A74267  16.357  -1.154  19.222  0.1871  0.1123 -0.3021
35690POPC   C1B74268  15.601   0.075  19.327 -0.0854 -0.1723 -0.3376
35690POPC   C2B74269  15.308   0.036  18.993 -0.1928  0.1395  0.1093
35690POPC   C3B74270  14.973  -0.014  18.672  0.2781 -0.2886  0.0788
35690POPC   C4B74271  14.719  -0.067  18.272  0.0768  0.1730  0.2964
35691POPC   NC374272   3.939  19.960  19.515  0.2734 -0.0587  0.0488
35691POPC   PO474273   3.555  19.850  19.440 -0.0463  0.0579  0.2478
35691POPC   GL174274   3.579  20.133  19.094  0.2482 -0.3895  0.0985
35691POPC   GL274275   3.622  20.402  19.226 -0.0572  0.2021 -0.2140
35691POPC   C1A74276   3.532  20.363  18.684 -0.0756  0.2282 -0.0674
35691POPC   D2A74277   3.336  20.292  18.248  0.2334  0.1255  0.2969
35691POPC   C3A74278   3.443  20.466  17.887  0.1335  0.2064 -0.2624
35691POPC   C4A74279   3.689  20.682  17.571 -0.4861 -0.0576  0.0236
35691POPC   C1B74280   3.281  20.617  19.010  0.0465 -0.2118  0.2852
35691POPC   C2B74281   3.198  20.737  18.560  0.0620  0.0263 -0.2233
35691POPC   C3B74282   3.158  20.817  18.061  0.3746 -0.1428  0.0972
35691POPC   C4B74283   2.905  21.075  17.745  0.1190  0.2701  0.0995
35692POPC   NC374284   0.057  17.259  19.890  0.1797  0.0864 -0.2018
35692POPC   PO474285  -0.176  17.569  19.828  0.1226  0.0738 -0.5012
35692POPC   GL174286  -0.049  17.614  19.508  0.0418 -0.3568 -0.0854
35692POPC   GL274287   0.029  17.391  19.380 -0.0581  0.0908  0.0808
35692POPC   C1A74288  -0.208  17.844  19.165  0.1437  0.2934 -0.1084
35692POPC   D2A74289  -0.516  18.126  18.929  0.0854 -0.2343  0.1490
35692POPC   C3A74290  -0.422  18.282  18.491  0.0566 -0.1835 -0.0065
35692POPC   C4A74291  -0.232  18.668  18.301 -0.0107  0.0013 -0.1117
35692POPC   C1B74292  -0.138  17.352  18.957 -0.0740  0.0025  0.1376
35692POPC   C2B74293  -0.048  17.041  18.610 -0.2549  0.2969  0.1725
35692POPC   C3B74294   0.287  16.753  18.381  0.0188  0.0544  0.5756
35692POPC   C4B74295   0.638  16.725  18.044  0.0377 -0.1001  0.2809
35693POPC   NC374296  11.287  18.035  19.147 -0.2281  0.2516 -0.2258
35693POPC   PO474297  11.582  17.893  18.887 -0.0005  0.4461  0.1005
35693POPC   GL174298  11.615  17.918  18.529 -0.2818  0.1267  0.0770
35693POPC   GL274299  11.796  18.092  18.372 -0.1384  0.0384 -0.1758
35693POPC   C1A74300  11.677  17.532  18.286  0.2079 -0.1905 -0.0440
35693POPC   D2A74301  11.487  17.339  17.930  0.0648  0.0125  0.0058
35693POPC   C3A74302  11.405  17.471  17.500  0.0894 -0.3264  0.2307
35693POPC   C4A74303  11.593  17.503  17.043 -0.0190  0.1587  0.2345
35693POPC   C1B74304  12.062  17.940  18.067  0.1378  0.2582 -0.3048
35693POPC   C2B74305  12.139  17.579  17.751 -0.0181 -0.0846 -0.1460
35693POPC   C3B74306  12.282  17.426  17.298 -0.0645  0.0452 -0.2165
35693POPC   C4B74307  12.139  17.429  16.877  0.0304  0.1958  0.2158
35694POPC   NC374308   1.160  29.952  20.540 -0.1422 -0.1415 -0.0709
35694POPC   PO474309   0.811  30.118  20.647 -0.0876  0.1298  0.0255
35694POPC   GL174310   0.608  30.224  20.339 -0.3245  0.2725  0.2343
35694POPC   GL274311   0.859  30.290  20.217 -0.3096 -0.3632 -0.0029
35694POPC   C1A74312   0.434  29.996  19.999 -0.0878 -0.1601 -0.1192
35694POPC   D2A74313   0.375  30.051  19.525  0.1411 -0.0161 -0.1153
35694POPC   C3A74314   0.244  29.914  19.117 -0.0161 -0.0981  0.0928
35694POPC   C4A74315   0.394  29.573  18.829  0.0678  0.3192  0.2635
35694POPC   C1B74316   0.818  30.232  19.778  0.2038  0.2218 -0.0139
35694POPC   C2B74317   1.053  30.313  19.358  0.1197  0.4114  0.2568
35694POPC   C3B74318   1.254  30.619  19.158 -0.4363  0.1048  0.6859
35694POPC   C4B74319   1.634  30.831  18.980  0.4226  0.0299 -0.2420
35695POPC   NC374320   3.241  19.414  19.590 -0.1004  0.0568 -0.2063
35695POPC   PO474321   3.384  19.320  19.233 -0.0431 -0.0914  0.1324
35695POPC   GL174322   3.695  19.395  18.941  0.2100  0.0744 -0.0072
35695POPC   GL274323   3.738  19.099  18.906  0.0648  0.1335 -0.1779
35695POPC   C1A74324   4.086  19.370  18.647 -0.1187 -0.1452  0.1717
35695POPC   D2A74325   4.521  19.392  18.463 -0.0209  0.2912 -0.3189
35695POPC   C3A74326   4.653  19.330  18.025  0.0346 -0.3549  0.1062
35695POPC   C4A74327   4.559  19.088  17.615 -0.1172  0.2839 -0.1650
35695POPC   C1B74328   3.667  18.670  18.906 -0.4967  0.3505 -0.1363
35695POPC   C2B74329   3.484  18.507  18.491 -0.0176 -0.2987  0.0470
35695POPC   C3B74330   3.391  18.402  18.101  0.1999 -0.1878  0.1114
35695POPC   C4B74331   2.976  18.215  18.050 -0.0085 -0.0404  0.5538
35696POPC   NC374332   5.852  31.518  20.723 -0.3810 -0.4200 -0.0195
35696POPC   PO474333   6.182  31.416  20.529 -0.0197 -0.1080  0.0930
35696POPC   GL174334   6.156  31.371  20.179 -0.3626  0.0013  0.0149
35696POPC   GL274335   6.015  31.500  19.995  0.0569  0.1351 -0.0925
35696POPC   C1A74336   6.338  31.160  19.808 -0.0864 -0.2528  0.0092
35696POPC   D2A74337   6.308  31.204  19.326  0.2121  0.0403  0.0491
35696POPC   C3A74338   6.518  31.069  18.919  0.0885 -0.2085  0.1635
35696POPC   C4A74339   6.778  30.973  18.571  0.1968  0.2385  0.1307
35696POPC   C1B74340   5.711  31.517  19.587  0.0496  0.1131 -0.0560
35696POPC   C2B74341   5.791  31.390  19.135 -0.1897  0.1858  0.0048
35696POPC   C3B74342   5.971  31.240  18.721 -0.0780  0.2478 -0.2428
35696POPC   C4B74343   6.243  30.928  18.522 -0.2426  0.1148 -0.3728
35697POPC   NC374344   5.994  27.358  20.175  0.0608 -0.2071 -0.1960
35697POPC   PO474345   5.589  27.260  20.128  0.0703 -0.2643  0.3616
35697POPC   GL174346   5.655  27.294  19.751 -0.1057 -0.3426  0.0745
35697POPC   GL274347   5.641  27.009  19.651 -0.0195 -0.0403 -0.1956
35697POPC   C1A74348   5.645  27.610  19.385 -0.0303 -0.0962 -0.3131
35697POPC   D2A74349   6.033  27.836  19.307 -0.1941 -0.1282 -0.2166
35697POPC   C3A74350   6.383  27.897  19.015 -0.2515 -0.1028 -0.2368
35697POPC   C4A74351   6.515  28.015  18.632  0.0157 -0.0027  0.2157
35697POPC   C1B74352   5.495  27.172  19.266  0.2442 -0.0929 -0.2243
35697POPC   C2B74353   5.734  27.340  18.946  0.3502  0.0223 -0.2843
35697POPC   C3B74354   5.738  27.785  18.859  0.4033 -0.0939 -0.1103
35697POPC   C4B74355   6.001  28.066  18.717 -0.0201 -0.2101  0.1143
35698POPC   NC374356  10.612  20.851  15.484  0.1617 -0.0230 -0.1450
35698POPC   PO474357  10.435  20.698  15.780 -0.1922 -0.3595  0.1478
35698POPC   GL174358  10.313  20.367  15.911 -0.1305  0.2049 -0.1109
35698POPC   GL274359  10.434  20.291  15.548 -0.2348 -0.3417  0.1253
35698POPC   C1A74360  10.402  19.917  15.906  0.1921 -0.4654 -0.0052
35698POPC   D2A74361  10.368  19.520  15.647  0.3494 -0.2178 -0.1107
35698POPC   C3A74362  10.268  19.098  15.790 -0.0165  0.0433  0.2188
35698POPC   C4A74363  10.291  18.684  15.920 -0.1616  0.2746 -0.0977
35698POPC   C1B74364  10.811  20.222  15.293 -0.0706 -0.2726  0.0165
35698POPC   C2B74365  11.023  20.039  14.955  0.0083 -0.1712  0.2836
35698POPC   C3B74366  11.045  20.144  14.509 -0.0359 -0.0017  0.1298
35698POPC   C4B74367  10.753  20.087  14.152 -0.3248  0.3594  0.1408
35699POPC   NC374368   5.600  21.436  18.656 -0.2867  0.0256  0.0040
35699POPC   PO474369   5.809  21.735  18.728 -0.0759 -0.0840 -0.0253
35699POPC   GL174370   5.754  22.002  18.484  0.0196 -0.4976 -0.1762
35699POPC   GL274371   5.776  21.763  18.235  0.1648 -0.0316 -0.2580
35699POPC   C1A74372   5.338  22.205  18.398  0.1909 -0.1376  0.0211
35699POPC   D2A74373   4.937  22.294  18.142  0.1498 -0.0301 -0.2172
35699POPC   C3A74374   4.937  22.340  17.670 -0.0839 -0.0004  0.0928
35699POPC   C4A74375   4.981  22.377  17.169 -0.0082 -0.0537 -0.0744
35699POPC   C1B74376   5.966  21.657  17.852 -0.2447  0.0853  0.2749
35699POPC   C2B74377   5.903  21.522  17.404  0.0941 -0.2132 -0.2401
35699POPC   C3B74378   5.815  21.249  17.111 -0.1190  0.0386 -0.2749
35699POPC   C4B74379   5.882  21.339  16.681  0.1790  0.1779 -0.1293
35700POPC   NC374380  11.158  17.969  18.615  0.3787  0.0379  0.1059
35700POPC   PO474381  10.812  18.138  18.731  0.0362  0.4877  0.1893
35700POPC   GL174382  10.713  17.900  18.501 -0.0330  0.1347  0.3841
35700POPC   GL274383  10.594  17.560  18.466 -0.2163  0.0107 -0.2315
35700POPC   C1A74384  10.672  17.767  17.999  0.1186 -0.1799 -0.2830
35700POPC   D2A74385  10.530  17.485  17.658 -0.0595 -0.1311 -0.0347
35700POPC   C3A74386  10.184  17.174  17.566 -0.0794 -0.4711 -0.0627
35700POPC   C4A74387  10.109  16.773  17.420  0.0481 -0.1154  0.0855
35700POPC   C1B74388  10.410  17.333  18.108 -0.0026  0.1950  0.0558
35700POPC   C2B74389  10.437  16.907  17.996 -0.2386  0.3923  0.0080
35700POPC   C3B74390  10.519  16.452  17.921 -0.1588  0.1076 -0.2432
35700POPC   C4B74391  10.879  16.148  17.793 -0.0292 -0.4805  0.2206
35701POPC   NC374392  12.616  19.899  18.309 -0.3556 -0.1066  0.2214
35701POPC   PO474393  12.643  19.516  18.390  0.1333  0.0602 -0.0788
35701POPC   GL174394  12.758  19.210  18.221 -0.0484  0.1990  0.0203
35701POPC   GL274395  12.924  19.090  18.408 -0.1855  0.1396 -0.0924
35701POPC   C1A74396  13.014  19.119  17.847  0.2152  0.1641  0.1563
35701POPC   D2A74397  13.262  18.842  17.503  0.0045  0.4787 -0.0885
35701POPC   C3A74398  13.603  18.639  17.587 -0.1710  0.0004 -0.1182
35701POPC   C4A74399  14.061  18.511  17.519 -0.2113  0.0863  0.2460
35701POPC   C1B74400  13.298  19.278  18.261 -0.1261 -0.0008  0.0441
35701POPC   C2B74401  13.560  19.582  18.051 -0.1465  0.0485 -0.0622
35701POPC   C3B74402  13.696  19.636  17.604 -0.1778  0.0728 -0.0897
35701POPC   C4B74403  13.784  20.059  17.344 -0.1411 -0.0062  0.0250
35702POPC   NC374404  14.475  20.811  19.477 -0.4163 -0.0039 -0.1349
35702POPC   PO474405  14.685  20.533  19.347 -0.3690  0.0124  0.0975
35702POPC   GL174406  14.770  20.382  18.960  0.5548 -0.0913 -0.2360
35702POPC   GL274407  15.034  20.179  18.961 -0.0937 -0.0254 -0.0215
35702POPC   C1A74408  14.940  20.565  18.640 -0.0808 -0.4172 -0.2879
35702POPC   D2A74409  15.197  20.769  18.326  0.0550  0.2637  0.0635
35702POPC   C3A74410  15.004  20.804  17.959 -0.0874  0.5164 -0.2036
35702POPC   C4A74411  15.067  21.191  17.739 -0.2332 -0.1264  0.2066
35702POPC   C1B74412  15.078  20.004  18.503  0.0846 -0.3100  0.1650
35702POPC   C2B74413  15.064  19.869  18.068  0.1762  0.0656 -0.0764
35702POPC   C3B74414  15.041  19.519  17.736 -0.0769 -0.0773  0.1491
35702POPC   C4B74415  14.794  19.538  17.342 -0.0021  0.1167 -0.0670
35703POPC   NC374416   4.994  19.784  18.842 -0.2323  0.0228 -0.0160
35703POPC   PO474417   5.136  20.142  18.848 -0.0930 -0.2858  0.0840
35703POPC   GL174418   5.040  20.063  18.410 -0.2931  0.0469 -0.1138
35703POPC   GL274419   5.308  20.042  18.269  0.1450 -0.0789  0.0462
35703POPC   C1A74420   4.668  20.018  18.159 -0.1400  0.3864 -0.0150
35703POPC   D2A74421   4.498  19.882  17.764 -0.0264 -0.2214 -0.0823
35703POPC   C3A74422   4.256  20.154  17.442  0.0700 -0.1500 -0.0657
35703POPC   C4A74423   4.288  20.359  17.032 -0.1960 -0.3408  0.0380
35703POPC   C1B74424   5.084  20.277  17.984  0.0665 -0.0707  0.1347
35703POPC   C2B74425   4.743  20.274  17.636 -0.0164 -0.0513  0.0862
35703POPC   C3B74426   4.716  20.078  17.268  0.0516 -0.0788 -0.3902
35703POPC   C4B74427   4.752  20.294  16.892 -0.0773  0.1637 -0.0107
35704POPC   NC374428   8.395  22.091  14.889  0.1330  0.0742  0.0201
35704POPC   PO474429   8.599  21.818  14.653  0.3032  0.3869  0.0678
35704POPC   GL174430   8.248  21.716  14.562 -0.0061 -0.0910  0.4004
35704POPC   GL274431   8.106  21.982  14.497  0.1304 -0.0871  0.3713
35704POPC   C1A74432   7.929  21.490  14.348 -0.0857 -0.0177 -0.0200
35704POPC   D2A74433   7.637  21.325  14.124  0.0790 -0.1315  0.1415
35704POPC   C3A74434   7.383  21.749  14.188 -0.1370 -0.1510  0.1156
35704POPC   C4A74435   7.363  22.092  13.926 -0.4055 -0.1035 -0.1312
35704POPC   C1B74436   7.839  21.977  14.128 -0.1548 -0.1761 -0.1333
35704POPC   C2B74437   7.825  22.031  13.663  0.1038 -0.1427 -0.0602
35704POPC   C3B74438   7.680  22.342  13.315  0.0958  0.0978 -0.0724
35704POPC   C4B74439   7.472  22.622  13.061 -0.0272 -0.1923 -0.1016
35705POPC   NC374440  10.201  28.662  20.528 -0.0776 -0.2534  0.0326
35705POPC   PO474441  10.612  28.755  20.583 -0.0165  0.3274 -0.1230
35705POPC   GL174442  10.441  28.639  20.148 -0.2109 -0.3272 -0.0918
35705POPC   GL274443  10.626  28.751  19.954  0.3115 -0.1050 -0.1218
35705POPC   C1A74444  10.142  28.572  19.826 -0.2048  0.1871  0.1911
35705POPC   D2A74445   9.777  28.587  19.630  0.2545  0.0839  0.2862
35705POPC   C3A74446   9.673  28.528  19.195  0.1185  0.0885  0.2038
35705POPC   C4A74447   9.563  28.565  18.742 -0.1676 -0.2914 -0.1911
35705POPC   C1B74448  10.461  28.761  19.551  0.2253 -0.0460 -0.4004
35705POPC   C2B74449  10.234  28.625  19.152 -0.0706  0.3076 -0.1736
35705POPC   C3B74450  10.041  28.683  18.748  0.1839 -0.1472  0.0465
35705POPC   C4B74451  10.081  28.756  18.308  0.0769 -0.5497 -0.1432
35706POPC   NC374452   9.870  15.251  20.294 -0.0769  0.0516  0.0955
35706POPC   PO474453  10.115  15.363  20.058 -0.0588  0.0747 -0.3324
35706POPC   GL174454  10.261  15.374  19.690 -0.2604  0.0149  0.1537
35706POPC   GL274455  10.515  15.465  19.731  0.0932 -0.4582  0.2760
35706POPC   C1A74456  10.231  15.720  19.376 -0.1398 -0.1705  0.0594
35706POPC   D2A74457  10.205  16.005  19.022  0.1899 -0.4567 -0.2398
35706POPC   C3A74458  10.015  16.006  18.580  0.0504 -0.1270 -0.0615
35706POPC   C4A74459   9.614  15.860  18.326  0.1857  0.0520 -0.1525
35706POPC   C1B74460  10.539  15.296  19.299  0.0605 -0.2524  0.0794
35706POPC   C2B74461  10.562  15.294  18.820 -0.2381  0.0608 -0.3216
35706POPC   C3B74462  10.812  15.145  18.503 -0.0412 -0.4391 -0.2047
35706POPC   C4B74463  11.003  15.107  18.064 -0.0111 -0.0861  0.1298
35707POPC   NC374464  12.819  24.293  18.541  0.3706 -0.2081 -0.1110
35707POPC   PO474465  12.950  24.411  18.861 -0.2120 -0.1345 -0.2952
35707POPC   GL174466  13.312  24.540  18.776  0.3249 -0.0825  0.1715
35707POPC   GL274467  13.212  24.813  18.635 -0.0880 -0.1851 -0.1724
35707POPC   C1A74468  13.490  24.368  18.396 -0.0497 -0.0241  0.0546
35707POPC   D2A74469  13.493  24.348  17.925  0.1091  0.3192 -0.0205
35707POPC   C3A74470  13.847  24.429  17.716  0.1902 -0.1598 -0.0267
35707POPC   C4A74471  14.294  24.646  17.855  0.0038 -0.1285  0.2105
35707POPC   C1B74472  13.246  25.099  18.277  0.0304 -0.1754  0.0369
35707POPC   C2B74473  13.218  25.294  17.815 -0.0756  0.0928  0.2622
35707POPC   C3B74474  13.318  25.257  17.333 -0.0061 -0.2095  0.1114
35707POPC   C4B74475  13.264  25.002  16.937  0.1268  0.1963  0.1396
35708POPC   NC374476  14.528  31.738  20.516  0.2340 -0.2641 -0.0385
35708POPC   PO474477  14.688  32.043  20.280  0.2167 -0.0662  0.0459
35708POPC   GL174478  14.866  31.888  19.961 -0.0623 -0.0999 -0.1298
35708POPC   GL274479  14.778  31.945  19.708  0.2055 -0.2050  0.2742
35708POPC   C1A74480  15.144  31.590  19.687  0.0605 -0.0926  0.1406
35708POPC   D2A74481  15.389  31.232  19.530  0.2927 -0.1412 -0.2109
35708POPC   C3A74482  15.545  31.044  19.136 -0.1020 -0.2517  0.4303
35708POPC   C4A74483  15.625  30.999  18.663  0.1970 -0.0802 -0.2004
35708POPC   C1B74484  14.624  32.123  19.334  0.2027  0.2101 -0.0361
35708POPC   C2B74485  14.432  31.844  19.005 -0.1388  0.0819 -0.0447
35708POPC   C3B74486  14.334  31.395  18.864 -0.0749  0.1140  0.1220
35708POPC   C4B74487  14.438  31.072  18.600  0.1023  0.0867  0.0357
35709POPC   NC374488  14.429  23.859  19.283  0.5976 -0.1856 -0.3306
35709POPC   PO474489  14.093  23.731  19.249 -0.0608 -0.0909  0.2069
35709POPC   GL174490  14.370  23.871  18.843  0.3129  0.1026 -0.0797
35709POPC   GL274491  14.613  23.642  18.822  0.0330 -0.2856  0.0736
35709POPC   C1A74492  14.661  24.126  18.580 -0.2597 -0.1678  0.0654
35709POPC   D2A74493  14.983  24.156  18.338  0.1765  0.0665  0.0741
35709POPC   C3A74494  15.430  24.255  18.118 -0.2436  0.3219  0.0800
35709POPC   C4A74495  15.714  24.151  17.784 -0.0271 -0.1913 -0.1647
35709POPC   C1B74496  15.018  23.728  18.674 -0.0437  0.0609 -0.2094
35709POPC   C2B74497  15.445  23.860  18.779  0.5063  0.0413 -0.0312
35709POPC   C3B74498  15.598  24.198  19.123  0.0600  0.4436 -0.1487
35709POPC   C4B74499  15.523  24.654  19.131 -0.0474  0.1115 -0.0520
35710POPC   NC374500   4.232  32.127  20.424  0.1900 -0.0134  0.3281
35710POPC   PO474501   3.919  31.945  20.633  0.0653  0.1061  0.0884
35710POPC   GL174502   3.770  32.097  20.347  0.0998  0.0335  0.2067
35710POPC   GL274503   3.569  32.375  20.269  0.0534  0.0320 -0.0456
35710POPC   C1A74504   3.819  32.028  19.906  0.2434  0.0948 -0.3125
35710POPC   D2A74505   3.711  32.159  19.487 -0.0441  0.0978  0.0378
35710POPC   C3A74506   3.741  32.064  19.033 -0.1110 -0.2888  0.1119
35710POPC   C4A74507   3.999  31.948  18.661  0.0977 -0.3042 -0.0601
35710POPC   C1B74508   3.395  32.339  19.835 -0.1173  0.0984  0.2095
35710POPC   C2B74509   3.278  32.309  19.322 -0.0201 -0.0481 -0.4683
35710POPC   C3B74510   3.269  32.113  18.910  0.0115 -0.0669  0.0160
35710POPC   C4B74511   3.444  32.073  18.436  0.2229  0.1450 -0.0068
35711POPC   NC374512   6.387  20.287  18.016  0.0856  0.1944 -0.1827
35711POPC   PO474513   6.077  20.283  18.268 -0.0682 -0.1471 -0.1163
35711POPC   GL174514   5.939  20.373  17.942 -0.0007 -0.0057  0.0163
35711POPC   GL274515   5.749  20.602  18.031  0.4190  0.0378 -0.1690
35711POPC   C1A74516   5.517  20.223  17.796 -0.3444  0.1701 -0.0702
35711POPC   D2A74517   5.274  20.348  17.469  0.1692  0.0500  0.3468
35711POPC   C3A74518   5.220  20.076  17.043 -0.0450  0.1665  0.0317
35711POPC   C4A74519   5.028  19.919  16.635 -0.0440 -0.4708 -0.0747
35711POPC   C1B74520   5.336  20.684  17.882 -0.2839 -0.2240 -0.1910
35711POPC   C2B74521   4.946  20.760  17.633  0.3596 -0.2248  0.1160
35711POPC   C3B74522   4.976  21.035  17.233 -0.1650 -0.0701 -0.0737
35711POPC   C4B74523   5.067  21.088  16.771  0.1740 -0.1134 -0.0659
35712POPC   NC374524  16.656  29.643  20.185  0.0633  0.0541 -0.0227
35712POPC   PO474525  16.332  29.548  20.416 -0.1197  0.4198  0.0939
35712POPC   GL174526  16.180  29.704  20.195  0.0327  0.1155 -0.0306
35712POPC   GL274527  16.226  29.531  19.939 -0.1560  0.2775  0.0645
35712POPC   C1A74528  15.945  29.876  19.873  0.2094  0.0465 -0.0841
35712POPC   D2A74529  16.089  29.889  19.497  0.0742  0.0151  0.1616
35712POPC   C3A74530  15.801  30.045  19.184 -0.2130 -0.3703 -0.1427
35712POPC   C4A74531  15.653  30.526  19.073  0.1139  0.0736 -0.0625
35712POPC   C1B74532  16.472  29.595  19.601  0.2728 -0.1506 -0.0518
35712POPC   C2B74533  16.541  29.665  19.139 -0.0208 -0.0590 -0.1054
35712POPC   C3B74534  16.595  29.697  18.688  0.1619  0.1173  0.1394
35712POPC   C4B74535  16.821  29.749  18.280  0.0859  0.3340 -0.0413
35713POPC   NC374536   7.906  28.466  19.969  0.2320 -0.0752  0.2427
35713POPC   PO474537   7.564  28.407  20.137  0.0908 -0.1181  0.3128
35713POPC   GL174538   7.691  28.097  19.835 -0.2359  0.0525 -0.2148
35713POPC   GL274539   7.520  28.122  19.587 -0.1656 -0.1634  0.1691
35713POPC   C1A74540   7.814  27.734  19.467  0.2494  0.1656 -0.1641
35713POPC   D2A74541   7.610  27.340  19.490 -0.0283 -0.0516  0.0529
35713POPC   C3A74542   7.770  27.045  19.156  0.3752 -0.0135  0.1010
35713POPC   C4A74543   8.157  27.011  18.925 -0.1760 -0.3820 -0.0255
35713POPC   C1B74544   7.694  28.087  19.140 -0.0227  0.1948  0.0327
35713POPC   C2B74545   7.726  28.011  18.665  0.1173  0.2269  0.1424
35713POPC   C3B74546   7.440  27.905  18.311 -0.0498 -0.1466  0.2122
35713POPC   C4B74547   7.247  27.458  18.124  0.1053 -0.3003  0.2527
35714POPC   NC374548   6.844  27.653  20.356  0.1671  0.3534  0.1395
35714POPC   PO474549   6.456  27.510  20.370  0.1881  0.3616 -0.0599
35714POPC   GL174550   6.398  27.527  19.976  0.0182 -0.0220  0.0252
35714POPC   GL274551   6.266  27.782  20.026  0.0050 -0.2198  0.2707
35714POPC   C1A74552   6.123  27.374  19.600 -0.0106 -0.0568  0.0841
35714POPC   D2A74553   6.116  27.077  19.154  0.0926 -0.0345  0.0259
35714POPC   C3A74554   6.315  27.105  18.733 -0.0673 -0.1513  0.2561
35714POPC   C4A74555   6.312  27.250  18.326 -0.4631 -0.1315  0.0081
35714POPC   C1B74556   6.376  28.021  19.600  0.1178 -0.3070 -0.2119
35714POPC   C2B74557   6.739  28.077  19.335  0.0625 -0.0646 -0.0155
35714POPC   C3B74558   6.646  28.369  18.983  0.0510 -0.0349 -0.1167
35714POPC   C4B74559   6.311  28.483  18.744  0.1961  0.2423  0.2155
35715POPC   NC374560  16.305  28.116  20.401 -0.0112 -0.0335  0.1916
35715POPC   PO474561  16.648  28.190  20.602 -0.0606 -0.1036  0.1175
35715POPC   GL174562  16.935  28.087  20.254 -0.1772 -0.6371  0.2236
35715POPC   GL274563  16.766  28.307  20.121  0.2107 -0.1930 -0.2955
35715POPC   C1A74564  16.949  27.741  19.905 -0.0629 -0.1788 -0.0269
35715POPC   D2A74565  16.955  27.346  19.579 -0.2211 -0.1441 -0.0622
35715POPC   C3A74566  16.520  27.139  19.443  0.0016 -0.2226 -0.5784
35715POPC   C4A74567  16.511  26.836  19.158  0.0315  0.0635 -0.0186
35715POPC   C1B74568  16.780  28.215  19.712  0.0486 -0.1983 -0.2040
35715POPC   C2B74569  16.875  28.381  19.273 -0.0185 -0.0409 -0.0145
35715POPC   C3B74570  16.791  28.548  18.889 -0.0598 -0.0673  0.2873
35715POPC   C4B74571  16.862  28.994  18.856 -0.1969 -0.2419 -0.3188
35716POPC   NC374572   9.443  29.983  20.890 -0.1147 -0.1857  0.0208
35716POPC   PO474573   9.794  29.833  20.729 -0.4430 -0.1610  0.0093
35716POPC   GL174574   9.986  29.545  20.386  0.3855 -0.0152 -0.1285
35716POPC   GL274575  10.079  29.786  20.259  0.3722  0.0932 -0.1307
35716POPC   C1A74576   9.762  29.362  20.015  0.2400  0.1776  0.0442
35716POPC   D2A74577   9.494  29.027  19.869  0.1579 -0.1354  0.3850
35716POPC   C3A74578   9.322  28.775  19.493  0.0264 -0.2348  0.4558
35716POPC   C4A74579   9.157  28.594  19.090 -0.0204  0.0237 -0.2381
35716POPC   C1B74580  10.150  29.631  19.853 -0.0979 -0.2735 -0.0543
35716POPC   C2B74581  10.359  29.438  19.446  0.1370  0.1183 -0.2398
35716POPC   C3B74582  10.338  29.118  19.168 -0.0357 -0.0946  0.2655
35716POPC   C4B74583  10.499  28.872  18.841  0.0733 -0.0378  0.0083
35717POPC   NC374584  10.902  22.264  12.824 -0.0830  0.0260  0.0999
35717POPC   PO474585  10.775  21.880  12.921  0.0224  0.1423 -0.1336
35717POPC   GL174586  10.995  21.666  12.611  0.5223 -0.2941  0.0071
35717POPC   GL274587  10.975  21.451  12.472  0.1354  0.3386 -0.3734
35717POPC   C1A74588  11.427  21.710  12.583  0.1666  0.0351  0.1481
35717POPC   D2A74589  11.909  21.788  12.544  0.2685 -0.3500  0.2024
35717POPC   C3A74590  12.102  21.448  12.813  0.3425  0.3109 -0.3756
35717POPC   C4A74591  12.279  21.145  13.146  0.1629  0.1488 -0.1124
35717POPC   C1B74592  11.340  21.245  12.365  0.1533 -0.1222  0.0058
35717POPC   C2B74593  11.787  21.381  12.288  0.3104 -0.1241  0.1045
35717POPC   C3B74594  12.228  21.597  12.174  0.0393 -0.0057 -0.0163
35717POPC   C4B74595  12.459  21.981  11.985  0.0041 -0.2580  0.2684
35718POPC   NC374596   0.816  18.447  19.780 -0.3734 -0.0815  0.1448
35718POPC   PO474597   0.582  18.145  19.869 -0.0582 -0.1106  0.1344
35718POPC   GL174598   0.628  18.133  19.416 -0.0422 -0.1959 -0.5358
35718POPC   GL274599   0.485  18.365  19.339 -0.1264 -0.1895  0.0072
35718POPC   C1A74600   0.808  17.845  19.124 -0.2086  0.3322 -0.0366
35718POPC   D2A74601   0.979  17.684  18.719  0.2640 -0.3981 -0.0920
35718POPC   C3A74602   0.661  17.687  18.406  0.0043 -0.1574  0.1179
35718POPC   C4A74603   0.375  18.045  18.494 -0.0368  0.1600  0.0189
35718POPC   C1B74604   0.637  18.242  18.881 -0.1848  0.1206  0.1250
35718POPC   C2B74605   0.833  18.208  18.453 -0.1280  0.0572  0.1361
35718POPC   C3B74606   0.841  18.187  18.002 -0.1709 -0.0306  0.2388
35718POPC   C4B74607   1.150  18.368  17.608  0.1896 -0.2004 -0.2472
35719POPC   NC374608   6.978  23.291  18.720  0.3187  0.1169  0.2860
35719POPC   PO474609   6.624  23.448  18.811  0.1071  0.0720 -0.1142
35719POPC   GL174610   6.234  23.601  18.641  0.2049 -0.0489 -0.1833
35719POPC   GL274611   6.148  23.364  18.490 -0.0831 -0.0969  0.2459
35719POPC   C1A74612   6.051  24.032  18.580 -0.1412  0.1938 -0.3672
35719POPC   D2A74613   5.987  24.347  18.256  0.1296  0.0889 -0.4329
35719POPC   C3A74614   5.906  24.369  17.787 -0.0961  0.0479 -0.3874
35719POPC   C4A74615   6.150  24.597  17.458 -0.0050 -0.1103  0.2734
35719POPC   C1B74616   6.016  23.657  18.121 -0.0699 -0.0013  0.1831
35719POPC   C2B74617   5.913  23.771  17.676  0.0635 -0.2933 -0.1240
35719POPC   C3B74618   5.818  23.894  17.243  0.1187 -0.0447 -0.1534
35719POPC   C4B74619   5.445  24.154  17.049 -0.1376  0.2080  0.0899
35720POPC   NC374620   0.775  31.854  20.267  0.0365  0.0681  0.0574
35720POPC   PO474621   0.914  31.514  20.403 -0.1950  0.0378  0.1111
35720POPC   GL174622   1.102  31.478  20.049 -0.0423  0.0440  0.1366
35720POPC   GL274623   1.358  31.699  20.144  0.1033 -0.1114  0.0906
35720POPC   C1A74624   1.436  31.509  19.715  0.3202 -0.1176 -0.3641
35720POPC   D2A74625   1.663  31.369  19.383 -0.4092 -0.1100 -0.0019
35720POPC   C3A74626   1.390  31.251  18.967 -0.0347  0.0233 -0.1247
35720POPC   C4A74627   1.097  31.100  18.646  0.1514 -0.0502 -0.1482
35720POPC   C1B74628   1.013  31.821  19.802  0.2068  0.0737  0.0246
35720POPC   C2B74629   0.953  32.074  19.419  0.0164  0.1426  0.0758
35720POPC   C3B74630   0.861  32.202  19.009 -0.0008  0.2509  0.1453
35720POPC   C4B74631   0.886  32.309  18.557 -0.1091 -0.2333  0.5031
35721POPC   NC374632   6.104  20.804  18.386 -0.0151 -0.4603  0.3151
35721POPC   PO474633   6.300  20.754  18.104  0.2496 -0.0735  0.1701
35721POPC   GL174634   6.286  20.678  17.784 -0.2125 -0.1517 -0.0179
35721POPC   GL274635   6.512  20.654  17.692 -0.0250 -0.0395  0.2261
35721POPC   C1A74636   5.921  20.515  17.557  0.0907 -0.0725 -0.0442
35721POPC   D2A74637   5.682  20.193  17.292 -0.0541 -0.0189  0.0735
35721POPC   C3A74638   5.669  19.974  16.883  0.0567 -0.1464  0.0935
35721POPC   C4A74639   5.467  19.560  16.684 -0.0230 -0.0488  0.0300
35721POPC   C1B74640   6.348  20.419  17.329  0.2940 -0.2195  0.2344
35721POPC   C2B74641   6.052  20.351  16.982  0.0164  0.2142  0.2967
35721POPC   C3B74642   5.794  20.357  16.584  0.0355 -0.1364 -0.0254
35721POPC   C4B74643   5.526  20.491  16.196 -0.2692  0.0238  0.0581
35722POPC   NC374644  12.260  20.588  17.886  0.0200 -0.1833 -0.0395
35722POPC   PO474645  12.302  20.330  18.153  0.0771 -0.0899  0.0725
35722POPC   GL174646  12.415  20.216  17.744  0.2126  0.2276 -0.2846
35722POPC   GL274647  12.517  19.905  17.836 -0.0872 -0.0174 -0.0209
35722POPC   C1A74648  12.406  20.002  17.346 -0.1904  0.0527 -0.0801
35722POPC   D2A74649  12.523  19.848  16.949  0.1502  0.3168 -0.1461
35722POPC   C3A74650  12.786  19.718  16.593 -0.2539 -0.3277  0.1349
35722POPC   C4A74651  12.859  19.442  16.198 -0.1231 -0.0928 -0.0109
35722POPC   C1B74652  12.553  19.489  17.642  0.2108 -0.2538  0.2045
35722POPC   C2B74653  12.796  19.183  17.374 -0.2274  0.1295  0.1487
35722POPC   C3B74654  12.812  18.830  17.080  0.0446  0.0620  0.1354
35722POPC   C4B74655  12.752  18.417  17.033 -0.0949  0.0581  0.0661
35723POPC   NC374656   2.320  16.719  20.679  0.1724  0.0616 -0.3524
35723POPC   PO474657   2.303  16.726  20.311  0.1401 -0.3027  0.2116
35723POPC   GL174658   2.252  16.718  19.927  0.0812  0.1628 -0.1912
35723POPC   GL274659   2.522  16.766  19.852  0.1571  0.0351 -0.2345
35723POPC   C1A74660   1.856  16.547  19.677  0.2783 -0.0674 -0.2098
35723POPC   D2A74661   1.680  16.215  19.403 -0.1363  0.1238 -0.1274
35723POPC   C3A74662   1.334  15.960  19.391 -0.1137 -0.1413  0.2780
35723POPC   C4A74663   1.095  15.855  19.775 -0.0187 -0.1113  0.0900
35723POPC   C1B74664   2.526  16.780  19.345  0.0871  0.1060 -0.2068
35723POPC   C2B74665   2.599  16.593  18.884  0.0820 -0.0085  0.0201
35723POPC   C3B74666   2.839  16.293  18.590  0.1154  0.0737  0.0852
35723POPC   C4B74667   3.295  16.267  18.343  0.0108 -0.2866 -0.1341
35724POPC   NC374668   9.205  22.338  12.648 -0.1154 -0.2296  0.0081
35724POPC   PO474669   8.949  22.098  12.793  0.0132  0.1269 -0.1160
35724POPC   GL174670   8.940  21.770  12.925  0.5373 -0.3898  0.2141
35724POPC   GL274671   9.129  21.552  13.057 -0.1968 -0.1734  0.4563
35724POPC   C1A74672   8.560  21.536  13.084 -0.2784  0.2963 -0.0737
35724POPC   D2A74673   8.195  21.269  13.288  0.2263 -0.0923 -0.1826
35724POPC   C3A74674   8.016  20.855  13.213 -0.2357 -0.1015 -0.0758
35724POPC   C4A74675   7.870  20.492  13.028  0.1151  0.0061  0.0129
35724POPC   C1B74676   8.860  21.339  12.707  0.2006  0.1119  0.1005
35724POPC   C2B74677   8.412  21.175  12.747 -0.1551  0.1651  0.1358
35724POPC   C3B74678   8.061  20.829  12.674  0.0951  0.1264 -0.0710
35724POPC   C4B74679   7.652  20.718  12.563  0.1618 -0.1142 -0.2177
35725POPC   NC374680  31.151  17.062  20.030 -0.0268 -0.4185 -0.2169
35725POPC   PO474681  31.527  17.050  20.054  0.2684 -0.1468 -0.2112
35725POPC   GL174682  31.812  17.029  19.678  0.0342  0.1389 -0.0945
35725POPC   GL274683  32.069  16.832  19.522 -0.1682  0.1314  0.2153
35725POPC   C1A74684  31.839  17.331  19.357  0.0248  0.2332 -0.3798
35725POPC   D2A74685  31.488  17.539  19.095 -0.1239 -0.3785  0.1274
35725POPC   C3A74686  31.741  17.514  18.698 -0.2860 -0.3548 -0.0112
35725POPC   C4A74687  31.769  17.333  18.274  0.3405 -0.2688  0.1592
35725POPC   C1B74688  32.122  16.698  19.072  0.0538  0.0759  0.1568
35725POPC   C2B74689  32.078  16.513  18.680  0.0335  0.1441  0.1716
35725POPC   C3B74690  31.927  16.344  18.282  0.0635 -0.0726 -0.2167
35725POPC   C4B74691  31.858  16.329  17.836 -0.1055  0.1272 -0.1568
35726POPC   NC374692  11.687  20.462  16.675 -0.1146 -0.0496  0.0030
35726POPC   PO474693  11.817  20.793  16.855 -0.0276  0.0136  0.0648
35726POPC   GL174694  12.126  20.712  16.916  0.1459 -0.1367  0.3255
35726POPC   GL274695  12.044  20.524  17.209 -0.1354  0.0268 -0.0955
35726POPC   C1A74696  12.275  20.479  16.502  0.0452 -0.0666  0.1159
35726POPC   D2A74697  12.408  20.388  16.026  0.0063  0.2245 -0.3319
35726POPC   C3A74698  12.818  20.409  15.810  0.0649  0.0635 -0.0207
35726POPC   C4A74699  13.207  20.364  15.574 -0.0373  0.0847 -0.4158
35726POPC   C1B74700  12.391  20.369  17.022 -0.0293 -0.2750 -0.4835
35726POPC   C2B74701  12.648  20.209  16.682  0.0405  0.0826 -0.0756
35726POPC   C3B74702  12.833  20.097  16.291 -0.1691 -0.1167  0.2520
35726POPC   C4B74703  13.231  20.278  16.246  0.0395  0.2212 -0.2634
35727POPC   NC374704  14.580  27.860  20.937  0.2900 -0.1323  0.4315
35727POPC   PO474705  14.500  27.482  20.818 -0.2936 -0.1951 -0.5075
35727POPC   GL174706  14.538  27.548  20.480 -0.6138 -0.2486  0.0751
35727POPC   GL274707  14.493  27.896  20.377  0.1136 -0.1920 -0.0364
35727POPC   C1A74708  14.811  27.599  20.085  0.1601  0.1049  0.0285
35727POPC   D2A74709  15.109  27.581  19.752  0.0517 -0.0047 -0.4566
35727POPC   C3A74710  15.001  27.787  19.366  0.2659 -0.1552 -0.0786
35727POPC   C4A74711  15.134  27.665  18.984 -0.1468 -0.0191 -0.0015
35727POPC   C1B74712  14.696  28.188  20.070  0.3278 -0.0889 -0.0837
35727POPC   C2B74713  14.816  28.177  19.621 -0.3027  0.0173 -0.0029
35727POPC   C3B74714  14.661  28.326  19.272  0.3872 -0.2583  0.2249
35727POPC   C4B74715  14.869  28.681  19.075 -0.0069 -0.1574 -0.0729
35728POPC   NC374716  10.440  24.786  18.719  0.1799 -0.0071  0.0403
35728POPC   PO474717  10.851  24.771  18.671 -0.0464  0.1088 -0.2034
35728POPC   GL174718  10.794  24.981  18.374  0.0207  0.3570 -0.0038
35728POPC   GL274719  10.863  24.832  18.128 -0.0586 -0.0356 -0.0815
35728POPC   C1A74720  10.994  25.337  18.184 -0.0064  0.2300 -0.0948
35728POPC   D2A74721  11.293  25.708  18.196 -0.0571  0.0199  0.2395
35728POPC   C3A74722  11.749  25.662  18.110  0.1495 -0.0535 -0.3069
35728POPC   C4A74723  12.208  25.540  17.969 -0.0412  0.0370  0.0139
35728POPC   C1B74724  11.016  25.051  17.710  0.0506 -0.0079  0.0267
35728POPC   C2B74725  11.349  25.131  17.432 -0.2446  0.3145 -0.1476
35728POPC   C3B74726  11.614  25.401  17.089  0.3331  0.0903 -0.2883
35728POPC   C4B74727  11.926  25.713  16.950  0.0752  0.0811 -0.4888
35729POPC   NC374728  10.598  26.317  19.563  0.1687  0.2460  0.1965
35729POPC   PO474729  10.779  25.971  19.482  0.2686  0.0932  0.0131
35729POPC   GL174730  10.697  26.100  19.095  0.0387 -0.0133  0.1180
35729POPC   GL274731  10.958  26.116  18.996 -0.2002  0.3648  0.0899
35729POPC   C1A74732  10.511  26.513  18.999  0.1231  0.0144 -0.0213
35729POPC   D2A74733  10.433  26.853  18.680  0.0669 -0.1578 -0.3486
35729POPC   C3A74734  10.452  27.091  18.315 -0.1970  0.0827 -0.1667
35729POPC   C4A74735  10.470  27.376  17.971 -0.1601  0.0852 -0.0373
35729POPC   C1B74736  11.048  26.184  18.566 -0.3328 -0.0850  0.0894
35729POPC   C2B74737  11.027  26.361  18.143  0.0340 -0.0895  0.1893
35729POPC   C3B74738  11.160  26.710  17.888  0.1926  0.0344 -0.0092
35729POPC   C4B74739  11.174  27.100  17.669  0.1770 -0.2911  0.0929
35730POPC   NC374740  11.772  23.533  18.051 -0.0670 -0.1586  0.0073
35730POPC   PO474741  11.466  23.507  17.821 -0.1457 -0.2139 -0.3175
35730POPC   GL174742  11.745  23.657  17.562 -0.2876 -0.0953  0.0269
35730POPC   GL274743  11.565  23.869  17.507 -0.4029  0.0039  0.1042
35730POPC   C1A74744  12.017  23.753  17.214  0.0011 -0.5100 -0.3096
35730POPC   D2A74745  11.953  23.991  16.780 -0.0820 -0.1214  0.0281
35730POPC   C3A74746  12.150  24.035  16.383 -0.0309  0.1164 -0.0448
35730POPC   C4A74747  12.385  24.156  15.946 -0.0072 -0.1489 -0.0126
35730POPC   C1B74748  11.655  24.143  17.141  0.1173 -0.4372 -0.0194
35730POPC   C2B74749  12.005  24.493  17.019  0.2138  0.0632 -0.0876
35730POPC   C3B74750  12.297  24.471  16.630  0.0046  0.1771  0.0814
35730POPC   C4B74751  12.238  24.637  16.175  0.2069  0.0040 -0.0928
35731POPC   NC374752  14.049  26.316  20.446 -0.0499 -0.2749  0.2587
35731POPC   PO474753  13.741  26.360  20.189 -0.0972 -0.2844 -0.3385
35731POPC   GL174754  13.818  26.615  19.929 -0.0362 -0.0057  0.1002
35731POPC   GL274755  13.963  26.919  19.946  0.1077  0.0023 -0.0012
35731POPC   C1A74756  14.007  26.522  19.524 -0.0929 -0.1486  0.2603
35731POPC   D2A74757  14.230  26.384  19.111 -0.0423 -0.1127  0.0716
35731POPC   C3A74758  14.005  26.464  18.694 -0.0639 -0.0464 -0.1280
35731POPC   C4A74759  13.753  26.447  18.322 -0.2487  0.0535 -0.4027
35731POPC   C1B74760  14.127  27.096  19.548 -0.3348 -0.0017  0.1210
35731POPC   C2B74761  14.368  27.238  19.183 -0.0691  0.2259 -0.2207
35731POPC   C3B74762  14.229  27.602  18.941  0.2115 -0.0681  0.1475
35731POPC   C4B74763  14.018  27.967  18.706 -0.2156 -0.1204 -0.2613
35732POPC   NC374764   6.231   0.194  20.404 -0.1289 -0.2235 -0.0502
35732POPC   PO474765   6.445  -0.099  20.323 -0.0066 -0.0378 -0.1874
35732POPC   GL174766   6.355  -0.212  19.962 -0.0045  0.0032 -0.4116
35732POPC   GL274767   6.130  -0.422  20.031 -0.0902 -0.0434  0.3929
35732POPC   C1A74768   6.679  -0.320  19.630  0.1839  0.0839  0.1690
35732POPC   D2A74769   7.004  -0.560  19.326 -0.2191 -0.1174  0.0921
35732POPC   C3A74770   7.279  -0.784  19.010 -0.2275 -0.2161 -0.0115
35732POPC   C4A74771   7.503  -1.004  18.609  0.2838  0.2083 -0.4364
35732POPC   C1B74772   6.028  -0.409  19.572  0.2684  0.0242 -0.1794
35732POPC   C2B74773   6.323  -0.542  19.204 -0.2033 -0.0598 -0.0442
35732POPC   C3B74774   6.406  -0.387  18.774  0.3091  0.0378 -0.0334
35732POPC   C4B74775   6.568  -0.020  18.541 -0.0572 -0.2886 -0.2065
35733POPC   NC374776   9.726  25.898  20.191  0.0851  0.3815  0.1161
35733POPC   PO474777   9.550  25.631  19.954  0.1257 -0.0155 -0.0444
35733POPC   GL174778   9.536  26.033  19.798  0.2496  0.0441 -0.2093
35733POPC   GL274779   9.389  26.138  19.819  0.0548 -0.1399  0.0481
35733POPC   C1A74780   9.554  26.147  19.298 -0.0095 -0.2687 -0.0426
35733POPC   D2A74781   9.519  26.481  19.062  0.0166  0.4963  0.0195
35733POPC   C3A74782   9.610  26.914  18.837  0.2167 -0.1302 -0.0369
35733POPC   C4A74783   9.503  27.304  18.653  0.3461 -0.3151 -0.2297
35733POPC   C1B74784   9.569  26.612  19.676  0.2094  0.0742 -0.1119
35733POPC   C2B74785   9.241  26.959  19.684  0.0144  0.1292  0.1878
35733POPC   C3B74786   8.906  27.192  19.407 -0.0977 -0.0485  0.1460
35733POPC   C4B74787   8.820  27.622  19.251 -0.1132 -0.4730 -0.0593
35734POPC   NC374788  15.861  27.422  20.118 -0.0639 -0.1389  0.1380
35734POPC   PO474789  16.106  27.713  20.277 -0.0405  0.1794 -0.4340
35734POPC   GL174790  16.204  27.665  19.900 -0.2369 -0.2753  0.0342
35734POPC   GL274791  16.422  27.929  19.919 -0.0780  0.0986  0.4433
35734POPC   C1A74792  16.106  27.406  19.566  0.0703  0.0012  0.1100
35734POPC   D2A74793  16.120  27.187  19.175 -0.1959  0.1541 -0.1096
35734POPC   C3A74794  16.053  27.372  18.761  0.1051  0.1636 -0.0709
35734POPC   C4A74795  16.034  27.667  18.410  0.1010  0.1564  0.1993
35734POPC   C1B74796  16.562  27.726  19.514 -0.2302  0.0046  0.0249
35734POPC   C2B74797  16.434  27.572  19.133  0.2730 -0.1291  0.1553
35734POPC   C3B74798  16.553  27.287  18.784  0.0797 -0.2770 -0.1266
35734POPC   C4B74799  16.385  26.948  18.553 -0.0096 -0.0709  0.2176
35735POPC   NC374800  31.685  18.403  20.098 -0.1487 -0.0505 -0.1572
35735POPC   PO474801  31.891  18.325  19.779  0.1602  0.2183  0.0966
35735POPC   GL174802  31.946  17.991  19.599  0.2030  0.0154 -0.0042
35735POPC   GL274803  32.208  17.935  19.665 -0.0117  0.0903 -0.0067
35735POPC   C1A74804  31.774  17.935  19.095 -0.1224 -0.4337  0.0797
35735POPC   D2A74805  31.873  18.229  18.723  0.2798  0.0014 -0.0584
35735POPC   C3A74806  31.765  18.017  18.274 -0.0896 -0.1235  0.1683
35735POPC   C4A74807  31.736  17.983  17.817  0.0181 -0.1052 -0.1327
35735POPC   C1B74808  32.150  17.719  19.254 -0.3098 -0.0178 -0.2864
35735POPC   C2B74809  32.228  17.679  18.817 -0.1410 -0.1042 -0.0158
35735POPC   C3B74810  32.196  17.705  18.360  0.0208  0.2201 -0.3502
35735POPC   C4B74811  32.266  17.990  18.051 -0.1244  0.2248 -0.0953
35736POPC   NC374812  12.209  18.338  18.504 -0.0690 -0.0425  0.0078
35736POPC   PO474813  12.089  18.151  18.819 -0.1115  0.1020  0.1795
35736POPC   GL174814  12.090  17.771  18.534  0.1011 -0.0933 -0.2521
35736POPC   GL274815  11.941  17.608  18.743  0.1303 -0.0935  0.0334
35736POPC   C1A74816  12.461  17.704  18.317  0.1081 -0.1417  0.0138
35736POPC   D2A74817  12.565  17.477  17.968 -0.1018 -0.1940  0.1435
35736POPC   C3A74818  12.364  17.034  17.871 -0.1685  0.2187 -0.0373
35736POPC   C4A74819  12.236  16.741  17.508  0.0994 -0.0450 -0.0541
35736POPC   C1B74820  12.113  17.351  18.417  0.1860  0.3271  0.1651
35736POPC   C2B74821  11.870  16.971  18.176 -0.1035 -0.0207 -0.0739
35736POPC   C3B74822  11.775  16.705  17.830 -0.1283 -0.2074  0.2268
35736POPC   C4B74823  11.400  16.423  17.771 -0.4789 -0.1125  0.1451
35737POPC   NC374824   1.720  24.399  20.196  0.0993  0.1547  0.1261
35737POPC   PO474825   1.906  24.080  20.280 -0.1391  0.1944  0.3012
35737POPC   GL174826   2.211  24.244  20.142 -0.1743  0.4217 -0.5904
35737POPC   GL274827   2.262  24.108  19.889 -0.0530  0.1107 -0.1352
35737POPC   C1A74828   1.990  24.475  19.791  0.0915  0.2907  0.0357
35737POPC   D2A74829   1.552  24.534  19.628 -0.1523  0.0594 -0.2004
35737POPC   C3A74830   1.535  24.390  19.172 -0.0606 -0.3171  0.0191
35737POPC   C4A74831   1.250  24.583  18.796 -0.0555  0.0502 -0.1746
35737POPC   C1B74832   2.269  23.839  19.571  0.2718 -0.0511  0.1574
35737POPC   C2B74833   2.412  23.880  19.134  0.0194 -0.0136 -0.1595
35737POPC   C3B74834   2.512  23.646  18.746  0.3227  0.4145  0.1819
35737POPC   C4B74835   2.717  23.759  18.348  0.0528  0.0934 -0.1324
35738POPC   NC374836  17.208  31.644  20.425  0.1682  0.3083  0.3049
35738POPC   PO474837  16.826  31.543  20.425 -0.2113 -0.1348  0.3392
35738POPC   GL174838  16.920  31.619  19.989  0.1536 -0.2368 -0.1546
35738POPC   GL274839  17.158  31.432  19.983 -0.2681  0.5788 -0.0976
35738POPC   C1A74840  16.959  31.899  19.610 -0.2175 -0.1126 -0.2121
35738POPC   D2A74841  16.843  31.910  19.210  0.2859 -0.0074 -0.1128
35738POPC   C3A74842  17.117  31.854  18.826 -0.0698  0.1113  0.2256
35738POPC   C4A74843  17.340  31.630  18.528 -0.2121  0.1798  0.1775
35738POPC   C1B74844  16.931  31.359  19.603 -0.1600  0.2181  0.3208
35738POPC   C2B74845  16.773  31.406  19.196  0.1221 -0.0339 -0.3467
35738POPC   C3B74846  16.672  31.501  18.796  0.1129 -0.2030 -0.0378
35738POPC   C4B74847  16.239  31.473  18.541  0.0918 -0.0518 -0.1836
35739POPC   NC374848   8.841  17.212  18.907 -0.0961  0.1320  0.0421
35739POPC   PO474849   8.546  17.468  18.895  0.0429  0.0774  0.1587
35739POPC   GL174850   8.377  17.192  18.698 -0.1025 -0.0101 -0.0338
35739POPC   GL274851   8.247  16.927  18.827 -0.0122  0.1695  0.1093
35739POPC   C1A74852   8.091  17.189  18.331  0.0976 -0.1577 -0.5876
35739POPC   D2A74853   8.041  17.019  17.894  0.0153 -0.0004  0.1787
35739POPC   C3A74854   8.327  17.075  17.515  0.0122  0.1113 -0.0484
35739POPC   C4A74855   8.464  17.014  17.095 -0.1365  0.2632  0.1243
35739POPC   C1B74856   8.417  16.534  18.503  0.1480  0.1985 -0.5788
35739POPC   C2B74857   8.416  16.091  18.360 -0.0735 -0.1719  0.1007
35739POPC   C3B74858   8.243  15.716  18.274 -0.1601  0.0215 -0.1292
35739POPC   C4B74859   8.170  15.276  18.062  0.0585  0.1792 -0.1248
35740POPC   NC374860   8.491  28.413  20.642 -0.0691  0.1232 -0.2845
35740POPC   PO474861   8.571  28.755  20.490  0.5081  0.2199 -0.2272
35740POPC   GL174862   8.428  28.436  20.157 -0.0281 -0.0221  0.3032
35740POPC   GL274863   8.399  28.520  19.873 -0.0286 -0.1518 -0.1207
35740POPC   C1A74864   8.627  28.083  19.989  0.3308 -0.1341  0.1479
35740POPC   D2A74865   8.996  27.934  19.653 -0.3030 -0.0318 -0.1404
35740POPC   C3A74866   9.020  28.059  19.244  0.0606 -0.0841 -0.2466
35740POPC   C4A74867   9.060  28.142  18.794  0.1721 -0.2916 -0.0580
35740POPC   C1B74868   8.673  28.385  19.508  0.0953 -0.0099 -0.0523
35740POPC   C2B74869   8.680  28.373  19.116  0.0048  0.2283  0.0631
35740POPC   C3B74870   8.566  28.329  18.685  0.0306 -0.1718 -0.0206
35740POPC   C4B74871   8.372  28.461  18.265 -0.2230 -0.1180  0.0622
35741POPC   NC374872   9.283  21.934  13.579  0.1123 -0.1102  0.1741
35741POPC   PO474873   9.429  21.563  13.484 -0.1147  0.0952 -0.0102
35741POPC   GL174874   9.391  21.173  13.346 -0.1303  0.1218  0.1325
35741POPC   GL274875   9.579  20.974  13.556 -0.2279  0.2007 -0.1056
35741POPC   C1A74876   9.112  20.818  13.353  0.0556 -0.1809 -0.0615
35741POPC   D2A74877   8.794  20.531  13.196 -0.2079  0.1394  0.2187
35741POPC   C3A74878   8.343  20.459  13.269  0.1819 -0.0318  0.1662
35741POPC   C4A74879   8.116  20.190  13.520 -0.0389 -0.1530  0.0196
35741POPC   C1B74880   9.937  20.678  13.513  0.0112 -0.4548  0.0047
35741POPC   C2B74881  10.248  20.509  13.828  0.0650 -0.1021  0.0518
35741POPC   C3B74882  10.259  20.063  13.983  0.2280 -0.2779 -0.1542
35741POPC   C4B74883  10.183  19.667  14.160 -0.4025 -0.1005 -0.0802
35742POPC   NC374884   9.195  21.262  13.797  0.0200 -0.1403  0.2335
35742POPC   PO474885   9.119  21.630  13.944  0.2437 -0.2365 -0.0179
35742POPC   GL174886   8.864  21.549  13.675  0.0894  0.0656  0.3790
35742POPC   GL274887   8.624  21.691  13.691 -0.0716 -0.4207 -0.0532
35742POPC   C1A74888   8.842  21.238  13.325  0.1270 -0.2026 -0.0484
35742POPC   D2A74889   8.565  20.947  13.116 -0.0015 -0.2146  0.2501
35742POPC   C3A74890   8.518  20.695  12.765  0.0546  0.1209 -0.0664
35742POPC   C4A74891   8.379  20.444  12.395  0.3463  0.0638  0.0721
35742POPC   C1B74892   8.473  21.263  13.674  0.0112  0.1325  0.2136
35742POPC   C2B74893   8.203  20.890  13.702 -0.2493 -0.1710 -0.0382
35742POPC   C3B74894   8.017  20.476  13.948  0.0096 -0.0847 -0.0374
35742POPC   C4B74895   7.964  20.394  14.400 -0.1875  0.0325 -0.0094
35743POPC   NC374896   8.571  21.335  14.616  0.2127  0.4313 -0.1305
35743POPC   PO474897   8.793  21.354  14.914 -0.0450 -0.3730  0.2643
35743POPC   GL174898   8.685  20.943  15.009  0.0976  0.4797 -0.1687
35743POPC   GL274899   8.664  20.847  14.780 -0.0607  0.1155  0.1299
35743POPC   C1A74900   8.685  20.455  15.073  0.1867 -0.0835  0.4514
35743POPC   D2A74901   8.465  20.300  15.407 -0.3518  0.0526 -0.1702
35743POPC   C3A74902   8.128  20.024  15.246  0.1296 -0.0500 -0.3488
35743POPC   C4A74903   7.682  20.041  15.184 -0.0433  0.2277  0.0397
35743POPC   C1B74904   8.930  20.687  14.426  0.0311  0.1107  0.5824
35743POPC   C2B74905   8.924  20.393  14.113 -0.2301 -0.2085 -0.3547
35743POPC   C3B74906   8.966  20.041  13.772  0.3685  0.0599  0.4805
35743POPC   C4B74907   9.401  19.908  13.556  0.0611  0.0610 -0.0497
35744POPC   NC374908   1.036  26.059  20.352 -0.1877  0.1696  0.1518
35744POPC   PO474909   1.336  25.806  20.405  0.0295 -0.1756 -0.0859
35744POPC   GL174910   1.501  25.755  20.066  0.3086 -0.0457  0.1195
35744POPC   GL274911   1.639  26.020  19.992 -0.0104  0.3988  0.1132
35744POPC   C1A74912   1.656  25.661  19.651  0.1009 -0.2252 -0.2160
35744POPC   D2A74913   1.686  25.803  19.211  0.0236 -0.2929 -0.1127
35744POPC   C3A74914   1.873  25.817  18.818 -0.2066 -0.0232 -0.0337
35744POPC   C4A74915   1.885  25.661  18.405 -0.4168  0.0100  0.0567
35744POPC   C1B74916   1.567  26.184  19.585 -0.1572  0.1391 -0.3632
35744POPC   C2B74917   1.613  26.555  19.290  0.1631 -0.5899  0.1356
35744POPC   C3B74918   1.788  26.863  18.912  0.1239  0.1493 -0.0341
35744POPC   C4B74919   1.961  27.071  18.494 -0.0259 -0.4159  0.0937
35745POPC   NC374920   9.538  17.730  19.544 -0.0815  0.2818 -0.2197
35745POPC   PO474921   9.406  17.411  19.330 -0.2236 -0.1142  0.2121
35745POPC   GL174922   9.614  17.268  19.011  0.1807  0.1706  0.1915
35745POPC   GL274923   9.824  17.094  18.887 -0.2367  0.1789 -0.0434
35745POPC   C1A74924   9.320  17.094  18.701 -0.1621 -0.0309 -0.0937
35745POPC   D2A74925   9.209  16.787  18.370 -0.1872  0.1634 -0.0597
35745POPC   C3A74926   8.928  16.440  18.310  0.0684  0.2007  0.2350
35745POPC   C4A74927   8.797  16.146  18.648  0.2093 -0.3399  0.0637
35745POPC   C1B74928   9.679  17.030  18.400  0.0750 -0.1530  0.2747
35745POPC   C2B74929   9.566  16.729  18.035  0.0780 -0.0889 -0.0055
35745POPC   C3B74930   9.127  16.637  17.832  0.0759 -0.0038 -0.1146
35745POPC   C4B74931   8.772  16.834  17.508 -0.1774 -0.2341 -0.0392
35746POPC   NC374932  14.324  22.359  18.302  0.0852  0.0328  0.1868
35746POPC   PO474933  14.002  22.148  18.404  0.0262  0.0901  0.0490
35746POPC   GL174934  14.099  21.842  18.152  0.3173  0.0807  0.1315
35746POPC   GL274935  13.952  22.049  17.918 -0.2337 -0.0657  0.0019
35746POPC   C1A74936  14.450  21.615  17.933 -0.1214 -0.1321  0.6170
35746POPC   D2A74937  14.612  21.273  17.705 -0.1785  0.2208  0.2958
35746POPC   C3A74938  14.818  21.528  17.379 -0.0313  0.3738 -0.1168
35746POPC   C4A74939  14.911  21.840  17.102 -0.1987  0.0009 -0.1002
35746POPC   C1B74940  14.164  21.842  17.585 -0.1553 -0.1993 -0.1027
35746POPC   C2B74941  14.303  21.881  17.115  0.1390 -0.1179 -0.1760
35746POPC   C3B74942  14.607  21.731  16.767  0.0913 -0.1577  0.1169
35746POPC   C4B74943  14.969  21.933  16.486  0.1035 -0.3159 -0.1141
35747POPC   NC374944   9.611  20.490  16.903 -0.0116 -0.1456  0.1101
35747POPC   PO474945   9.664  20.553  16.518  0.2944  0.1357  0.0862
35747POPC   GL174946   9.656  20.113  16.482  0.0834 -0.0489  0.1982
35747POPC   GL274947   9.830  19.925  16.604 -0.3242 -0.2442  0.0169
35747POPC   C1A74948   9.634  19.709  16.255  0.2885 -0.3348 -0.1446
35747POPC   D2A74949   9.534  19.592  15.846 -0.1386  0.1439  0.2484
35747POPC   C3A74950   9.223  19.278  15.733 -0.2731  0.2300  0.0061
35747POPC   C4A74951   8.973  19.073  15.402  0.0350 -0.0324  0.0052
35747POPC   C1B74952  10.209  19.714  16.405  0.0554 -0.0199  0.0986
35747POPC   C2B74953  10.505  19.398  16.184  0.1387 -0.1988  0.1663
35747POPC   C3B74954  10.790  19.051  16.195  0.2667 -0.1271 -0.3237
35747POPC   C4B74955  11.071  18.737  16.189 -0.1798  0.1510 -0.2149
35748POPC   NC374956   8.751  21.924  14.157 -0.2538 -0.0496 -0.1938
35748POPC   PO474957   8.560  22.211  14.370  0.2216 -0.1811  0.1677
35748POPC   GL174958   8.276  22.202  14.117  0.2103  0.4580 -0.0063
35748POPC   GL274959   8.316  21.988  13.937  0.3996 -0.4401 -0.2457
35748POPC   C1A74960   7.861  22.436  14.056 -0.3622 -0.2733 -0.0694
35748POPC   D2A74961   7.545  22.562  13.753  0.1104 -0.0830  0.1600
35748POPC   C3A74962   7.317  23.004  13.833 -0.1192  0.1677  0.0157
35748POPC   C4A74963   7.261  23.441  13.808 -0.0057 -0.1073  0.2227
35748POPC   C1B74964   8.161  21.567  13.893  0.2057  0.2610  0.1761
35748POPC   C2B74965   7.870  21.226  13.695  0.0493 -0.1392  0.0200
35748POPC   C3B74966   7.646  21.158  13.344  0.1291  0.2701  0.2299
35748POPC   C4B74967   7.198  21.271  13.445  0.1821  0.4469  0.1174
35749POPC   NC374968   3.212  30.992  20.977 -0.1454  0.0954 -0.3402
35749POPC   PO474969   3.122  31.106  20.619  0.2042 -0.1720 -0.3192
35749POPC   GL174970   3.245  30.956  20.339  0.1925 -0.4110  0.0947
35749POPC   GL274971   3.462  31.199  20.321  0.1608  0.0245  0.1136
35749POPC   C1A74972   3.303  30.955  19.860  0.0736 -0.2941 -0.2187
35749POPC   D2A74973   3.365  30.614  19.517 -0.1383  0.0921  0.0430
35749POPC   C3A74974   3.488  30.563  19.094  0.2978 -0.1106 -0.0392
35749POPC   C4A74975   3.649  30.450  18.665  0.2840 -0.1141 -0.0744
35749POPC   C1B74976   3.476  31.420  19.888 -0.1671 -0.0358 -0.1124
35749POPC   C2B74977   3.120  31.437  19.587 -0.0379  0.0544  0.2969
35749POPC   C3B74978   3.014  31.292  19.151 -0.1017  0.1282  0.0409
35749POPC   C4B74979   2.786  31.493  18.848  0.0266 -0.0316  0.3487
35750POPC   NC374980  10.004  23.535  15.390  0.0488  0.0342  0.1057
35750POPC   PO474981  10.139  23.203  15.187 -0.1157 -0.2837  0.0789
35750POPC   GL174982  10.295  23.516  15.046  0.1866  0.1462 -0.0322
35750POPC   GL274983  10.534  23.558  15.129  0.1454 -0.1630 -0.1979
35750POPC   C1A74984  10.332  23.778  14.689  0.1509  0.0817 -0.1194
35750POPC   D2A74985  10.249  23.903  14.267  0.0585  0.0328  0.1018
35750POPC   C3A74986  10.514  24.017  13.877  0.0605 -0.2654  0.1228
35750POPC   C4A74987  10.946  24.120  13.826 -0.1253 -0.0318  0.0725
35750POPC   C1B74988  10.665  23.991  15.071 -0.4407 -0.4048 -0.1136
35750POPC   C2B74989  10.871  24.295  14.759 -0.2200 -0.0247 -0.1020
35750POPC   C3B74990  11.057  24.325  14.306  0.4005 -0.0219 -0.0018
35750POPC   C4B74991  11.411  24.517  14.062  0.1292 -0.0699  0.0518
35751POPC   NC374992  15.209  17.034  19.876  0.1002  0.1954  0.2076
35751POPC   PO474993  14.961  17.326  19.937  0.2406  0.1917 -0.0809
35751POPC   GL174994  15.118  17.477  19.590 -0.3661 -0.2133  0.0652
35751POPC   GL274995  15.326  17.680  19.772 -0.0228  0.0533  0.1341
35751POPC   C1A74996  14.987  17.497  19.121 -0.1336 -0.0668 -0.1214
35751POPC   D2A74997  15.221  17.485  18.758  0.1995 -0.1227  0.0426
35751POPC   C3A74998  15.390  17.847  18.514  0.0242 -0.0566  0.1640
35751POPC   C4A74999  15.583  17.879  18.076 -0.2349  0.1292 -0.1822
35751POPC   C1B75000  15.450  17.616  19.325  0.1685  0.2123  0.3216
35751POPC   C2B75001  15.679  17.617  18.954  0.0505  0.0526 -0.1173
35751POPC   C3B75002  15.650  17.408  18.484  0.0175 -0.0104 -0.2402
35751POPC   C4B75003  15.286  17.447  18.264 -0.3850  0.1914  0.0465
35752POPC   NC375004   7.354  20.473  17.540 -0.1814  0.0056  0.0857
35752POPC   PO475005   7.493  20.405  17.189  0.2960  0.1054  0.1326
35752POPC   GL175006   7.167  20.191  17.044 -0.0744  0.0587 -0.0343
35752POPC   GL275007   7.109  20.057  17.333 -0.1171  0.0889  0.0495
35752POPC   C1A75008   7.059  19.862  16.752  0.0681  0.0601 -0.0756
35752POPC   D2A75009   6.936  19.480  16.542  0.0953 -0.1872  0.2620
35752POPC   C3A75010   7.174  19.059  16.476 -0.1349  0.0843 -0.1962
35752POPC   C4A75011   7.152  18.790  16.117  0.2966  0.1191 -0.0987
35752POPC   C1B75012   6.714  20.154  17.035  0.2140  0.0112 -0.1217
35752POPC   C2B75013   6.466  20.206  16.656  0.2252  0.1055  0.1540
35752POPC   C3B75014   6.197  20.321  16.329  0.3454  0.0193  0.1060
35752POPC   C4B75015   6.032  20.500  15.952 -0.2354 -0.1870  0.3177
35753POPC   NC375016  10.901  21.157  15.063  0.0214 -0.0610  0.3697
35753POPC   PO475017  10.519  21.062  15.036 -0.0056  0.1037  0.2047
35753POPC   GL175018  10.733  20.730  14.918  0.1477 -0.2981 -0.0338
35753POPC   GL275019  10.936  20.669  15.084 -0.2732 -0.1498  0.1828
35753POPC   C1A75020  10.503  20.391  14.811  0.1978 -0.1904 -0.1415
35753POPC   D2A75021  10.382  19.982  14.716 -0.0804  0.0887  0.1740
35753POPC   C3A75022  10.712  19.691  14.507  0.1059 -0.0380  0.0704
35753POPC   C4A75023  10.959  19.335  14.372 -0.0909  0.0141  0.1817
35753POPC   C1B75024  11.279  20.637  14.763 -0.1557 -0.0140  0.0446
35753POPC   C2B75025  11.550  20.372  14.533  0.0887 -0.1143 -0.1405
35753POPC   C3B75026  11.940  20.158  14.428 -0.2364 -0.0322 -0.2659
35753POPC   C4B75027  12.311  20.034  14.190  0.1196  0.2391 -0.2124
35754POPC   NC375028  14.907  20.827  19.061  0.0204 -0.1147  0.3588
35754POPC   PO475029  15.293  20.725  19.163  0.0743  0.2470  0.0607
35754POPC   GL175030  15.290  20.914  18.774  0.0971  0.0963  0.2657
35754POPC   GL275031  15.324  21.165  18.890 -0.2274  0.0725 -0.2696
35754POPC   C1A75032  14.934  21.161  18.578  0.0164 -0.3985  0.0948
35754POPC   D2A75033  14.992  21.363  18.217 -0.1576  0.0538 -0.0850
35754POPC   C3A75034  14.907  21.655  17.897  0.0027  0.0198  0.0289
35754POPC   C4A75035  14.811  21.974  17.593  0.0162 -0.0847 -0.0827
35754POPC   C1B75036  15.421  21.185  18.410  0.3150 -0.1113  0.6115
35754POPC   C2B75037  15.454  21.072  17.970 -0.1745  0.1630 -0.2682
35754POPC   C3B75038  15.436  20.708  17.747 -0.2855 -0.1012  0.1873
35754POPC   C4B75039  15.337  20.550  17.322 -0.0111 -0.0919  0.2070
35755POPC   NC375040   8.222  21.480  16.241 -0.0246  0.3276 -0.3587
35755POPC   PO475041   7.893  21.358  16.460  0.0451 -0.0656  0.2068
35755POPC   GL175042   7.564  21.173  16.339  0.1730  0.2580 -0.1823
35755POPC   GL275043   7.400  21.206  16.634  0.0886 -0.2178 -0.0777
35755POPC   C1A75044   7.309  21.141  15.972  0.0517  0.0594  0.0759
35755POPC   D2A75045   6.900  20.911  16.018  0.1400  0.0069 -0.3248
35755POPC   C3A75046   6.558  20.823  15.703 -0.1055 -0.1657  0.2151
35755POPC   C4A75047   6.463  20.914  15.246 -0.2603 -0.1626 -0.1034
35755POPC   C1B75048   6.993  21.209  16.410  0.0706  0.0816 -0.1719
35755POPC   C2B75049   6.842  21.585  16.168 -0.0444  0.0786  0.0481
35755POPC   C3B75050   6.453  21.865  16.140  0.0400 -0.1384  0.2767
35755POPC   C4B75051   6.304  22.335  16.045  0.1583  0.0393 -0.1445
35756POPC   NC375052  15.451  18.206  20.047 -0.0352  0.0029 -0.2334
35756POPC   PO475053  15.680  17.847  20.055 -0.0060 -0.0841 -0.1246
35756POPC   GL175054  15.776  17.522  19.841 -0.1396  0.3020  0.2237
35756POPC   GL275055  16.009  17.561  19.676  0.0502 -0.2837 -0.2801
35756POPC   C1A75056  15.658  17.229  19.464  0.2089  0.3826 -0.0252
35756POPC   D2A75057  15.433  17.138  19.097  0.0173  0.1666 -0.2865
35756POPC   C3A75058  15.456  16.959  18.634 -0.1540 -0.0157 -0.0073
35756POPC   C4A75059  15.143  16.995  18.326  0.3996 -0.0774  0.1688
35756POPC   C1B75060  16.098  17.408  19.240  0.1060 -0.0026  0.0064
35756POPC   C2B75061  15.955  17.207  18.857  0.0142  0.0663  0.1193
35756POPC   C3B75062  16.076  16.925  18.530 -0.2536  0.1042  0.0593
35756POPC   C4B75063  16.119  16.953  18.091 -0.1611  0.0764  0.0799
35757POPC   NC375064  32.254  31.073  21.221  0.0130 -0.1059 -0.0980
35757POPC   PO475065  32.280  30.902  20.851 -0.1944  0.0129 -0.0324
35757POPC   GL175066  32.201  30.637  20.750  0.0027  0.1701 -0.5947
35757POPC   GL275067  32.374  30.396  20.671 -0.1576 -0.2158 -0.0645
35757POPC   C1A75068  32.036  30.561  20.310 -0.2192 -0.1695 -0.1357
35757POPC   D2A75069  31.833  30.694  19.934  0.1104 -0.2154  0.0958
35757POPC   C3A75070  31.958  30.766  19.515 -0.1101  0.2317  0.3224
35757POPC   C4A75071  31.859  30.591  19.090 -0.0829 -0.2379  0.1865
35757POPC   C1B75072  32.520  30.464  20.194  0.2214  0.1254  0.0454
35757POPC   C2B75073  32.412  30.703  19.790  0.0939  0.1076 -0.0021
35757POPC   C3B75074  32.339  30.555  19.340 -0.0855 -0.3168 -0.1966
35757POPC   C4B75075  32.309  30.465  18.894 -0.1332  0.2307 -0.0063
35758POPC   NC375076  12.039  28.196  20.746 -0.2615  0.1286  0.3186
35758POPC   PO475077  12.027  28.457  20.484  0.1408  0.0798 -0.0762
35758POPC   GL175078  12.118  28.444  20.162  0.1548  0.0703 -0.0863
35758POPC   GL275079  12.384  28.566  20.188  0.0920  0.0251  0.4015
35758POPC   C1A75080  11.989  28.427  19.728  0.0203  0.1705 -0.0314
35758POPC   D2A75081  12.214  28.232  19.398  0.0278  0.0427  0.0827
35758POPC   C3A75082  12.022  28.152  18.989 -0.0817  0.0200  0.1393
35758POPC   C4A75083  11.881  27.849  18.732  0.0467  0.1274  0.0461
35758POPC   C1B75084  12.481  28.433  19.722 -0.2365 -0.2358  0.1887
35758POPC   C2B75085  12.619  28.409  19.269 -0.0609  0.0228  0.0592
35758POPC   C3B75086  12.514  28.241  18.852  0.0622  0.0960  0.2249
35758POPC   C4B75087  12.313  27.987  18.547 -0.1478  0.0490  0.2693
35759POPC   NC375088  12.754  17.694  19.394  0.5832  0.2004  0.0028
35759POPC   PO475089  12.980  17.990  19.385  0.1006  0.0729  0.2492
35759POPC   GL175090  12.904  17.923  19.011  0.2067 -0.2469 -0.0930
35759POPC   GL275091  13.024  17.695  19.001 -0.1433 -0.1264  0.0799
35759POPC   C1A75092  13.004  17.991  18.549  0.0118  0.4068  0.1111
35759POPC   D2A75093  13.089  18.017  18.110  0.0577 -0.0926 -0.2038
35759POPC   C3A75094  13.458  17.732  17.981  0.1178 -0.2956  0.2348
35759POPC   C4A75095  13.636  17.555  17.590 -0.4134  0.3182 -0.1513
35759POPC   C1B75096  12.923  17.465  18.602 -0.1712  0.2020  0.1449
35759POPC   C2B75097  12.685  17.214  18.311 -0.0022  0.0683 -0.1097
35759POPC   C3B75098  12.813  16.914  17.990 -0.1509 -0.1044 -0.0122
35759POPC   C4B75099  12.734  16.514  17.713  0.1558  0.0661  0.1667
35760POPC   NC375100   4.334  22.061  19.253 -0.0978 -0.0368 -0.1834
35760POPC   PO475101   4.548  21.768  19.259 -0.4697 -0.0365 -0.0101
35760POPC   GL175102   4.592  21.677  18.880 -0.1389  0.0320 -0.0031
35760POPC   GL275103   4.420  21.940  18.721 -0.3282  0.1020  0.2956
35760POPC   C1A75104   4.335  21.482  18.539  0.1635  0.1727 -0.1176
35760POPC   D2A75105   4.032  21.130  18.411 -0.0222  0.2046 -0.1311
35760POPC   C3A75106   3.788  21.392  18.106 -0.1806 -0.0162  0.1217
35760POPC   C4A75107   3.592  21.737  17.838  0.1805  0.0169 -0.3135
35760POPC   C1B75108   4.449  22.193  18.299  0.0125  0.3582  0.1388
35760POPC   C2B75109   4.529  22.332  17.902 -0.0518 -0.2388  0.2792
35760POPC   C3B75110   4.553  22.633  17.557  0.0843 -0.1575  0.1039
35760POPC   C4B75111   4.580  23.073  17.373  0.2037 -0.2061 -0.0780
35761POPC   NC375112   3.249  29.316  20.660  0.1843 -0.3421 -0.1807
35761POPC   PO475113   3.655  29.333  20.586  0.0127 -0.0165 -0.1260
35761POPC   GL175114   3.586  29.400  20.188  0.1045  0.1032 -0.1285
35761POPC   GL275115   3.379  29.248  20.160  0.1242  0.1273  0.0416
35761POPC   C1A75116   3.452  29.817  19.948 -0.0505 -0.0640  0.0879
35761POPC   D2A75117   3.344  29.947  19.515  0.0944  0.0451 -0.2050
35761POPC   C3A75118   3.381  29.598  19.192 -0.0703 -0.2238 -0.3468
35761POPC   C4A75119   3.860  29.601  19.107  0.1121 -0.0200  0.1568
35761POPC   C1B75120   3.077  29.281  19.840 -0.3055  0.0445 -0.3340
35761POPC   C2B75121   2.995  29.612  19.534  0.0842  0.0478 -0.1807
35761POPC   C3B75122   2.877  29.860  19.151 -0.2566  0.2533  0.0500
35761POPC   C4B75123   2.992  29.931  18.701 -0.1504  0.0226 -0.1231
35762POPC   NC375124   4.616  29.331  20.878 -0.0578  0.2455 -0.0224
35762POPC   PO475125   4.587  29.553  20.564 -0.3565 -0.3528  0.2263
35762POPC   GL175126   4.345  29.545  20.254 -0.1993  0.0916 -0.2675
35762POPC   GL275127   4.088  29.277  20.314  0.3663 -0.1649 -0.4695
35762POPC   C1A75128   4.033  29.846  20.022 -0.0710 -0.0607 -0.0342
35762POPC   D2A75129   3.851  29.743  19.669 -0.1429 -0.4209  0.0681
35762POPC   C3A75130   3.494  29.441  19.645 -0.1905  0.0390 -0.2160
35762POPC   C4A75131   3.195  29.139  19.396  0.1157 -0.0925  0.2296
35762POPC   C1B75132   3.966  29.329  19.873 -0.0653 -0.1059 -0.1731
35762POPC   C2B75133   3.949  29.064  19.460  0.1742 -0.1553  0.0834
35762POPC   C3B75134   3.643  29.077  19.181  0.1493  0.0213  0.2180
35762POPC   C4B75135   3.303  28.777  19.028  0.1893  0.0422 -0.0749
35763POPC   NC375136  12.172  23.340  17.678  0.1808  0.1284  0.1253
35763POPC   PO475137  12.257  23.395  18.062  0.0712  0.1181  0.1995
35763POPC   GL175138  12.441  23.681  17.809 -0.0269  0.0391  0.1827
35763POPC   GL275139  12.227  23.835  17.825 -0.0699  0.1525 -0.0901
35763POPC   C1A75140  12.504  23.746  17.338 -0.1580 -0.0743 -0.1954
35763POPC   D2A75141  12.863  23.854  17.056 -0.0070  0.0452 -0.1319
35763POPC   C3A75142  12.896  24.096  16.689 -0.1592 -0.0117 -0.1488
35763POPC   C4A75143  13.311  24.110  16.455 -0.0222 -0.0351 -0.2335
35763POPC   C1B75144  12.045  24.166  17.563 -0.1355  0.1892 -0.0272
35763POPC   C2B75145  12.047  24.642  17.525  0.2034 -0.2480  0.0150
35763POPC   C3B75146  12.311  24.799  17.175 -0.0306 -0.0948  0.1152
35763POPC   C4B75147  12.387  24.976  16.714  0.0215 -0.3149 -0.2233
35764POPC   NC375148   8.910  20.226  15.976 -0.2181  0.2200  0.0403
35764POPC   PO475149   9.055  20.402  15.670  0.3794  0.2119 -0.2136
35764POPC   GL175150   8.887  20.121  15.518 -0.3883  0.1529  0.4250
35764POPC   GL275151   9.067  20.209  15.220 -0.1169 -0.2626  0.2845
35764POPC   C1A75152   8.621  19.954  15.147 -0.1941 -0.0167 -0.1147
35764POPC   D2A75153   8.332  20.226  14.846  0.0030  0.1537  0.0968
35764POPC   C3A75154   8.515  20.345  14.398 -0.0410  0.1170  0.1352
35764POPC   C4A75155   8.463  20.735  14.146  0.0333  0.1349 -0.0082
35764POPC   C1B75156   9.177  19.909  14.877 -0.0426  0.2388 -0.0165
35764POPC   C2B75157   9.247  19.805  14.435 -0.0818  0.1382 -0.1819
35764POPC   C3B75158   9.262  19.604  14.038  0.2122  0.1040 -0.0845
35764POPC   C4B75159   9.538  19.359  13.793  0.1119 -0.2098 -0.0615
35765POPC   NC375160  13.020  25.708  19.112  0.1461 -0.1883 -0.0133
35765POPC   PO475161  13.385  25.575  19.256 -0.2302  0.2328 -0.1151
35765POPC   GL175162  13.529  25.877  19.084 -0.0670 -0.1414 -0.4363
35765POPC   GL275163  13.371  26.083  19.094  0.0170  0.4110  0.2825
35765POPC   C1A75164  13.722  25.935  18.664  0.0124 -0.1312  0.0123
35765POPC   D2A75165  13.907  25.991  18.260  0.2547 -0.1220  0.0811
35765POPC   C3A75166  13.938  26.018  17.796 -0.0280  0.4042 -0.0050
35765POPC   C4A75167  14.155  26.354  17.466 -0.2491 -0.0419  0.2268
35765POPC   C1B75168  13.207  26.189  18.650  0.2644  0.0019  0.1448
35765POPC   C2B75169  13.175  26.421  18.267 -0.2107  0.2231  0.1698
35765POPC   C3B75170  13.368  26.817  18.108 -0.0397 -0.1449 -0.0608
35765POPC   C4B75171  13.454  27.090  17.752 -0.1190  0.1461 -0.1565
35766POPC   NC375172  13.353  28.530  20.577 -0.1452  0.2651 -0.0780
35766POPC   PO475173  13.246  28.201  20.661 -0.1362  0.0490 -0.0008
35766POPC   GL175174  12.950  28.292  20.332  0.3126 -0.0470 -0.1913
35766POPC   GL275175  12.900  28.630  20.298  0.1872  0.0738 -0.0318
35766POPC   C1A75176  12.895  28.135  19.885  0.2465  0.3783  0.1761
35766POPC   D2A75177  12.884  27.842  19.505  0.1661 -0.1642 -0.1795
35766POPC   C3A75178  12.823  27.954  19.083 -0.1991 -0.2039 -0.3243
35766POPC   C4A75179  12.812  27.851  18.639  0.1825  0.0640  0.4104
35766POPC   C1B75180  12.855  28.779  19.866  0.2164 -0.2402 -0.0514
35766POPC   C2B75181  12.923  28.902  19.416  0.0244 -0.1304  0.2065
35766POPC   C3B75182  13.104  28.982  19.037  0.0004 -0.0209  0.2093
35766POPC   C4B75183  13.402  28.775  18.862 -0.0038  0.0950 -0.0731
35767POPC   NC375184  12.907  23.353  18.840 -0.1632 -0.0539 -0.0358
35767POPC   PO475185  13.028  23.363  18.447 -0.0343 -0.2622  0.3331
35767POPC   GL175186  13.246  23.121  18.090 -0.3604  0.0279 -0.0789
35767POPC   GL275187  13.298  22.870  18.196 -0.2984  0.1488 -0.0384
35767POPC   C1A75188  13.169  23.210  17.667  0.3388 -0.0774 -0.1300
35767POPC   D2A75189  13.195  23.551  17.341  0.1330  0.2879 -0.4669
35767POPC   C3A75190  12.938  23.931  17.496  0.2654  0.1747 -0.1077
35767POPC   C4A75191  12.599  24.076  17.702  0.0151  0.0523  0.0798
35767POPC   C1B75192  13.632  22.969  17.942  0.2964 -0.1591  0.3316
35767POPC   C2B75193  13.995  23.076  17.683  0.1680  0.4512 -0.2488
35767POPC   C3B75194  14.119  23.392  17.388  0.1423  0.0652  0.1834
35767POPC   C4B75195  14.381  23.667  17.139 -0.3589 -0.0499  0.2785
35768POPC   NC375196  13.693  23.611  19.543  0.1260 -0.2951  0.2055
35768POPC   PO475197  13.529  23.814  19.210  0.1791 -0.1448 -0.3681
35768POPC   GL175198  13.770  23.644  18.921  0.0548  0.2505  0.2442
35768POPC   GL275199  13.801  23.956  18.811  0.0141  0.2988 -0.2245
35768POPC   C1A75200  13.783  23.641  18.474  0.0315  0.0419 -0.3091
35768POPC   D2A75201  13.799  23.933  18.092  0.1616  0.1033 -0.0539
35768POPC   C3A75202  13.830  23.879  17.624 -0.1360  0.2414 -0.0561
35768POPC   C4A75203  13.875  24.115  17.270 -0.3919  0.1021  0.1311
35768POPC   C1B75204  14.124  24.098  18.468 -0.2275  0.3500  0.1702
35768POPC   C2B75205  14.321  24.123  18.040  0.2569 -0.1310 -0.4691
35768POPC   C3B75206  14.659  24.223  17.726 -0.0445 -0.4945  0.0059
35768POPC   C4B75207  14.777  24.593  17.450 -0.2926 -0.0143 -0.2164
35769POPC   NC375208  11.772  20.666  17.588 -0.2378 -0.3081  0.0137
35769POPC   PO475209  11.535  20.361  17.646 -0.0947 -0.1038  0.1421
35769POPC   GL175210  11.539  20.058  17.448  0.1333  0.0450 -0.1196
35769POPC   GL275211  11.557  19.812  17.629  0.0640  0.1857  0.4183
35769POPC   C1A75212  11.886  19.975  17.153 -0.0082  0.1505  0.2749
35769POPC   D2A75213  12.035  20.119  16.770  0.0157  0.1775 -0.0801
35769POPC   C3A75214  12.289  19.895  16.514  0.3641 -0.0332  0.1190
35769POPC   C4A75215  12.390  19.791  16.096  0.0402 -0.5202 -0.1539
35769POPC   C1B75216  11.985  19.770  17.610 -0.1270 -0.1489  0.1343
35769POPC   C2B75217  12.268  19.532  17.281 -0.0708 -0.2387 -0.1394
35769POPC   C3B75218  12.538  19.313  16.989 -0.2746  0.2586  0.1688
35769POPC   C4B75219  12.825  19.123  16.683  0.1071 -0.1685 -0.0803
35770POPC   NC375220   2.224  28.430  21.059 -0.0406  0.1770 -0.2603
35770POPC   PO475221   2.414  28.324  20.688 -0.2318  0.2300 -0.3686
35770POPC   GL175222   2.469  28.289  20.318  0.0395 -0.2814 -0.2520
35770POPC   GL275223   2.703  28.208  20.301 -0.0954  0.2810  0.0946
35770POPC   C1A75224   2.450  28.513  19.924  0.0631  0.1278  0.2790
35770POPC   D2A75225   2.424  28.555  19.446 -0.0625 -0.3316  0.1210
35770POPC   C3A75226   2.795  28.742  19.257 -0.0583  0.0697  0.1456
35770POPC   C4A75227   2.751  29.209  19.157 -0.2502 -0.2843  0.1794
35770POPC   C1B75228   2.514  28.028  19.908 -0.0813  0.0582  0.2002
35770POPC   C2B75229   2.189  27.875  19.597 -0.2254 -0.0208  0.1917
35770POPC   C3B75230   2.035  27.480  19.333  0.2347  0.1127 -0.1712
35770POPC   C4B75231   1.842  27.337  18.929 -0.1743  0.4488 -0.2199
35771POPC   NC375232   5.573  16.876  19.664  0.0687 -0.1111  0.2325
35771POPC   PO475233   5.940  16.970  19.591 -0.1783  0.1994 -0.0202
35771POPC   GL175234   5.753  16.825  19.194  0.2427 -0.0241  0.1950
35771POPC   GL275235   5.863  16.535  19.254 -0.0196  0.2347 -0.0083
35771POPC   C1A75236   5.411  16.594  18.995 -0.0184 -0.0439  0.0222
35771POPC   D2A75237   5.108  16.456  18.654 -0.4128  0.1497 -0.1177
35771POPC   C3A75238   5.353  16.452  18.255 -0.1119 -0.1197 -0.0218
35771POPC   C4A75239   5.496  16.411  17.795 -0.1327 -0.1784  0.3136
35771POPC   C1B75240   6.085  16.564  18.816  0.1967 -0.2026 -0.0154
35771POPC   C2B75241   6.373  16.367  18.542 -0.2778 -0.1392 -0.0568
35771POPC   C3B75242   6.327  16.109  18.180  0.0783 -0.0766 -0.3403
35771POPC   C4B75243   6.616  16.078  17.828  0.2287 -0.1208  0.0712
35772POPC   NC375244  13.392  18.173  19.249 -0.0685  0.1870 -0.0557
35772POPC   PO475245  13.562  18.456  19.045  0.0294 -0.0647  0.1475
35772POPC   GL175246  13.612  18.564  18.766 -0.0032 -0.3019 -0.5846
35772POPC   GL275247  13.715  18.868  18.795  0.0587  0.2628  0.1295
35772POPC   C1A75248  13.747  18.645  18.357  0.2534  0.0677 -0.2157
35772POPC   D2A75249  13.987  18.802  17.964 -0.0995 -0.0928 -0.2549
35772POPC   C3A75250  14.392  18.824  17.760  0.1120  0.1163  0.1723
35772POPC   C4A75251  14.745  18.493  17.716 -0.1892  0.1820 -0.1459
35772POPC   C1B75252  13.737  19.125  18.442  0.2451  0.1267 -0.0900
35772POPC   C2B75253  13.982  19.251  18.075  0.1547 -0.1660 -0.0337
35772POPC   C3B75254  14.135  19.255  17.634  0.3709  0.0785 -0.2084
35772POPC   C4B75255  14.342  19.333  17.271  0.0921  0.0895  0.0497
35773POPC   NC375256  11.207  22.313  14.115  0.1699 -0.2975  0.0720
35773POPC   PO475257  11.038  22.018  14.300  0.0573 -0.0465  0.1231
35773POPC   GL175258  11.303  22.181  14.587 -0.0131 -0.1183 -0.4146
35773POPC   GL275259  11.480  21.975  14.583 -0.0479 -0.3653 -0.0187
35773POPC   C1A75260  11.658  22.426  14.457 -0.2454 -0.4099  0.0092
35773POPC   D2A75261  11.973  22.726  14.662  0.3197 -0.0265 -0.0819
35773POPC   C3A75262  12.385  22.747  14.525 -0.0991  0.0466  0.0860
35773POPC   C4A75263  12.814  22.634  14.429  0.0155  0.2998 -0.0951
35773POPC   C1B75264  11.804  21.694  14.513  0.3020  0.0930  0.0974
35773POPC   C2B75265  12.303  21.756  14.609  0.0643  0.0024 -0.0847
35773POPC   C3B75266  12.716  21.659  14.858  0.2038  0.1677  0.1537
35773POPC   C4B75267  13.170  21.815  14.730  0.0670 -0.2722  0.1935
35774POPC   NC375268   7.245  22.525  17.513 -0.0334  0.0562 -0.1309
35774POPC   PO475269   7.223  22.131  17.570  0.0095  0.0976 -0.0318
35774POPC   GL175270   6.837  22.119  17.368  0.0276 -0.1411 -0.2114
35774POPC   GL275271   6.886  22.368  17.257  0.1918  0.0926 -0.0197
35774POPC   C1A75272   6.517  22.027  17.070  0.1882  0.1688 -0.1162
35774POPC   D2A75273   6.102  21.804  16.886 -0.1199  0.0431 -0.4166
35774POPC   C3A75274   5.645  21.737  16.945 -0.1754  0.4359 -0.1678
35774POPC   C4A75275   5.301  21.927  16.733  0.1980  0.0440 -0.2268
35774POPC   C1B75276   6.662  22.636  16.990 -0.2312 -0.1218  0.1704
35774POPC   C2B75277   6.403  22.676  16.668 -0.0483  0.3063  0.2080
35774POPC   C3B75278   6.176  22.763  16.308 -0.3083  0.1750 -0.0189
35774POPC   C4B75279   5.833  22.435  16.167 -0.4974 -0.2421 -0.3600
35775POPC   NC375280  16.985  17.914  20.144 -0.1228 -0.2721  0.2986
35775POPC   PO475281  16.967  17.601  19.891  0.0159  0.0202 -0.0551
35775POPC   GL175282  16.871  17.562  19.460  0.2579  0.3802  0.4484
35775POPC   GL275283  16.552  17.599  19.404  0.2485 -0.0247  0.2147
35775POPC   C1A75284  17.009  17.316  19.118 -0.2236 -0.1656  0.0933
35775POPC   D2A75285  17.079  17.004  18.801 -0.0545  0.0316 -0.0708
35775POPC   C3A75286  16.973  17.120  18.397  0.1656  0.1190  0.0467
35775POPC   C4A75287  16.809  17.406  18.026  0.1566 -0.0565  0.5824
35775POPC   C1B75288  16.459  17.771  18.987 -0.1408  0.4340  0.1131
35775POPC   C2B75289  16.451  17.939  18.546  0.2520 -0.0114 -0.0491
35775POPC   C3B75290  16.447  17.790  18.085 -0.0831 -0.3193  0.2653
35775POPC   C4B75291  16.059  17.692  17.763 -0.0687  0.0770 -0.0593
35776POPC   NC375292  14.771  26.280  20.151 -0.0251  0.1437  0.4072
35776POPC   PO475293  14.791  25.894  20.247 -0.2505  0.1117 -0.1076
35776POPC   GL175294  15.070  26.010  19.962  0.1977  0.2217  0.3181
35776POPC   GL275295  14.935  26.077  19.671 -0.0441 -0.2738 -0.0916
35776POPC   C1A75296  15.454  25.966  19.674 -0.0604  0.0530  0.0173
35776POPC   D2A75297  15.500  25.989  19.200 -0.0891 -0.0006 -0.1381
35776POPC   C3A75298  15.887  25.990  18.912  0.1899  0.0219 -0.0904
35776POPC   C4A75299  16.220  26.257  18.972  0.0185  0.2603 -0.1898
35776POPC   C1B75300  15.214  26.341  19.394  0.1131  0.1493 -0.0744
35776POPC   C2B75301  15.203  26.491  18.994 -0.1269  0.1590  0.0453
35776POPC   C3B75302  15.210  26.340  18.533  0.3034  0.1021  0.1245
35776POPC   C4B75303  14.900  25.999  18.462 -0.1920  0.1455  0.3291
35777POPC   NC375304  11.203  20.385  16.643  0.1779 -0.3351 -0.4151
35777POPC   PO475305  11.366  20.063  16.809 -0.1070 -0.1819  0.1400
35777POPC   GL175306  11.632  20.020  16.528 -0.1047 -0.0430  0.1781
35777POPC   GL275307  11.415  20.029  16.306  0.2566 -0.1869  0.2262
35777POPC   C1A75308  11.933  20.221  16.223 -0.3736 -0.0028 -0.0741
35777POPC   D2A75309  11.927  20.648  16.110 -0.1182 -0.0707 -0.1171
35777POPC   C3A75310  12.097  20.666  15.665 -0.0974  0.4079  0.1421
35777POPC   C4A75311  12.334  20.445  15.314  0.3589  0.2759  0.0986
35777POPC   C1B75312  11.350  19.767  15.950 -0.0992  0.1974  0.1391
35777POPC   C2B75313  11.475  19.361  15.698 -0.1315  0.0805  0.0132
35777POPC   C3B75314  11.242  18.980  15.496  0.0486 -0.0940 -0.0002
35777POPC   C4B75315  10.893  18.887  15.215  0.0578  0.0893 -0.2312
35778POPC   NC375316   8.483  23.789  18.443 -0.0169  0.0240  0.1856
35778POPC   PO475317   8.118  23.735  18.251  0.2539 -0.2985 -0.0967
35778POPC   GL175318   7.924  24.002  17.964 -0.1005  0.0174 -0.1912
35778POPC   GL275319   7.965  24.102  17.690 -0.1555 -0.0173 -0.1146
35778POPC   C1A75320   7.507  24.125  17.943  0.2638  0.0806 -0.3780
35778POPC   D2A75321   7.164  23.895  18.138  0.2453  0.1322 -0.1355
35778POPC   C3A75322   6.790  23.838  17.884  0.3998  0.2186 -0.1055
35778POPC   C4A75323   6.390  23.625  17.734 -0.0028 -0.0979 -0.0517
35778POPC   C1B75324   7.799  24.276  17.327  0.2245  0.2016 -0.0438
35778POPC   C2B75325   7.416  24.396  17.163 -0.1115  0.0278 -0.1357
35778POPC   C3B75326   6.998  24.547  17.064 -0.0510  0.0887  0.0581
35778POPC   C4B75327   6.511  24.634  16.967 -0.0148 -0.0547  0.2977
35779POPC   NC375328   9.120  23.473  13.406  0.2359 -0.2208  0.0373
35779POPC   PO475329   9.270  23.354  13.748  0.2727 -0.0754 -0.1454
35779POPC   GL175330   9.097  23.685  13.882 -0.2427 -0.1824  0.1097
35779POPC   GL275331   9.124  23.908  13.715 -0.0558  0.1138  0.4154
35779POPC   C1A75332   8.832  23.870  14.144 -0.3205 -0.2188  0.0683
35779POPC   D2A75333   8.764  24.296  14.325  0.1237  0.2187  0.0949
35779POPC   C3A75334   9.060  24.583  14.503 -0.1793  0.0530 -0.1438
35779POPC   C4A75335   9.179  24.871  14.849 -0.1164  0.0181 -0.1492
35779POPC   C1B75336   9.082  24.276  13.407  0.1881  0.1045 -0.0282
35779POPC   C2B75337   8.926  24.421  12.956 -0.2592 -0.0413 -0.1350
35779POPC   C3B75338   8.710  24.339  12.560 -0.0855 -0.1309 -0.0149
35779POPC   C4B75339   8.437  24.391  12.182  0.1369  0.2227  0.0476
35780POPC   NC375340  15.442  18.633  19.761  0.1120 -0.2278 -0.0802
35780POPC   PO475341  15.824  18.569  19.885 -0.1042  0.1266 -0.2825
35780POPC   GL175342  15.922  18.488  19.499 -0.1659  0.0623 -0.1568
35780POPC   GL275343  15.833  18.735  19.379  0.1157  0.1504 -0.0820
35780POPC   C1A75344  16.261  18.409  19.234 -0.0424  0.1908  0.1077
35780POPC   D2A75345  16.455  18.349  18.896  0.0109  0.0995  0.0375
35780POPC   C3A75346  16.170  18.372  18.546  0.0968  0.0923  0.3717
35780POPC   C4A75347  16.068  18.080  18.186  0.0801 -0.0902  0.2427
35780POPC   C1B75348  15.951  18.729  18.978  0.0658  0.0723 -0.0630
35780POPC   C2B75349  16.006  18.837  18.561  0.2071  0.1096 -0.1800
35780POPC   C3B75350  16.083  18.651  18.164  0.0850  0.2565 -0.0939
35780POPC   C4B75351  16.233  18.546  17.725  0.0797  0.1739 -0.2221
35781POPC   NC375352   8.751  24.986  19.281 -0.0773 -0.2252 -0.1940
35781POPC   PO475353   8.533  24.674  19.195  0.2157 -0.1721 -0.1142
35781POPC   GL175354   8.418  24.844  18.876  0.1635 -0.3411 -0.0611
35781POPC   GL275355   8.349  24.611  18.742  0.2849 -0.1032 -0.2200
35781POPC   C1A75356   8.298  25.210  18.610  0.1326 -0.0782 -0.2617
35781POPC   D2A75357   8.068  25.419  18.279 -0.0757  0.1003 -0.3430
35781POPC   C3A75358   7.829  25.430  17.955  0.0098  0.2560 -0.2337
35781POPC   C4A75359   7.631  25.755  17.699 -0.0683 -0.1593 -0.3204
35781POPC   C1B75360   7.987  24.804  18.523  0.0168 -0.0229 -0.2540
35781POPC   C2B75361   7.575  24.749  18.390 -0.1619  0.1496 -0.1048
35781POPC   C3B75362   7.211  24.462  18.202  0.0716 -0.0216 -0.3953
35781POPC   C4B75363   7.076  24.367  17.790 -0.1438 -0.1000 -0.0850
35782POPC   NC375364   1.931  23.720  19.910 -0.0748  0.1445  0.2755
35782POPC   PO475365   1.750  23.481  20.146 -0.1931  0.1485  0.1011
35782POPC   GL175366   1.763  23.202  19.878 -0.2698  0.1507 -0.1095
35782POPC   GL275367   2.026  23.127  19.998 -0.0865 -0.0074  0.1010
35782POPC   C1A75368   1.611  23.131  19.472 -0.1745 -0.4223 -0.1051
35782POPC   D2A75369   1.737  23.029  19.024  0.0948  0.0357  0.0670
35782POPC   C3A75370   1.577  22.639  18.815 -0.1429 -0.1774  0.0283
35782POPC   C4A75371   1.539  22.582  18.360 -0.2601  0.2580  0.0254
35782POPC   C1B75372   2.088  23.349  19.581 -0.3187  0.1023  0.0019
35782POPC   C2B75373   1.994  23.415  19.103 -0.1567  0.1162  0.0210
35782POPC   C3B75374   1.843  23.406  18.666  0.0862 -0.3065  0.1084
35782POPC   C4B75375   1.384  23.311  18.516 -0.2426  0.2131  0.0420
35783POPC   NC375376  12.783  27.914  20.753  0.4151  0.0702 -0.0344
35783POPC   PO475377  12.523  28.205  20.629 -0.0670  0.1516 -0.1586
35783POPC   GL175378  12.281  28.080  20.291 -0.1512  0.1117 -0.0870
35783POPC   GL275379  12.496  28.088  20.100  0.0887  0.1163 -0.1398
35783POPC   C1A75380  12.129  27.873  19.920  0.4607 -0.0760  0.0558
35783POPC   D2A75381  11.813  27.983  19.581 -0.2792 -0.0050 -0.0797
35783POPC   C3A75382  11.467  28.310  19.524  0.0234  0.1975 -0.1481
35783POPC   C4A75383  11.057  28.120  19.361  0.4744 -0.0425  0.1978
35783POPC   C1B75384  12.578  27.727  19.845  0.3633 -0.0521  0.5002
35783POPC   C2B75385  12.430  27.298  19.706 -0.0983 -0.2827  0.0941
35783POPC   C3B75386  12.289  27.194  19.269 -0.1290 -0.0030 -0.2181
35783POPC   C4B75387  11.989  27.271  18.920  0.0928 -0.2774 -0.1759
35784POPC   NC375388   3.951  31.213  20.508  0.1678 -0.0184 -0.2199
35784POPC   PO475389   3.735  31.078  20.835  0.0607  0.1997 -0.1867
35784POPC   GL175390   3.699  30.787  20.589 -0.1626 -0.1204 -0.0075
35784POPC   GL275391   3.775  30.526  20.689  0.1121 -0.1467  0.1475
35784POPC   C1A75392   3.811  30.920  20.176  0.0080  0.1344 -0.0647
35784POPC   D2A75393   3.790  31.087  19.777  0.5425  0.1692  0.0989
35784POPC   C3A75394   3.844  30.726  19.484  0.1657  0.3646  0.0018
35784POPC   C4A75395   3.972  30.633  19.041 -0.0081  0.0431 -0.1520
35784POPC   C1B75396   4.167  30.633  20.392 -0.2502 -0.0733  0.0305
35784POPC   C2B75397   4.295  30.899  20.027  0.3068 -0.2310  0.1033
35784POPC   C3B75398   4.267  31.105  19.593 -0.0851  0.0090 -0.2313
35784POPC   C4B75399   4.314  30.973  19.175 -0.0374  0.0457 -0.2417
35785POPC   NC375400   8.670  29.287  20.391  0.3077  0.1982 -0.1962
35785POPC   PO475401   8.675  29.667  20.515  0.2168  0.2459  0.0242
35785POPC   GL175402   8.851  29.703  20.119  0.0291 -0.2493 -0.1213
35785POPC   GL275403   9.068  29.648  20.174  0.2472  0.1488 -0.3214
35785POPC   C1A75404   9.082  29.985  19.781  0.1526  0.0487  0.3137
35785POPC   D2A75405   9.208  30.398  19.566  0.1881  0.1839 -0.1810
35785POPC   C3A75406   9.145  30.627  19.211  0.3475 -0.1724  0.0702
35785POPC   C4A75407   9.337  30.949  19.029 -0.0081 -0.0409 -0.2125
35785POPC   C1B75408   9.342  29.552  19.831 -0.0629  0.0037 -0.1705
35785POPC   C2B75409   9.689  29.442  19.563  0.0962 -0.0586  0.1150
35785POPC   C3B75410   9.902  29.556  19.104 -0.0602 -0.2380 -0.1054
35785POPC   C4B75411   9.780  29.577  18.619 -0.1676 -0.4207 -0.1468
35786POPC   NC375412   3.163  27.473  20.430  0.0390  0.0733  0.2810
35786POPC   PO475413   3.502  27.451  20.655  0.2196 -0.0526 -0.1340
35786POPC   GL175414   3.630  27.353  20.316 -0.3139 -0.2616  0.2206
35786POPC   GL275415   3.565  27.577  20.162 -0.0288  0.0582  0.0512
35786POPC   C1A75416   3.480  27.138  19.990  0.0448 -0.0037 -0.0635
35786POPC   D2A75417   3.301  26.773  19.745 -0.2096 -0.0875 -0.0030
35786POPC   C3A75418   3.149  26.857  19.281 -0.1730  0.0666 -0.0213
35786POPC   C4A75419   3.219  26.692  18.834  0.2644 -0.0673 -0.1737
35786POPC   C1B75420   3.266  27.536  19.850 -0.2812 -0.0775  0.0455
35786POPC   C2B75421   3.295  27.282  19.453 -0.0824 -0.1932 -0.1543
35786POPC   C3B75422   3.306  27.244  18.993  0.1293 -0.2268 -0.0608
35786POPC   C4B75423   3.392  27.278  18.546  0.1689 -0.2377 -0.0195
35787POPC   NC375424   7.310  24.872  19.560  0.0105 -0.2555 -0.4000
35787POPC   PO475425   7.635  24.835  19.405 -0.4534  0.1820 -0.3053
35787POPC   GL175426   8.065  24.861  19.343 -0.0915 -0.4687 -0.1189
35787POPC   GL275427   8.064  24.952  19.084 -0.3006  0.0026  0.0413
35787POPC   C1A75428   8.349  25.298  19.259  0.3750 -0.3013  0.1415
35787POPC   D2A75429   8.537  25.518  18.910 -0.2933  0.0723  0.0140
35787POPC   C3A75430   8.693  25.843  19.163 -0.1182 -0.0109 -0.1449
35787POPC   C4A75431   9.028  26.171  19.181  0.2231 -0.0395  0.0839
35787POPC   C1B75432   7.736  25.086  18.796 -0.0595  0.1775  0.3133
35787POPC   C2B75433   7.582  25.238  18.369  0.1876 -0.4382  0.0917
35787POPC   C3B75434   7.531  25.051  17.982  0.3261  0.4491  0.3180
35787POPC   C4B75435   7.575  24.657  17.724 -0.3673 -0.2548  0.0295
35788POPC   NC375436  11.263  21.465  15.351 -0.0220 -0.0403 -0.1508
35788POPC   PO475437  11.073  21.187  15.558 -0.0127  0.0991 -0.1239
35788POPC   GL175438  11.305  21.010  15.403  0.2406 -0.2914 -0.1627
35788POPC   GL275439  11.359  21.021  15.129  0.0723  0.0401 -0.0105
35788POPC   C1A75440  11.311  20.513  15.409  0.2547 -0.4540 -0.3553
35788POPC   D2A75441  11.400  20.079  15.283 -0.0030  0.0989  0.1104
35788POPC   C3A75442  11.791  19.821  15.348  0.1712 -0.0278 -0.0695
35788POPC   C4A75443  12.238  19.637  15.298 -0.0418 -0.2973 -0.1051
35788POPC   C1B75444  11.747  20.986  15.313 -0.1106  0.0930  0.1050
35788POPC   C2B75445  12.203  20.893  15.202 -0.1618 -0.1330 -0.0498
35788POPC   C3B75446  12.551  20.782  14.898  0.0873 -0.0165 -0.1009
35788POPC   C4B75447  12.878  20.503  14.752  0.0258  0.2563  0.2235
35789POPC   NC375448   9.841  25.787  19.482 -0.0911  0.2684 -0.1883
35789POPC   PO475449  10.023  25.513  19.303 -0.1376  0.0560 -0.4578
35789POPC   GL175450  10.121  25.668  18.952 -0.3331  0.2103  0.0580
35789POPC   GL275451   9.939  25.848  18.942 -0.2172 -0.1263 -0.2596
35789POPC   C1A75452  10.355  26.063  18.767 -0.0250 -0.1096  0.0793
35789POPC   D2A75453  10.603  26.312  18.518  0.3050  0.2146 -0.1590
35789POPC   C3A75454  10.320  26.600  18.259 -0.0778  0.2456  0.2068
35789POPC   C4A75455  10.227  26.762  17.825 -0.1182  0.1912 -0.1160
35789POPC   C1B75456   9.687  26.160  18.732  0.2423  0.0559  0.1118
35789POPC   C2B75457   9.465  26.525  18.467  0.2118  0.3437 -0.0010
35789POPC   C3B75458   9.198  26.948  18.489  0.1704  0.1306  0.0402
35789POPC   C4B75459   8.770  27.088  18.366 -0.0627 -0.1249 -0.3220
35790POPC   NC375460   9.341  24.304  18.174  0.0565 -0.0593 -0.0237
35790POPC   PO475461   9.183  24.594  18.420  0.0368 -0.3933 -0.0282
35790POPC   GL175462   9.293  24.772  18.086  0.4670  0.3651 -0.2319
35790POPC   GL275463   9.324  24.632  17.815 -0.2474  0.0150  0.1453
35790POPC   C1A75464   9.205  25.210  17.953 -0.2896  0.2368  0.0214
35790POPC   D2A75465   9.227  25.624  17.782  0.0992  0.0528  0.0554
35790POPC   C3A75466   9.665  25.597  17.624 -0.1682 -0.0928  0.1309
35790POPC   C4A75467   9.945  25.909  17.394  0.2834  0.2377 -0.2487
35790POPC   C1B75468   9.276  24.774  17.406 -0.1846 -0.1809 -0.1620
35790POPC   C2B75469   8.958  24.979  17.132 -0.0897  0.1659 -0.0769
35790POPC   C3B75470   8.615  25.263  17.083  0.1463 -0.3481 -0.2908
35790POPC   C4B75471   8.352  25.682  17.035 -0.2149  0.1988 -0.1498
35791POPC   NC375472   6.754  30.540  20.538 -0.0047 -0.4105 -0.0199
35791POPC   PO475473   7.092  30.341  20.471 -0.0054  0.1945 -0.1264
35791POPC   GL175474   6.793  30.444  20.090 -0.0558  0.0547  0.0141
35791POPC   GL275475   6.990  30.535  19.937 -0.0733 -0.0753  0.0402
35791POPC   C1A75476   6.579  30.400  19.713  0.0984 -0.1616 -0.3999
35791POPC   D2A75477   6.750  30.348  19.269 -0.0647 -0.1115 -0.0399
35791POPC   C3A75478   6.888  30.734  19.021  0.0005  0.1773  0.2335
35791POPC   C4A75479   7.132  31.175  18.902  0.1186  0.1197  0.0826
35791POPC   C1B75480   7.164  30.738  19.495  0.0767  0.0501 -0.1485
35791POPC   C2B75481   7.394  30.631  19.104  0.1293 -0.0593 -0.4637
35791POPC   C3B75482   7.175  30.600  18.676 -0.0112 -0.3087 -0.0561
35791POPC   C4B75483   7.137  30.743  18.282  0.1306  0.0143  0.0655
35792POPC   NC375484   8.095  22.263  15.983 -0.0229 -0.1127  0.0187
35792POPC   PO475485   8.167  22.312  15.595 -0.0277  0.3058  0.2537
35792POPC   GL175486   7.757  22.406  15.433 -0.1152  0.3589  0.1647
35792POPC   GL275487   7.632  22.505  15.656  0.1835 -0.3576  0.0733
35792POPC   C1A75488   7.571  22.426  14.999 -0.2140  0.1818  0.3134
35792POPC   D2A75489   7.123  22.327  14.892 -0.0847  0.1031  0.2459
35792POPC   C3A75490   6.891  22.266  15.249  0.4154  0.1678 -0.2608
35792POPC   C4A75491   6.590  22.156  15.549 -0.0098  0.1909  0.0418
35792POPC   C1B75492   7.281  22.558  15.361 -0.2994 -0.5443  0.0226
35792POPC   C2B75493   7.254  22.810  14.979  0.0241  0.2298  0.0938
35792POPC   C3B75494   7.061  22.732  14.546 -0.4037  0.0391  0.3322
35792POPC   C4B75495   7.122  22.599  14.095 -0.0383 -0.0961 -0.2140
35793POPC   NC375496  10.770  23.029  14.483 -0.0852  0.1725  0.1334
35793POPC   PO475497  11.053  22.811  14.274 -0.2297  0.5424 -0.0053
35793POPC   GL175498  11.301  22.923  14.009  0.0523  0.0139  0.1641
35793POPC   GL275499  11.425  23.139  13.989 -0.5957 -0.0682  0.3508
35793POPC   C1A75500  11.720  22.721  13.998 -0.0880  0.3465 -0.1943
35793POPC   D2A75501  12.149  22.582  14.136 -0.3014  0.1231 -0.0537
35793POPC   C3A75502  12.521  22.801  14.033 -0.2912  0.0163 -0.0201
35793POPC   C4A75503  12.964  22.941  14.062 -0.0885  0.5402  0.0587
35793POPC   C1B75504  11.642  23.411  14.224  0.0961 -0.0266 -0.2389
35793POPC   C2B75505  11.890  23.471  14.584 -0.1157  0.0453 -0.0898
35793POPC   C3B75506  12.304  23.534  14.796 -0.0634  0.2471  0.1202
35793POPC   C4B75507  12.641  23.822  14.890  0.2558  0.1182 -0.1556
35794POPC   NC375508  11.113  22.591  16.504 -0.1754 -0.0115  0.0616
35794POPC   PO475509  11.109  22.752  16.134  0.1219 -0.2105  0.1211
35794POPC   GL175510  11.475  22.784  15.975  0.1588  0.1417  0.2459
35794POPC   GL275511  11.523  22.981  15.877  0.3146 -0.1953  0.0095
35794POPC   C1A75512  11.932  22.712  15.871  0.0576  0.1506 -0.0642
35794POPC   D2A75513  12.252  22.510  15.647 -0.1408 -0.3386  0.2210
35794POPC   C3A75514  12.658  22.570  15.468  0.4364  0.0196 -0.1353
35794POPC   C4A75515  12.939  22.501  15.033  0.1281 -0.0161 -0.0157
35794POPC   C1B75516  11.640  23.415  15.814 -0.0252  0.3890 -0.0420
35794POPC   C2B75517  11.467  23.851  15.678 -0.1300 -0.3006 -0.0213
35794POPC   C3B75518  11.468  24.323  15.795 -0.0148  0.0940  0.0510
35794POPC   C4B75519  11.638  24.731  15.919 -0.3632  0.1135  0.3468
35795POPC   NC375520  17.036  25.188  19.963  0.1274  0.0955 -0.0891
35795POPC   PO475521  17.210  24.843  20.053  0.1732 -0.2009 -0.0468
35795POPC   GL175522  16.970  24.845  19.671 -0.1266  0.4433 -0.0006
35795POPC   GL275523  16.686  24.861  19.727 -0.2024  0.0865  0.4269
35795POPC   C1A75524  16.774  24.587  19.282 -0.0321 -0.0179  0.0469
35795POPC   D2A75525  17.037  24.656  18.874 -0.1107  0.1192 -0.1521
35795POPC   C3A75526  17.022  24.827  18.438 -0.0789  0.0895  0.1532
35795POPC   C4A75527  17.412  24.849  18.181  0.1010 -0.0971  0.2080
35795POPC   C1B75528  16.692  25.065  19.292  0.0998 -0.1870 -0.0904
35795POPC   C2B75529  16.733  25.199  18.851 -0.2307 -0.1450 -0.0063
35795POPC   C3B75530  16.477  25.543  18.897 -0.0133 -0.0253  0.1111
35795POPC   C4B75531  16.361  25.841  19.261  0.1157 -0.2190  0.0629
35796POPC   NC375532   1.760  19.800  19.821 -0.0736  0.3241  0.1210
35796POPC   PO475533   2.104  19.978  19.880  0.0448 -0.1216 -0.0060
35796POPC   GL175534   2.194  19.991  19.435 -0.2310 -0.1010  0.0011
35796POPC   GL275535   2.333  20.265  19.375 -0.2131  0.0765  0.0729
35796POPC   C1A75536   2.323  19.641  19.177 -0.0931 -0.0782  0.0873
35796POPC   D2A75537   2.225  19.637  18.727 -0.1566  0.2024  0.2498
35796POPC   C3A75538   2.439  19.270  18.455 -0.0682 -0.2236 -0.3172
35796POPC   C4A75539   2.675  19.199  18.051 -0.0701 -0.1074  0.1563
35796POPC   C1B75540   2.326  20.551  19.023  0.1616 -0.0765  0.0150
35796POPC   C2B75541   1.987  20.761  18.699 -0.1873 -0.2534 -0.2014
35796POPC   C3B75542   1.641  20.739  18.403  0.0307 -0.0077 -0.1731
35796POPC   C4B75543   1.242  20.484  18.371  0.2479 -0.3506  0.0736
35797POPC   NC375544  16.232  21.738  19.332  0.2786  0.0151  0.0011
35797POPC   PO475545  16.547  21.930  19.471  0.2924 -0.0086 -0.0077
35797POPC   GL175546  16.739  21.960  19.162  0.3001 -0.3826 -0.0496
35797POPC   GL275547  16.887  21.676  19.139 -0.3798  0.2460  0.2371
35797POPC   C1A75548  16.909  22.036  18.739 -0.0436  0.1226  0.0898
35797POPC   D2A75549  17.070  22.232  18.328 -0.2607  0.0898  0.1031
35797POPC   C3A75550  17.320  22.457  18.061  0.1584 -0.1488  0.2833
35797POPC   C4A75551  17.593  22.727  17.882  0.3315 -0.0120 -0.2777
35797POPC   C1B75552  16.922  21.450  18.707  0.1164  0.0239  0.0745
35797POPC   C2B75553  17.088  21.245  18.324  0.0775 -0.2901  0.3188
35797POPC   C3B75554  16.753  21.009  18.087  0.0352 -0.0569 -0.2376
35797POPC   C4B75555  16.488  20.606  18.048  0.2312 -0.0578  0.2543
35798POPC   NC375556   8.464  19.247  18.082 -0.0599 -0.0696 -0.1861
35798POPC   PO475557   8.123  19.091  18.218 -0.1104 -0.0631  0.4773
35798POPC   GL175558   8.063  19.132  17.799 -0.1043  0.3007  0.0794
35798POPC   GL275559   8.209  18.807  17.836  0.0744 -0.3719 -0.2380
35798POPC   C1A75560   7.786  18.934  17.534 -0.0497 -0.1007 -0.0782
35798POPC   D2A75561   7.443  18.671  17.399 -0.2431  0.0980  0.1363
35798POPC   C3A75562   7.301  18.407  16.993  0.1324  0.1064 -0.4397
35798POPC   C4A75563   7.278  18.039  16.674 -0.0947 -0.0379 -0.2669
35798POPC   C1B75564   8.267  18.950  17.434  0.2461  0.2549  0.3175
35798POPC   C2B75565   7.967  19.201  17.189  0.0880 -0.1378  0.1541
35798POPC   C3B75566   7.491  19.139  17.153  0.0001 -0.1729  0.3475
35798POPC   C4B75567   7.184  18.934  16.957 -0.0668  0.2087 -0.2520
35799POPC   NC375568  10.810  27.747  20.381  0.2239 -0.0798  0.0754
35799POPC   PO475569  11.115  27.566  20.216  0.1683  0.2691 -0.3353
35799POPC   GL175570  11.087  27.494  19.815 -0.1838 -0.2834 -0.2120
35799POPC   GL275571  11.469  27.365  19.768  0.0020  0.0252  0.1390
35799POPC   C1A75572  11.134  27.241  19.417 -0.1226  0.0570  0.0792
35799POPC   D2A75573  11.291  27.016  19.078 -0.1922  0.1867 -0.0743
35799POPC   C3A75574  11.482  27.253  18.699  0.1074 -0.2211  0.0388
35799POPC   C4A75575  11.331  27.588  18.382 -0.1498  0.2118 -0.1449
35799POPC   C1B75576  11.353  27.744  19.433  0.0176 -0.0578 -0.1710
35799POPC   C2B75577  11.432  27.931  19.049 -0.1608  0.2964  0.0176
35799POPC   C3B75578  11.463  28.066  18.562 -0.0997 -0.0140 -0.1418
35799POPC   C4B75579  11.422  27.968  18.123  0.1052 -0.0086  0.0469
35800POPC   NC375580  32.613  18.128  20.082 -0.0212  0.2283  0.0833
35800POPC   PO475581  32.818  18.472  20.016  0.0114 -0.0216 -0.3196
35800POPC   GL175582  32.899  18.264  19.726 -0.0845 -0.0254 -0.5808
35800POPC   GL275583  32.988  18.036  19.713  0.0386 -0.1677 -0.0478
35800POPC   C1A75584  32.788  18.376  19.264 -0.0436  0.1870 -0.0779
35800POPC   D2A75585  32.995  18.129  18.947  0.3043 -0.2617  0.0814
35800POPC   C3A75586  32.720  17.894  18.671 -0.0500  0.0282  0.2645
35800POPC   C4A75587  32.749  17.953  18.189 -0.1095 -0.2153 -0.0449
35800POPC   C1B75588  33.165  17.770  19.290  0.2310 -0.0064 -0.0197
35800POPC   C2B75589  33.208  17.670  18.843 -0.2935 -0.0597 -0.2369
35800POPC   C3B75590  33.054  17.470  18.535  0.0280 -0.0913 -0.0243
35800POPC   C4B75591  32.614  17.485  18.401 -0.4287  0.1629 -0.0396
35801POPC   NC375592   7.307  29.442  20.598  0.0749 -0.2525 -0.1052
35801POPC   PO475593   7.192  29.130  20.419  0.1496  0.4925  0.0208
35801POPC   GL175594   7.084  29.360  20.174  0.1770  0.0002  0.2010
35801POPC   GL275595   6.801  29.391  20.264 -0.1063  0.4000 -0.1308
35801POPC   C1A75596   7.034  29.567  19.747  0.0654 -0.1380  0.1387
35801POPC   D2A75597   7.239  29.692  19.326 -0.0667  0.1646  0.0683
35801POPC   C3A75598   7.025  29.851  18.957 -0.0350 -0.2387  0.3648
35801POPC   C4A75599   6.814  30.256  18.757  0.3639 -0.0270  0.0421
35801POPC   C1B75600   6.797  29.084  19.904  0.0835  0.0905 -0.1259
35801POPC   C2B75601   6.621  29.111  19.474 -0.1154  0.2573  0.0609
35801POPC   C3B75602   6.602  28.921  19.016 -0.1391 -0.2475 -0.1426
35801POPC   C4B75603   6.648  28.813  18.580 -0.3128 -0.1343 -0.0267
35802POPC   NC375604  11.562  22.325  15.669  0.0622  0.0417  0.3907
35802POPC   PO475605  11.324  22.020  15.535 -0.1910  0.0628  0.1298
35802POPC   GL175606  11.649  22.081  15.197 -0.0400 -0.1427 -0.0030
35802POPC   GL275607  11.618  22.329  15.001  0.0957  0.2399 -0.1306
35802POPC   C1A75608  12.020  22.368  15.201  0.1608 -0.1562  0.0943
35802POPC   D2A75609  12.432  22.490  15.012 -0.5091  0.0109  0.0322
35802POPC   C3A75610  12.567  22.227  14.642 -0.1408 -0.3509 -0.0576
35802POPC   C4A75611  12.784  21.853  14.402  0.1543  0.0627 -0.0037
35802POPC   C1B75612  11.975  22.161  14.790 -0.0868  0.0732 -0.0137
35802POPC   C2B75613  12.168  22.160  14.360  0.1988  0.2023  0.3499
35802POPC   C3B75614  12.407  21.810  14.099  0.1663  0.1723  0.0401
35802POPC   C4B75615  12.720  21.806  13.777 -0.0323  0.0679 -0.0607
35803POPC   NC375616   7.703  23.976  19.110  0.1267 -0.0297  0.3533
35803POPC   PO475617   7.362  24.107  18.964  0.0125 -0.0237 -0.2243
35803POPC   GL175618   7.197  24.200  18.636  0.1639 -0.4621 -0.4036
35803POPC   GL275619   7.155  24.570  18.688 -0.0114 -0.0814  0.2212
35803POPC   C1A75620   6.753  24.293  18.444 -0.2925  0.1584 -0.0445
35803POPC   D2A75621   6.473  24.233  18.085  0.0167  0.0197 -0.0554
35803POPC   C3A75622   6.428  24.111  17.611 -0.0577  0.0701  0.1470
35803POPC   C4A75623   6.312  24.219  17.145 -0.1172 -0.1045 -0.0428
35803POPC   C1B75624   7.092  24.958  18.487  0.0520 -0.0316 -0.0888
35803POPC   C2B75625   7.016  25.099  18.072 -0.2334 -0.2300 -0.1064
35803POPC   C3B75626   7.229  25.459  17.944 -0.5360  0.0766 -0.1645
35803POPC   C4B75627   7.496  25.674  18.220  0.0647  0.0176  0.0149
35804POPC   NC375628  10.376  23.316  13.850 -0.0697  0.1175 -0.1825
35804POPC   PO475629  10.028  23.506  13.773 -0.1459 -0.0856  0.2064
35804POPC   GL175630  10.062  23.789  13.809 -0.1468  0.2472  0.0349
35804POPC   GL275631  10.153  23.990  13.583 -0.0354 -0.4525  0.1088
35804POPC   C1A75632   9.829  24.183  13.984 -0.2719  0.0539  0.2516
35804POPC   D2A75633   9.949  24.633  13.963 -0.1258  0.0370 -0.1911
35804POPC   C3A75634   9.835  24.986  14.175 -0.3046  0.2899 -0.1728
35804POPC   C4A75635   9.439  25.143  14.365  0.0053 -0.2026  0.0857
35804POPC   C1B75636  10.087  24.407  13.544  0.0057  0.1110  0.0189
35804POPC   C2B75637  10.114  24.828  13.336  0.0189 -0.0017 -0.0718
35804POPC   C3B75638  10.156  25.237  13.102  0.3930 -0.4053  0.2491
35804POPC   C4B75639   9.913  25.635  12.941  0.1480 -0.2803  0.3708
35805POPC   NC375640   5.170  26.219  19.868  0.2802 -0.0216 -0.1448
35805POPC   PO475641   5.156  25.851  20.022  0.2062 -0.0936  0.2442
35805POPC   GL175642   5.198  25.813  19.669  0.1576 -0.1224 -0.2528
35805POPC   GL275643   5.259  26.050  19.396 -0.1044 -0.1245 -0.1680
35805POPC   C1A75644   5.510  25.666  19.350  0.2626 -0.0122 -0.1756
35805POPC   D2A75645   5.683  25.629  18.935 -0.0095  0.2886  0.0152
35805POPC   C3A75646   5.817  25.932  18.677 -0.0251  0.0416 -0.0548
35805POPC   C4A75647   5.737  26.315  18.381 -0.1049 -0.1528 -0.0480
35805POPC   C1B75648   5.161  25.891  19.030  0.2752 -0.0265 -0.1132
35805POPC   C2B75649   5.346  25.788  18.572  0.1807  0.2180 -0.0395
35805POPC   C3B75650   5.490  25.385  18.297  0.0739  0.1132  0.1066
35805POPC   C4B75651   5.584  25.065  18.030  0.1398 -0.0468  0.0598
35806POPC   NC375652   1.013  19.977  19.648 -0.4575  0.0671  0.2856
35806POPC   PO475653   1.319  19.950  19.845 -0.0633  0.2410  0.1222
35806POPC   GL175654   1.383  19.650  19.569  0.1127  0.0033  0.1643
35806POPC   GL275655   1.323  19.679  19.355 -0.0096 -0.0703  0.2751
35806POPC   C1A75656   1.824  19.618  19.297  0.4215 -0.0155  0.0720
35806POPC   D2A75657   2.045  19.237  19.144 -0.2154  0.2190 -0.0127
35806POPC   C3A75658   1.868  18.752  19.134 -0.0098 -0.4111  0.0996
35806POPC   C4A75659   1.669  18.328  19.089  0.1214  0.0956  0.1215
35806POPC   C1B75660   1.190  19.691  18.912 -0.1706  0.0177  0.1850
35806POPC   C2B75661   1.389  19.434  18.566  0.0721 -0.1775  0.3232
35806POPC   C3B75662   1.412  19.148  18.151  0.0409 -0.2033 -0.1428
35806POPC   C4B75663   1.572  18.663  18.085  0.2355  0.2709  0.0166
35807POPC   NC375664  14.240  25.466  20.198 -0.0601 -0.4255  0.0954
35807POPC   PO475665  14.118  25.573  19.853  0.1656  0.1308  0.2798
35807POPC   GL175666  14.164  25.807  19.516  0.1745 -0.2320 -0.0848
35807POPC   GL275667  14.039  25.804  19.281  0.4003 -0.4011 -0.0366
35807POPC   C1A75668  14.578  25.925  19.410  0.3269 -0.2450 -0.1341
35807POPC   D2A75669  14.695  26.330  19.223 -0.1406  0.2394 -0.0027
35807POPC   C3A75670  14.722  26.354  18.806 -0.0460 -0.4301 -0.0482
35807POPC   C4A75671  14.348  26.234  18.475 -0.0059  0.1513  0.0780
35807POPC   C1B75672  14.262  25.926  18.865  0.2353 -0.0228  0.0789
35807POPC   C2B75673  14.320  25.782  18.411  0.1491 -0.1275 -0.2100
35807POPC   C3B75674  14.396  25.994  18.044  0.0438 -0.0247  0.2048
35807POPC   C4B75675  14.340  25.872  17.601 -0.0407  0.2321  0.2981
35808POPC   NC375676  32.620  24.587  20.280 -0.1441 -0.0596  0.2030
35808POPC   PO475677  33.014  24.562  20.299 -0.1233  0.0587  0.0819
35808POPC   GL175678  32.949  24.494  19.874 -0.1307 -0.5553  0.0194
35808POPC   GL275679  33.169  24.287  19.792  0.0674 -0.0866 -0.2791
35808POPC   C1A75680  33.150  24.712  19.509 -0.0762  0.2398  0.1065
35808POPC   D2A75681  33.591  24.918  19.406 -0.0621  0.2436  0.0500
35808POPC   C3A75682  33.757  25.170  19.064  0.0935  0.0785  0.0032
35808POPC   C4A75683  33.617  25.329  18.691  0.0902 -0.3374  0.2361
35808POPC   C1B75684  33.449  24.196  19.376  0.3976 -0.1868  0.1759
35808POPC   C2B75685  33.555  24.122  18.940 -0.2672 -0.3197  0.0483
35808POPC   C3B75686  33.723  24.084  18.505 -0.3862  0.2660  0.1297
35808POPC   C4B75687  34.079  23.813  18.325 -0.5533  0.1107 -0.0388
35809POPC   NC375688  12.567  26.305  19.142 -0.0957  0.1834  0.0385
35809POPC   PO475689  12.784  26.132  19.433  0.0414  0.1178  0.0277
35809POPC   GL175690  12.841  26.512  19.445 -0.1454  0.0973  0.0052
35809POPC   GL275691  13.089  26.496  19.285  0.0572  0.0330  0.0017
35809POPC   C1A75692  12.808  26.920  19.593 -0.0396 -0.3208  0.0051
35809POPC   D2A75693  12.821  27.344  19.455  0.0339  0.0216 -0.4437
35809POPC   C3A75694  12.703  27.479  19.048  0.1407 -0.0472 -0.3332
35809POPC   C4A75695  12.314  27.703  18.930 -0.0270  0.0463 -0.0455
35809POPC   C1B75696  12.898  26.465  18.856  0.4496  0.1013  0.1326
35809POPC   C2B75697  12.794  26.788  18.538  0.0353 -0.2567  0.2360
35809POPC   C3B75698  12.813  26.702  18.104  0.2047  0.0809 -0.1964
35809POPC   C4B75699  12.904  26.923  17.685  0.0564  0.0055 -0.1076
35810POPC   NC375700   9.258  21.332  14.357  0.0105  0.1802  0.1899
35810POPC   PO475701   8.974  21.574  14.426 -0.0328 -0.1577 -0.1080
35810POPC   GL175702   8.678  21.440  14.136 -0.3950 -0.3509 -0.0673
35810POPC   GL275703   8.826  21.180  14.133  0.0112  0.2029  0.0409
35810POPC   C1A75704   8.314  21.164  14.187  0.0857 -0.0484 -0.0051
35810POPC   D2A75705   7.936  20.962  14.135  0.1771  0.3526 -0.0047
35810POPC   C3A75706   7.657  20.828  14.497 -0.1189 -0.1312  0.4310
35810POPC   C4A75707   7.378  20.529  14.642 -0.1212  0.0859  0.1642
35810POPC   C1B75708   8.776  20.830  13.780 -0.1461  0.0860  0.4185
35810POPC   C2B75709   8.540  20.392  13.733  0.2589 -0.0642  0.2664
35810POPC   C3B75710   8.358  20.077  14.039 -0.1488 -0.1034  0.2051
35810POPC   C4B75711   8.225  19.786  14.358 -0.3135 -0.0307 -0.0465
35811POPC   NC375712   5.262  24.430  19.968  0.1690 -0.1714 -0.0300
35811POPC   PO475713   4.905  24.683  19.977  0.1585 -0.0216  0.1864
35811POPC   GL175714   4.982  25.056  19.793 -0.0953  0.1886 -0.0884
35811POPC   GL275715   4.799  24.980  19.549 -0.1989  0.0654 -0.0665
35811POPC   C1A75716   5.137  25.309  19.448 -0.3403  0.1383  0.1789
35811POPC   D2A75717   4.873  25.321  19.056  0.1554 -0.0556  0.1541
35811POPC   C3A75718   4.859  25.501  18.646  0.0617  0.0722 -0.2489
35811POPC   C4A75719   5.052  25.660  18.219  0.0792  0.1668 -0.2029
35811POPC   C1B75720   4.576  25.381  19.444 -0.0785  0.2713 -0.1256
35811POPC   C2B75721   4.446  25.501  18.994  0.0531  0.0233  0.2236
35811POPC   C3B75722   4.358  25.595  18.587 -0.1464 -0.0472 -0.0392
35811POPC   C4B75723   4.177  26.042  18.394  0.1600  0.1478 -0.3082
35812POPC   NC375724  11.965  24.556  18.041  0.2784 -0.0000 -0.0385
35812POPC   PO475725  12.160  24.326  18.324 -0.2268  0.0536 -0.1216
35812POPC   GL175726  12.568  24.640  18.323 -0.1274  0.0416  0.1530
35812POPC   GL275727  12.506  24.532  18.048 -0.2521 -0.2659  0.1217
35812POPC   C1A75728  13.019  24.580  18.196  0.0553  0.3981 -0.1400
35812POPC   D2A75729  13.332  24.782  17.949  0.3116  0.0964 -0.1029
35812POPC   C3A75730  13.461  24.818  17.533  0.0514 -0.0251 -0.0964
35812POPC   C4A75731  13.605  24.502  17.207 -0.1244  0.0905 -0.1473
35812POPC   C1B75732  12.551  24.566  17.641 -0.1224  0.1292  0.0845
35812POPC   C2B75733  12.623  24.341  17.232  0.1852 -0.0501  0.0737
35812POPC   C3B75734  12.384  24.096  16.971  0.1198 -0.1111  0.2418
35812POPC   C4B75735  12.449  23.727  16.774  0.1186  0.0299 -0.0313
35813POPC   NC375736  11.362  32.428  20.652 -0.4671 -0.1410 -0.1437
35813POPC   PO475737  11.023  32.271  20.484  0.1208 -0.0780 -0.0543
35813POPC   GL175738  11.015  32.109  20.120  0.2969  0.1110 -0.1306
35813POPC   GL275739  11.029  31.812  20.213 -0.0079 -0.1070 -0.0992
35813POPC   C1A75740  10.952  31.977  19.702  0.2820  0.0454 -0.0221
35813POPC   D2A75741  10.663  31.995  19.328  0.0845 -0.0226 -0.1994
35813POPC   C3A75742  10.555  31.662  19.095 -0.4075 -0.1289  0.0001
35813POPC   C4A75743  10.316  31.313  18.791 -0.5107  0.0914 -0.0203
35813POPC   C1B75744  11.002  31.447  19.923 -0.1226 -0.1084 -0.1288
35813POPC   C2B75745  10.949  31.173  19.617  0.1690  0.2336  0.0969
35813POPC   C3B75746  10.926  30.823  19.275 -0.1010 -0.1264 -0.0387
35813POPC   C4B75747  10.959  30.878  18.868 -0.0731  0.3225 -0.0894
35814POPC   NC375748  13.924  27.375  20.537  0.0794 -0.2712 -0.0763
35814POPC   PO475749  14.011  27.796  20.639  0.1700 -0.0419 -0.1937
35814POPC   GL175750  13.952  27.848  20.291 -0.0043 -0.0249  0.1617
35814POPC   GL275751  13.816  28.090  20.266  0.1124 -0.1949  0.0048
35814POPC   C1A75752  14.232  27.906  19.938  0.2353 -0.0437 -0.0339
35814POPC   D2A75753  14.227  28.240  19.596 -0.0602 -0.0054 -0.0193
35814POPC   C3A75754  14.560  28.567  19.684  0.3496  0.0876  0.3550
35814POPC   C4A75755  14.955  28.786  19.592 -0.1285 -0.2836 -0.0407
35814POPC   C1B75756  13.751  28.146  19.812 -0.1215 -0.0279 -0.3989
35814POPC   C2B75757  13.658  28.245  19.395  0.0056  0.3518 -0.1844
35814POPC   C3B75758  13.689  28.329  18.932  0.3332 -0.1295 -0.0369
35814POPC   C4B75759  13.742  28.507  18.518 -0.0521  0.2644 -0.3059
35815POPC   NC375760  14.200  18.593  19.646  0.0357  0.2933  0.1207
35815POPC   PO475761  14.197  18.207  19.573  0.1425  0.0136  0.2293
35815POPC   GL175762  14.442  17.961  19.427  0.0642  0.0987  0.0743
35815POPC   GL275763  14.386  18.083  19.146 -0.0176 -0.1100 -0.1597
35815POPC   C1A75764  14.542  17.638  19.089 -0.2392  0.1427  0.0742
35815POPC   D2A75765  14.456  17.231  18.896  0.0211 -0.0479  0.1712
35815POPC   C3A75766  14.230  17.405  18.605  0.1883  0.2987  0.0933
35815POPC   C4A75767  14.002  17.644  18.362  0.1159  0.1201  0.0375
35815POPC   C1B75768  14.317  17.955  18.770 -0.0001 -0.3076 -0.3214
35815POPC   C2B75769  14.434  17.792  18.321  0.0567  0.3768  0.2483
35815POPC   C3B75770  14.692  17.555  18.006  0.1226 -0.0393  0.1090
35815POPC   C4B75771  14.855  17.172  17.820 -0.3804  0.2458  0.3677
35816POPC   NC375772  12.588  22.425  17.847  0.0700  0.0843  0.1847
35816POPC   PO475773  12.424  22.512  17.466  0.0748  0.0664 -0.0177
35816POPC   GL175774  12.744  22.531  17.192  0.1043 -0.5002 -0.2290
35816POPC   GL275775  12.642  22.261  17.054 -0.2398  0.0289 -0.0605
35816POPC   C1A75776  13.035  22.495  16.840 -0.3304 -0.2676  0.1846
35816POPC   D2A75777  13.353  22.355  16.522  0.0969  0.3539  0.1058
35816POPC   C3A75778  13.768  22.479  16.377  0.1916  0.2266  0.0464
35816POPC   C4A75779  14.234  22.597  16.353  0.3027  0.1139 -0.0967
35816POPC   C1B75780  12.846  22.060  16.669 -0.0420  0.0394  0.1718
35816POPC   C2B75781  12.762  21.831  16.306 -0.0506  0.1768 -0.3031
35816POPC   C3B75782  12.999  21.608  15.981 -0.0206  0.1315  0.1707
35816POPC   C4B75783  13.389  21.640  15.802 -0.2551  0.0120 -0.4019
35817POPC   NC375784  12.833  16.624  20.050 -0.0970 -0.2693  0.0752
35817POPC   PO475785  12.683  16.891  19.850  0.0733  0.0425 -0.0517
35817POPC   GL175786  12.562  16.756  19.426  0.3050  0.0022  0.1276
35817POPC   GL275787  12.701  16.853  19.201  0.0065  0.0211  0.1299
35817POPC   C1A75788  12.165  16.737  19.155 -0.0011 -0.0917 -0.2495
35817POPC   D2A75789  11.793  16.444  19.068 -0.0871 -0.1829 -0.0550
35817POPC   C3A75790  11.628  16.115  18.711 -0.1339 -0.0052 -0.1651
35817POPC   C4A75791  11.523  15.713  18.545  0.2290 -0.2003 -0.0796
35817POPC   C1B75792  12.903  16.983  18.808  0.0606  0.0838  0.2174
35817POPC   C2B75793  13.188  16.970  18.357 -0.3183  0.1055  0.2291
35817POPC   C3B75794  13.363  16.943  17.918 -0.1032 -0.0553 -0.0792
35817POPC   C4B75795  13.216  17.078  17.504 -0.1548  0.4335 -0.0453
35818POPC   NC375796   1.796  31.414  21.092  0.4686  0.1115 -0.1134
35818POPC   PO475797   1.509  31.292  20.820  0.0025 -0.0779 -0.1767
35818POPC   GL175798   1.576  31.401  20.432  0.2722  0.0247  0.4036
35818POPC   GL275799   1.395  31.210  20.280  0.1740  0.1059 -0.0669
35818POPC   C1A75800   1.823  31.146  20.122  0.2120 -0.2773  0.0557
35818POPC   D2A75801   1.780  30.999  19.704 -0.2176  0.1349  0.1198
35818POPC   C3A75802   1.974  30.985  19.306 -0.1287  0.0309  0.2630
35818POPC   C4A75803   2.230  30.677  19.063  0.0787  0.0256  0.1940
35818POPC   C1B75804   1.326  31.042  19.866 -0.0172 -0.0170 -0.2506
35818POPC   C2B75805   1.304  31.067  19.450  0.3246 -0.3082 -0.1023
35818POPC   C3B75806   0.924  31.036  19.100  0.1307  0.1761  0.2393
35818POPC   C4B75807   0.538  30.965  18.833 -0.1101 -0.0578  0.2857
35819POPC   NC375808   7.784  27.134  20.352 -0.2773  0.0379  0.1055
35819POPC   PO475809   8.002  27.060  20.063 -0.0367  0.2668  0.0376
35819POPC   GL175810   8.267  27.131  19.884 -0.1509 -0.1865  0.3030
35819POPC   GL275811   8.383  27.364  19.810  0.1218  0.3434 -0.0239
35819POPC   C1A75812   8.466  26.916  19.486  0.0306  0.0732  0.1251
35819POPC   D2A75813   8.636  26.871  19.020  0.5807 -0.3427  0.2599
35819POPC   C3A75814   8.984  27.269  18.837 -0.0446  0.0000 -0.2487
35819POPC   C4A75815   9.060  27.623  18.608 -0.1282 -0.1653 -0.0661
35819POPC   C1B75816   8.288  27.377  19.359  0.2419 -0.2233  0.0172
35819POPC   C2B75817   8.415  27.393  18.904 -0.0965 -0.0583  0.2537
35819POPC   C3B75818   8.516  27.545  18.454 -0.3543 -0.0350  0.1585
35819POPC   C4B75819   8.439  27.571  17.983 -0.2941 -0.0214  0.1530
35820POPC   NC375820   6.972  18.272  18.918 -0.0080 -0.0508  0.0619
35820POPC   PO475821   6.723  18.457  18.702 -0.3722 -0.0154  0.0849
35820POPC   GL175822   6.716  18.396  18.313 -0.5597 -0.2404  0.1131
35820POPC   GL275823   6.561  18.582  18.081 -0.0958 -0.2722 -0.2306
35820POPC   C1A75824   6.585  18.162  17.915  0.0976  0.0435  0.1213
35820POPC   D2A75825   6.551  18.386  17.457  0.0751  0.2065 -0.0338
35820POPC   C3A75826   6.178  18.648  17.345  0.1070 -0.1790  0.0392
35820POPC   C4A75827   5.852  18.684  16.950 -0.0616 -0.1269 -0.0200
35820POPC   C1B75828   6.519  18.880  17.652 -0.0564  0.1277  0.1197
35820POPC   C2B75829   6.597  19.128  17.231  0.0645  0.1390  0.1334
35820POPC   C3B75830   6.768  19.103  16.797  0.1473 -0.2131 -0.0739
35820POPC   C4B75831   6.664  18.915  16.425 -0.1142  0.0956  0.2477
35821POPC   NC375832   4.869  23.510  19.431  0.0476 -0.0033  0.0305
35821POPC   PO475833   4.658  23.766  19.625 -0.3218 -0.1641 -0.0108
35821POPC   GL175834   4.492  23.742  19.250 -0.3871  0.0681  0.1195
35821POPC   GL275835   4.703  23.843  19.073  0.3062 -0.0573 -0.0821
35821POPC   C1A75836   4.174  23.723  18.903 -0.0459 -0.2232 -0.1426
35821POPC   D2A75837   4.065  23.724  18.464 -0.0518 -0.3302 -0.0599
35821POPC   C3A75838   4.193  23.901  18.027 -0.0780 -0.1777 -0.1128
35821POPC   C4A75839   4.281  24.312  17.728 -0.0687  0.1012  0.0985
35821POPC   C1B75840   4.417  24.191  18.964 -0.2377 -0.0118  0.1859
35821POPC   C2B75841   4.445  24.553  18.665 -0.0224  0.0750  0.2613
35821POPC   C3B75842   4.338  24.758  18.234  0.1413 -0.1690  0.1099
35821POPC   C4B75843   4.457  24.928  17.813  0.0160 -0.4208 -0.0629
35822POPC   NC375844   6.972  26.354  19.900  0.1987 -0.2744 -0.1556
35822POPC   PO475845   7.338  26.368  19.823  0.1089  0.1361  0.2120
35822POPC   GL175846   7.570  26.047  19.448  0.1218  0.1031 -0.1755
35822POPC   GL275847   7.866  26.118  19.325  0.0058 -0.0321  0.1187
35822POPC   C1A75848   7.499  25.772  19.105  0.2121  0.2295  0.2317
35822POPC   D2A75849   7.376  25.417  18.830  0.1361 -0.0046 -0.2892
35822POPC   C3A75850   7.068  25.536  18.510  0.2306  0.0837  0.1810
35822POPC   C4A75851   6.783  25.583  18.185  0.3848 -0.0683 -0.0173
35822POPC   C1B75852   7.786  26.163  18.909 -0.2857 -0.2885 -0.0482
35822POPC   C2B75853   7.748  26.215  18.497  0.1805 -0.0953  0.2047
35822POPC   C3B75854   7.675  26.608  18.234  0.1098 -0.1725 -0.0236
35822POPC   C4B75855   7.578  27.042  18.117 -0.2624 -0.0513  0.0507
35823POPC   NC375856  13.953  17.814  19.391 -0.1348  0.2591 -0.1481
35823POPC   PO475857  13.872  18.120  19.207 -0.1397  0.0289 -0.0170
35823POPC   GL175858  13.762  18.101  18.822 -0.2152  0.1319  0.1971
35823POPC   GL275859  13.479  17.989  18.804 -0.2081  0.0467  0.1725
35823POPC   C1A75860  13.870  18.114  18.301  0.0822 -0.2961 -0.0976
35823POPC   D2A75861  14.060  18.116  17.889  0.0479 -0.1939 -0.0672
35823POPC   C3A75862  13.789  18.096  17.582 -0.0092 -0.0491  0.0282
35823POPC   C4A75863  13.526  17.965  17.233 -0.2431 -0.3364  0.1335
35823POPC   C1B75864  13.369  18.259  18.438 -0.1524  0.1394  0.1946
35823POPC   C2B75865  13.485  18.228  17.968 -0.1457  0.0999  0.0304
35823POPC   C3B75866  13.181  18.108  17.602 -0.2764 -0.0342 -0.0429
35823POPC   C4B75867  12.875  18.005  17.289 -0.3447 -0.0507  0.5432
35824POPC   NC375868  13.447  15.899  20.278 -0.3801  0.4451 -0.2009
35824POPC   PO475869  13.275  15.705  19.967  0.2088 -0.0947 -0.2422
35824POPC   GL175870  13.030  15.610  19.613  0.0527 -0.3005 -0.2200
35824POPC   GL275871  13.108  15.399  19.554  0.0490  0.1329  0.0054
35824POPC   C1A75872  13.022  15.751  19.207  0.0575  0.1984 -0.0159
35824POPC   D2A75873  13.137  15.709  18.731 -0.0640  0.2656 -0.0794
35824POPC   C3A75874  13.552  15.529  18.654 -0.2678  0.0038  0.0160
35824POPC   C4A75875  13.899  15.286  18.452  0.3191 -0.1542  0.0480
35824POPC   C1B75876  13.391  15.320  19.181 -0.0584  0.0515 -0.5332
35824POPC   C2B75877  13.685  15.087  18.967 -0.0823 -0.3162 -0.0202
35824POPC   C3B75878  13.640  14.787  18.652 -0.1705  0.1973 -0.0848
35824POPC   C4B75879  13.840  14.385  18.512 -0.0454  0.1109  0.1192
35825POPC   NC375880   7.945  20.711  16.159 -0.0943 -0.3622 -0.0003
35825POPC   PO475881   7.995  21.086  16.078  0.2446  0.1453 -0.4945
35825POPC   GL175882   7.719  21.056  15.867 -0.0266 -0.1087 -0.3502
35825POPC   GL275883   7.721  21.084  15.545  0.2439  0.1519 -0.0162
35825POPC   C1A75884   7.533  20.687  15.725  0.1195  0.1817  0.1174
35825POPC   D2A75885   7.419  20.254  15.630  0.0586  0.3033  0.2295
35825POPC   C3A75886   7.105  20.155  15.324 -0.0073  0.0544 -0.4162
35825POPC   C4A75887   6.701  20.053  15.117 -0.2637  0.0095 -0.0774
35825POPC   C1B75888   7.645  20.915  15.072 -0.1472  0.2294 -0.4495
35825POPC   C2B75889   7.277  21.002  14.845 -0.2359  0.0641  0.0753
35825POPC   C3B75890   6.993  20.903  14.523 -0.0353  0.1516  0.1998
35825POPC   C4B75891   6.844  21.125  14.076  0.0185  0.4521 -0.1700
35826POPC   NC375892  11.116  22.218  11.362  0.0682 -0.2664  0.1266
35826POPC   PO475893  11.233  21.902  11.484 -0.0803 -0.0336 -0.3832
35826POPC   GL175894  11.639  21.874  11.490  0.0111 -0.2991  0.4748
35826POPC   GL275895  11.830  22.082  11.465  0.0893 -0.0724 -0.5285
35826POPC   C1A75896  12.020  21.665  11.568  0.0416 -0.3315 -0.0474
35826POPC   D2A75897  12.384  21.355  11.551  0.1252 -0.0759  0.0607
35826POPC   C3A75898  12.670  21.413  11.899 -0.2009 -0.0448 -0.2364
35826POPC   C4A75899  12.929  21.634  12.266  0.0416 -0.4892 -0.2091
35826POPC   C1B75900  12.239  22.103  11.431  0.3318 -0.1132  0.0249
35826POPC   C2B75901  12.507  22.411  11.228  0.2078 -0.1777 -0.0001
35826POPC   C3B75902  12.480  22.604  10.775 -0.3327 -0.4461  0.1752
35826POPC   C4B75903  12.545  22.469  10.297 -0.2751 -0.1735  0.1971
35827POPC   NC375904   4.036  31.553  20.960 -0.3686 -0.1248  0.0555
35827POPC   PO475905   4.306  31.612  20.648  0.0791 -0.0828 -0.0992
35827POPC   GL175906   4.168  31.613  20.255 -0.2210  0.2773 -0.2074
35827POPC   GL275907   4.246  31.402  20.148 -0.0029  0.1352 -0.2469
35827POPC   C1A75908   4.280  31.866  19.879 -0.3122  0.0622 -0.0914
35827POPC   D2A75909   4.504  31.932  19.482 -0.0223  0.3094 -0.2346
35827POPC   C3A75910   4.819  31.645  19.196  0.0776 -0.0331 -0.0834
35827POPC   C4A75911   4.937  31.709  18.764 -0.3501  0.1816 -0.1306
35827POPC   C1B75912   3.946  31.522  19.819 -0.2076 -0.1014 -0.0941
35827POPC   C2B75913   3.981  31.768  19.431 -0.0054  0.3359 -0.0745
35827POPC   C3B75914   4.286  31.814  19.032  0.0493 -0.0013 -0.1760
35827POPC   C4B75915   4.481  31.701  18.606  0.2364 -0.0532  0.1192
35828POPC   NC375916  11.080  22.646  13.262 -0.0057  0.0058  0.3937
35828POPC   PO475917  11.059  22.664  13.647  0.4625 -0.0320 -0.3032
35828POPC   GL175918  11.378  22.777  13.613 -0.0796  0.0234 -0.3421
35828POPC   GL275919  11.498  22.475  13.642 -0.2522 -0.1411  0.3420
35828POPC   C1A75920  11.756  23.080  13.525 -0.3647  0.2177  0.0256
35828POPC   D2A75921  12.124  23.067  13.250 -0.1449  0.1083 -0.0276
35828POPC   C3A75922  12.127  23.120  12.816  0.1678  0.3556  0.0225
35828POPC   C4A75923  12.214  23.359  12.403  0.1280  0.1080 -0.1418
35828POPC   C1B75924  11.702  22.235  13.925  0.0845 -0.1709  0.0771
35828POPC   C2B75925  11.812  21.816  14.053  0.2736  0.0443  0.2000
35828POPC   C3B75926  12.002  21.423  14.177  0.2104  0.0862 -0.1317
35828POPC   C4B75927  12.022  21.032  14.431  0.0220  0.0505 -0.0895
35829POPC   NC375928   3.843  32.385  20.765 -0.1715 -0.1079 -0.5003
35829POPC   PO475929   4.011  32.618  20.531  0.1170 -0.1167  0.1224
35829POPC   GL175930   3.973  32.585  20.087 -0.2277 -0.2907  0.3548
35829POPC   GL275931   4.179  32.417  19.999 -0.1069  0.2012  0.1773
35829POPC   C1A75932   3.838  32.814  19.703 -0.0284 -0.2455 -0.0572
35829POPC   D2A75933   3.907  32.660  19.249 -0.0976 -0.1886  0.0088
35829POPC   C3A75934   3.623  32.572  18.918 -0.0395  0.2222  0.2430
35829POPC   C4A75935   3.236  32.574  18.610  0.1152 -0.1048 -0.4418
35829POPC   C1B75936   4.189  32.255  19.588 -0.1125 -0.0697  0.1288
35829POPC   C2B75937   4.320  32.306  19.181 -0.1534  0.2763 -0.4252
35829POPC   C3B75938   4.217  32.425  18.727 -0.0286 -0.0813 -0.3404
35829POPC   C4B75939   3.934  32.556  18.400 -0.2387 -0.2330 -0.1284
35830POPC   NC375940  12.120  25.585  19.394  0.1951 -0.1513  0.0392
35830POPC   PO475941  11.938  25.278  19.307 -0.1973 -0.4403  0.0793
35830POPC   GL175942  11.804  25.553  18.998  0.0439  0.0776 -0.0386
35830POPC   GL275943  12.054  25.375  18.831  0.0492 -0.1359 -0.1362
35830POPC   C1A75944  11.933  25.785  18.626 -0.1565  0.3235  0.0063
35830POPC   D2A75945  12.054  26.015  18.251  0.0016  0.0797  0.0507
35830POPC   C3A75946  11.933  25.994  17.823 -0.3661  0.1663 -0.2642
35830POPC   C4A75947  11.983  25.714  17.462 -0.4113  0.1950 -0.0119
35830POPC   C1B75948  12.410  25.558  18.601 -0.0988 -0.3220  0.0149
35830POPC   C2B75949  12.482  25.847  18.229 -0.2477  0.3928  0.0868
35830POPC   C3B75950  12.446  25.872  17.761 -0.0485 -0.0324  0.0068
35830POPC   C4B75951  12.315  26.258  17.549 -0.4418  0.1995  0.1699
35831POPC   NC375952   3.423  21.601  19.744 -0.3606  0.0910  0.0869
35831POPC   PO475953   3.096  21.532  19.527 -0.4615  0.0539  0.3426
35831POPC   GL175954   2.914  21.553  19.120  0.3172 -0.2875  0.1946
35831POPC   GL275955   3.147  21.631  19.016 -0.2727 -0.0423  0.0569
35831POPC   C1A75956   2.606  21.512  18.759  0.0581 -0.4332 -0.3233
35831POPC   D2A75957   2.344  21.458  18.396  0.0367  0.1388  0.4959
35831POPC   C3A75958   2.172  21.059  18.298 -0.0955 -0.0351 -0.1751
35831POPC   C4A75959   1.991  20.902  17.939  0.0671  0.3160  0.0263
35831POPC   C1B75960   3.301  21.437  18.636 -0.3697 -0.1117 -0.1135
35831POPC   C2B75961   3.454  21.125  18.371 -0.0865 -0.2400  0.2247
35831POPC   C3B75962   3.686  20.776  18.203  0.0888 -0.0132  0.2616
35831POPC   C4B75963   4.139  20.791  18.055  0.0463 -0.1329  0.0522
35832POPC   NC375964   4.371  26.618  20.042 -0.3024  0.1369  0.0416
35832POPC   PO475965   4.257  26.853  20.351 -0.1721 -0.2293  0.1054
35832POPC   GL175966   3.915  27.025  20.091  0.2273 -0.0784  0.1925
35832POPC   GL275967   4.028  27.306  20.088  0.2230 -0.2369  0.0700
35832POPC   C1A75968   3.875  26.904  19.664 -0.2043 -0.2990  0.2611
35832POPC   D2A75969   3.736  27.040  19.237  0.0640  0.0600  0.2639
35832POPC   C3A75970   3.864  27.319  18.824 -0.1849 -0.1092 -0.0295
35832POPC   C4A75971   3.983  27.705  18.637 -0.0638  0.0763 -0.0443
35832POPC   C1B75972   3.798  27.447  19.708 -0.2791  0.1464 -0.1914
35832POPC   C2B75973   3.718  27.576  19.279  0.2525 -0.1542 -0.0562
35832POPC   C3B75974   3.531  27.684  18.872 -0.1225 -0.0951 -0.0108
35832POPC   C4B75975   3.310  27.837  18.521  0.1464 -0.0201  0.0128
35833POPC   NC375976   8.579  27.638  20.208  0.1052 -0.2361 -0.1973
35833POPC   PO475977   8.173  27.521  20.300 -0.1719 -0.0055  0.1736
35833POPC   GL175978   8.157  27.735  19.921  0.1590  0.1839  0.1140
35833POPC   GL275979   8.122  27.995  19.908 -0.0813 -0.1156  0.1002
35833POPC   C1A75980   8.470  27.764  19.572  0.2648 -0.3141  0.4661
35833POPC   D2A75981   8.313  27.876  19.133 -0.0625  0.0372 -0.1328
35833POPC   C3A75982   8.623  27.877  18.758 -0.2834 -0.0161 -0.2013
35833POPC   C4A75983   8.750  27.978  18.326 -0.0346 -0.2406 -0.0709
35833POPC   C1B75984   8.151  28.261  19.507 -0.0720 -0.0702 -0.1538
35833POPC   C2B75985   7.835  28.540  19.318 -0.0046  0.0692 -0.0357
35833POPC   C3B75986   7.592  28.564  18.881  0.1197  0.2803  0.2882
35833POPC   C4B75987   7.320  28.363  18.531  0.1439 -0.2178  0.0230
35834POPC   NC375988  12.729  30.254  20.287  0.4284  0.0868  0.1382
35834POPC   PO475989  12.654  30.598  20.321  0.0278 -0.0625 -0.1767
35834POPC   GL175990  12.662  30.739  19.935 -0.1022 -0.1290  0.0016
35834POPC   GL275991  12.627  31.088  19.855 -0.1553  0.1197  0.2121
35834POPC   C1A75992  12.933  30.666  19.611 -0.0339  0.2720  0.2505
35834POPC   D2A75993  13.150  30.414  19.297  0.1028 -0.1584 -0.0416
35834POPC   C3A75994  13.145  30.584  18.867 -0.2729  0.3517 -0.0911
35834POPC   C4A75995  13.086  30.497  18.414 -0.0006 -0.2397 -0.0829
35834POPC   C1B75996  12.711  31.193  19.419 -0.2503  0.0964 -0.0888
35834POPC   C2B75997  12.726  31.227  18.938  0.2606 -0.1287 -0.0755
35834POPC   C3B75998  12.898  31.518  18.653 -0.1684 -0.3791  0.3369
35834POPC   C4B75999  13.189  31.841  18.496 -0.0776 -0.1779  0.2313
35835POPC   NC376000   5.192  31.378  20.456  0.4593 -0.1924 -0.1125
35835POPC   PO476001   5.532  31.221  20.457  0.3197 -0.1122  0.1734
35835POPC   GL176002   5.603  31.316  20.133  0.2057 -0.1605 -0.0317
35835POPC   GL276003   5.385  31.431  19.956  0.1882  0.0788  0.1850
35835POPC   C1A76004   5.703  31.047  19.801 -0.3487 -0.2298  0.1332
35835POPC   D2A76005   5.712  30.931  19.347  0.1283 -0.0221  0.0869
35835POPC   C3A76006   6.072  30.828  19.066 -0.0493  0.2774  0.0616
35835POPC   C4A76007   6.432  30.546  18.959 -0.2299  0.0902  0.2176
35835POPC   C1B76008   5.260  31.704  19.541  0.5220 -0.0127  0.1465
35835POPC   C2B76009   5.297  31.613  19.109  0.0642 -0.0658 -0.0114
35835POPC   C3B76010   5.484  31.493  18.722 -0.2331  0.0716  0.1338
35835POPC   C4B76011   5.543  31.257  18.322  0.1562 -0.4202 -0.2141
35836POPC   NC376012  10.270  30.167  20.569 -0.2097  0.0257 -0.0117
35836POPC   PO476013  10.588  30.057  20.487  0.0354  0.0830  0.0549
35836POPC   GL176014  10.461  30.034  20.162  0.0911 -0.1326 -0.0465
35836POPC   GL276015  10.213  30.194  19.983  0.1377  0.2698 -0.0091
35836POPC   C1A76016  10.544  29.981  19.685 -0.2874  0.2271  0.0157
35836POPC   D2A76017  10.344  29.910  19.242  0.0974  0.2999 -0.2021
35836POPC   C3A76018  10.214  30.312  19.044 -0.0131  0.1691  0.1140
35836POPC   C4A76019  10.085  30.727  18.900 -0.0767  0.0485  0.1348
35836POPC   C1B76020  10.069  30.087  19.634  0.2551  0.2506  0.0089
35836POPC   C2B76021   9.848  30.070  19.258  0.1892  0.1810  0.1986
35836POPC   C3B76022   9.635  29.959  18.882  0.2692  0.0127  0.2060
35836POPC   C4B76023   9.406  29.997  18.479  0.2046 -0.2040  0.0433
35837POPC   NC376024   0.349  19.496  19.471 -0.4955  0.1111  0.0029
35837POPC   PO476025   0.632  19.501  19.730 -0.1290  0.2485  0.0833
35837POPC   GL176026   0.817  19.629  19.431 -0.0431 -0.1348  0.1669
35837POPC   GL276027   0.744  19.572  19.139  0.2929  0.0162 -0.1541
35837POPC   C1A76028   0.910  20.038  19.167  0.0809 -0.2917  0.0949
35837POPC   D2A76029   1.231  20.185  18.820  0.1673 -0.2303 -0.2355
35837POPC   C3A76030   1.156  19.925  18.451 -0.0143 -0.1120  0.1906
35837POPC   C4A76031   1.354  19.684  18.115  0.1836 -0.0470  0.2698
35837POPC   C1B76032   0.653  19.771  18.750  0.0681 -0.2027 -0.0786
35837POPC   C2B76033   0.694  20.129  18.444 -0.3247 -0.2940  0.0296
35837POPC   C3B76034   0.930  20.227  18.030  0.1974  0.1394 -0.2406
35837POPC   C4B76035   0.877  20.468  17.622  0.0310  0.1758  0.0419
35838POPC   NC376036  14.400  30.619  20.966 -0.0335  0.0288 -0.3741
35838POPC   PO476037  14.387  30.319  20.775 -0.1896 -0.0082 -0.2646
35838POPC   GL176038  14.380  30.505  20.404  0.5154  0.1840 -0.3075
35838POPC   GL276039  14.568  30.721  20.451 -0.2326 -0.2241 -0.1634
35838POPC   C1A76040  14.138  30.401  20.073  0.0979 -0.1467  0.2960
35838POPC   D2A76041  13.896  30.490  19.704  0.0425 -0.0486 -0.0349
35838POPC   C3A76042  14.100  30.457  19.320  0.0016  0.0170 -0.0297
35838POPC   C4A76043  14.020  30.493  18.850  0.0248  0.2370 -0.1115
35838POPC   C1B76044  14.363  30.920  20.063  0.4092 -0.1971  0.5012
35838POPC   C2B76045  14.232  30.839  19.596  0.0659  0.1273 -0.1756
35838POPC   C3B76046  14.081  30.895  19.162  0.2303  0.0717  0.4636
35838POPC   C4B76047  13.887  31.205  18.847  0.1467 -0.1210 -0.2548
35839POPC   NC376048   5.021  18.426  19.810 -0.0313 -0.0363  0.0643
35839POPC   PO476049   4.604  18.447  19.814 -0.0260  0.1785 -0.1145
35839POPC   GL176050   4.485  18.494  19.501 -0.2055 -0.3073 -0.1439
35839POPC   GL276051   4.318  18.719  19.464  0.0657 -0.2150 -0.1084
35839POPC   C1A76052   4.513  18.307  19.126 -0.1172  0.3152  0.2024
35839POPC   D2A76053   4.189  18.093  18.823  0.2398  0.2305 -0.0105
35839POPC   C3A76054   4.078  17.800  18.455  0.1448 -0.2773  0.1627
35839POPC   C4A76055   3.911  17.656  18.088 -0.4331  0.1614 -0.1029
35839POPC   C1B76056   4.172  18.677  19.013  0.1063  0.1151  0.4966
35839POPC   C2B76057   4.084  18.551  18.562  0.0344  0.1071  0.0027
35839POPC   C3B76058   4.156  18.269  18.218  0.3459 -0.1594 -0.0117
35839POPC   C4B76059   4.001  18.031  17.775  0.2071  0.0682  0.0697
35840POPC   NC376060  11.343  30.525  20.012  0.0588 -0.1736  0.0457
35840POPC   PO476061  11.657  30.602  20.218 -0.0504  0.0804  0.1847
35840POPC   GL176062  11.757  30.707  19.884  0.0846 -0.1591  0.1127
35840POPC   GL276063  12.028  30.677  19.856 -0.0164  0.1374  0.0072
35840POPC   C1A76064  11.672  30.482  19.514  0.3671  0.0782 -0.1485
35840POPC   D2A76065  11.764  30.444  19.089  0.0565  0.0106  0.0839
35840POPC   C3A76066  11.413  30.423  18.807 -0.1621 -0.1116 -0.1353
35840POPC   C4A76067  11.222  30.567  18.422  0.0777  0.2435 -0.0153
35840POPC   C1B76068  12.314  30.785  19.561 -0.0904 -0.2881 -0.1144
35840POPC   C2B76069  12.628  30.742  19.191  0.2267  0.1783 -0.0309
35840POPC   C3B76070  12.671  30.828  18.714 -0.2104 -0.0067  0.1685
35840POPC   C4B76071  12.980  31.000  18.392  0.1490  0.0358 -0.3960
35841POPC   NC376072  14.646  17.724  19.777  0.1684  0.1236 -0.1647
35841POPC   PO476073  14.236  17.754  19.838 -0.2551 -0.2364  0.1664
35841POPC   GL176074  14.313  17.535  19.508  0.0081  0.0948 -0.2654
35841POPC   GL276075  14.130  17.360  19.339 -0.0323  0.0193  0.1339
35841POPC   C1A76076  14.654  17.243  19.392  0.0457  0.0817 -0.3118
35841POPC   D2A76077  15.025  17.038  19.332 -0.0539 -0.0261 -0.2263
35841POPC   C3A76078  14.948  17.034  18.884  0.0290 -0.1357  0.1160
35841POPC   C4A76079  14.806  17.331  18.551 -0.1448 -0.1786 -0.2751
35841POPC   C1B76080  13.976  17.078  18.966 -0.0164  0.3660 -0.2842
35841POPC   C2B76081  14.233  16.813  18.685  0.4170  0.1198  0.2396
35841POPC   C3B76082  14.487  16.907  18.291 -0.1081 -0.2905 -0.1062
35841POPC   C4B76083  14.302  17.143  17.972 -0.0985 -0.3551  0.3413
35842POPC   NC376084   4.416  16.027  19.968 -0.3649 -0.1816 -0.0814
35842POPC   PO476085   4.647  16.286  20.201  0.0310  0.2011 -0.0628
35842POPC   GL176086   4.685  16.388  19.834 -0.1227  0.1241 -0.0481
35842POPC   GL276087   4.808  16.182  19.645  0.0297 -0.0966  0.2347
35842POPC   C1A76088   4.491  16.466  19.428  0.0323 -0.1133 -0.1883
35842POPC   D2A76089   4.222  16.365  19.023 -0.1207 -0.1981  0.2061
35842POPC   C3A76090   4.264  16.258  18.527 -0.0826  0.2597  0.0780
35842POPC   C4A76091   4.263  16.334  18.065  0.1880  0.1030  0.1424
35842POPC   C1B76092   4.459  15.945  19.373  0.1271  0.1862  0.1357
35842POPC   C2B76093   4.464  15.759  18.950 -0.1820  0.0630  0.1081
35842POPC   C3B76094   4.336  15.678  18.506 -0.1392 -0.0677  0.1544
35842POPC   C4B76095   4.217  15.821  18.055 -0.1360  0.0412  0.2328
35843POPC   NC376096  14.494  21.668  19.045  0.3723 -0.1599 -0.0322
35843POPC   PO476097  14.858  21.703  19.194 -0.0769  0.2387 -0.0321
35843POPC   GL176098  14.886  21.769  18.770 -0.0336  0.2175 -0.4483
35843POPC   GL276099  14.661  21.592  18.532  0.1470 -0.3053  0.2045
35843POPC   C1A76100  15.263  21.773  18.483 -0.2152  0.2066 -0.0056
35843POPC   D2A76101  15.453  21.846  18.094 -0.0982 -0.0433  0.1902
35843POPC   C3A76102  15.352  21.640  17.688  0.2857  0.2341 -0.0372
35843POPC   C4A76103  15.367  21.616  17.247  0.0586 -0.0939 -0.1405
35843POPC   C1B76104  14.799  22.017  18.366  0.0971  0.2229 -0.4340
35843POPC   C2B76105  15.058  22.183  18.030 -0.0919  0.2089 -0.0888
35843POPC   C3B76106  15.252  22.177  17.620  0.1735 -0.2511 -0.1214
35843POPC   C4B76107  15.437  22.094  17.205  0.0339 -0.4441 -0.1494
35844POPC   NC376108   6.092  19.396  18.342  0.1038  0.2491  0.1104
35844POPC   PO476109   6.309  19.163  18.604  0.1379 -0.0059  0.1652
35844POPC   GL176110   6.246  18.990  18.261  0.1629  0.2447  0.2949
35844POPC   GL276111   5.969  18.849  18.347 -0.1233 -0.1690  0.2901
35844POPC   C1A76112   5.944  18.924  17.874 -0.0408  0.2231 -0.1668
35844POPC   D2A76113   5.561  19.086  17.735  0.2718  0.0326 -0.0961
35844POPC   C3A76114   5.462  19.228  17.318 -0.0672  0.0687  0.2180
35844POPC   C4A76115   5.575  19.122  16.912 -0.2154  0.0314  0.0475
35844POPC   C1B76116   5.553  18.727  18.122 -0.2664  0.1557 -0.0796
35844POPC   C2B76117   5.273  18.719  17.769  0.0339  0.0359  0.0912
35844POPC   C3B76118   4.997  18.879  17.462 -0.0660  0.1450 -0.1719
35844POPC   C4B76119   4.766  18.894  17.075 -0.2115 -0.3013 -0.3120
35845POPC   NC376120   2.997  23.469  19.910  0.0902 -0.5382 -0.0292
35845POPC   PO476121   3.150  23.839  19.903 -0.1041 -0.3623 -0.0159
35845POPC   GL176122   3.205  23.820  19.511  0.1069 -0.0521 -0.2498
35845POPC   GL276123   3.190  23.563  19.352  0.1706  0.0425  0.2225
35845POPC   C1A76124   3.294  24.020  19.075 -0.1451 -0.1250 -0.2688
35845POPC   D2A76125   3.217  23.996  18.630 -0.3623  0.4443  0.0415
35845POPC   C3A76126   3.585  24.211  18.398 -0.4378 -0.2780 -0.0089
35845POPC   C4A76127   4.090  24.289  18.425  0.1934  0.2116 -0.1087
35845POPC   C1B76128   3.242  23.483  18.880  0.0139 -0.1120 -0.1715
35845POPC   C2B76129   3.257  23.462  18.395 -0.2287  0.2981 -0.0739
35845POPC   C3B76130   3.252  23.484  17.960 -0.2231  0.0076  0.2646
35845POPC   C4B76131   3.080  23.689  17.608 -0.1030  0.0023 -0.2242
35846POPC   NC376132   0.889  18.213  20.250  0.2328 -0.0232 -0.1465
35846POPC   PO476133   1.097  17.997  20.002  0.2151  0.2069  0.2184
35846POPC   GL176134   1.115  18.121  19.695  0.2472  0.4671  0.0817
35846POPC   GL276135   1.332  18.097  19.520  0.2257 -0.1882 -0.4920
35846POPC   C1A76136   1.013  18.325  19.229 -0.1656 -0.1554  0.0075
35846POPC   D2A76137   0.839  18.734  19.199  0.1036  0.0255 -0.1723
35846POPC   C3A76138   0.776  18.687  18.737 -0.0181 -0.0038 -0.0351
35846POPC   C4A76139   0.525  18.897  18.395  0.1038 -0.2028  0.0315
35846POPC   C1B76140   1.346  17.979  19.071 -0.3471 -0.0216  0.0611
35846POPC   C2B76141   1.392  17.924  18.629  0.0549 -0.2618 -0.1041
35846POPC   C3B76142   1.651  17.859  18.199 -0.0971  0.2170  0.2281
35846POPC   C4B76143   2.025  17.546  18.007  0.1768 -0.1820 -0.2610
35847POPC   NC376144   9.943  23.525  11.101 -0.0229 -0.0521  0.0705
35847POPC   PO476145   9.640  23.597  11.333  0.2261  0.0880 -0.0322
35847POPC   GL176146   9.322  23.678  11.382 -0.1412 -0.1708  0.0303
35847POPC   GL276147   9.328  23.997  11.327 -0.2128  0.3976  0.1236
35847POPC   C1A76148   9.018  23.791  11.718 -0.3035  0.0862  0.0954
35847POPC   D2A76149   8.834  24.112  12.005 -0.1646  0.0789 -0.1195
35847POPC   C3A76150   8.643  24.415  11.705 -0.0697  0.0769 -0.0795
35847POPC   C4A76151   8.370  24.575  11.344  0.2133  0.2868 -0.1653
35847POPC   C1B76152   8.871  23.974  11.290  0.0059 -0.1698 -0.2254
35847POPC   C2B76153   8.648  24.314  11.073 -0.1511  0.1624  0.3252
35847POPC   C3B76154   8.585  24.572  10.695  0.0010 -0.1969  0.0800
35847POPC   C4B76155   8.201  24.594  10.410 -0.0379 -0.1712  0.1180
35848POPC   NC376156  17.069  19.645  19.671 -0.4676 -0.1207 -0.1409
35848POPC   PO476157  16.913  19.322  19.824 -0.0324  0.3812 -0.0048
35848POPC   GL176158  17.076  19.302  19.438 -0.0773  0.1400  0.0220
35848POPC   GL276159  17.250  19.100  19.538  0.0733  0.3367 -0.2000
35848POPC   C1A76160  16.785  19.254  19.079  0.0868 -0.0151  0.1103
35848POPC   D2A76161  16.727  19.515  18.698  0.4877 -0.4025 -0.1257
35848POPC   C3A76162  16.935  19.153  18.516  0.1098  0.0638 -0.0222
35848POPC   C4A76163  17.025  18.859  18.236 -0.1097  0.0054  0.0596
35848POPC   C1B76164  17.049  18.822  19.213 -0.0190  0.2357  0.2841
35848POPC   C2B76165  16.919  18.599  18.870 -0.0866  0.3006 -0.3164
35848POPC   C3B76166  16.788  18.454  18.450 -0.0803  0.0149 -0.0322
35848POPC   C4B76167  16.503  18.333  18.145  0.1420 -0.2228  0.3768
35849POPC   NC376168   3.184  20.170  19.286 -0.1624 -0.0446  0.1113
35849POPC   PO476169   2.825  20.115  19.502 -0.1859  0.0525  0.0440
35849POPC   GL176170   2.741  20.170  19.128 -0.3836  0.0782  0.1933
35849POPC   GL276171   2.511  20.134  18.879 -0.0488 -0.0408  0.1278
35849POPC   C1A76172   3.075  20.106  18.811 -0.3728 -0.1317  0.1736
35849POPC   D2A76173   3.220  19.914  18.452  0.0271 -0.1756 -0.1068
35849POPC   C3A76174   2.975  19.975  18.084  0.1896 -0.1154  0.3279
35849POPC   C4A76175   2.985  20.387  17.902  0.0154 -0.3136  0.0287
35849POPC   C1B76176   2.663  19.935  18.479 -0.2611 -0.0113  0.1859
35849POPC   C2B76177   2.549  19.669  18.142 -0.2209 -0.2800 -0.0928
35849POPC   C3B76178   2.178  19.433  17.966  0.2174 -0.2288 -0.1632
35849POPC   C4B76179   1.858  19.192  17.784  0.2303 -0.1581  0.1979
35850POPC   NC376180  16.533  22.488  19.543  0.0669 -0.1662  0.1383
35850POPC   PO476181  16.473  22.783  19.810  0.3352  0.1881  0.1698
35850POPC   GL176182  16.418  22.935  19.413  0.1225 -0.0298 -0.2526
35850POPC   GL276183  16.277  22.721  19.198  0.1702  0.0809  0.1431
35850POPC   C1A76184  16.594  23.353  19.263 -0.0093 -0.1349 -0.2496
35850POPC   D2A76185  16.346  23.734  19.120  0.0797 -0.2810  0.3047
35850POPC   C3A76186  16.402  23.851  18.702  0.1068 -0.3776  0.4785
35850POPC   C4A76187  16.492  23.906  18.238 -0.3592 -0.0498 -0.0211
35850POPC   C1B76188  16.409  22.783  18.717  0.0817 -0.2883 -0.1549
35850POPC   C2B76189  16.386  22.877  18.232 -0.1118  0.2627 -0.1017
35850POPC   C3B76190  16.302  22.908  17.822  0.0901  0.0228 -0.2516
35850POPC   C4B76191  16.023  22.903  17.422 -0.0197 -0.1204 -0.0902
35851POPC   NC376192   7.490  26.931  19.956  0.0426 -0.2260  0.0317
35851POPC   PO476193   7.739  26.617  19.979 -0.0576 -0.1021 -0.4262
35851POPC   GL176194   7.766  26.549  19.650 -0.2045 -0.0249  0.5131
35851POPC   GL276195   8.112  26.510  19.544  0.0273 -0.1493 -0.0718
35851POPC   C1A76196   7.569  26.523  19.210 -0.0405 -0.0609 -0.0337
35851POPC   D2A76197   7.648  26.654  18.792  0.1355 -0.0504  0.1824
35851POPC   C3A76198   7.780  27.010  18.563  0.2639  0.0179 -0.1185
35851POPC   C4A76199   7.622  27.412  18.426  0.2053  0.1031  0.0653
35851POPC   C1B76200   8.107  26.491  19.090  0.0233  0.1467 -0.0272
35851POPC   C2B76201   8.079  26.613  18.611 -0.3137  0.2944  0.0011
35851POPC   C3B76202   8.208  26.925  18.287 -0.0267  0.1643 -0.1466
35851POPC   C4B76203   8.484  27.058  17.932  0.1641 -0.0807 -0.1457
35852POPC   NC376204  14.414  24.772  19.488 -0.0062  0.2930 -0.1898
35852POPC   PO476205  14.397  25.164  19.579  0.0053  0.2034  0.1302
35852POPC   GL176206  14.391  25.397  19.311  0.3232  0.1159  0.1346
35852POPC   GL276207  14.610  25.466  19.190  0.0356 -0.1748 -0.0043
35852POPC   C1A76208  14.245  25.416  18.850 -0.1906  0.5628  0.0671
35852POPC   D2A76209  13.930  25.520  18.471 -0.0504  0.3813 -0.0253
35852POPC   C3A76210  14.092  25.513  18.029  0.1322  0.1078 -0.0903
35852POPC   C4A76211  14.366  25.215  17.802  0.1241  0.1399 -0.2079
35852POPC   C1B76212  14.718  25.585  18.686 -0.0309 -0.3210  0.0740
35852POPC   C2B76213  14.841  25.551  18.249  0.0619  0.0283 -0.0222
35852POPC   C3B76214  15.158  25.327  18.062 -0.1018 -0.0186  0.1893
35852POPC   C4B76215  15.318  25.241  17.649  0.0144 -0.1908  0.0130
35853POPC   NC376216  15.171  31.456  20.985  0.0872 -0.1880  0.1522
35853POPC   PO476217  14.956  31.491  20.619 -0.2380  0.2323  0.1041
35853POPC   GL176218  14.875  31.480  20.212 -0.2491 -0.4717 -0.0370
35853POPC   GL276219  15.158  31.447  20.118 -0.4106 -0.0846  0.0196
35853POPC   C1A76220  14.698  31.383  19.801 -0.1763 -0.1480  0.0642
35853POPC   D2A76221  14.916  31.090  19.489  0.2226 -0.0850 -0.1514
35853POPC   C3A76222  14.819  31.050  19.051  0.4491 -0.0926 -0.0326
35853POPC   C4A76223  15.162  31.089  18.731 -0.2291  0.2489  0.6338
35853POPC   C1B76224  14.922  31.044  20.023 -0.0196  0.1142  0.0212
35853POPC   C2B76225  14.780  30.669  19.852  0.0788 -0.1350 -0.2669
35853POPC   C3B76226  14.749  30.630  19.398 -0.2148 -0.0577 -0.0972
35853POPC   C4B76227  14.494  30.624  19.012  0.4241 -0.0302  0.4213
35854POPC   NC376228  11.927  22.981  17.002  0.0216 -0.1345  0.0809
35854POPC   PO476229  12.091  22.973  17.381 -0.2281 -0.3365  0.0287
35854POPC   GL176230  12.400  23.084  17.200  0.1064 -0.1315  0.3584
35854POPC   GL276231  12.249  23.334  17.123 -0.2616 -0.1467 -0.1480
35854POPC   C1A76232  12.738  23.353  17.091  0.0752 -0.1822  0.1598
35854POPC   D2A76233  12.902  23.518  16.662  0.2085  0.0748 -0.1116
35854POPC   C3A76234  13.115  23.453  16.271  0.0892  0.1224 -0.0468
35854POPC   C4A76235  13.430  23.321  16.012 -0.0566 -0.2346 -0.3843
35854POPC   C1B76236  12.239  23.153  16.691  0.1902  0.3897  0.0778
35854POPC   C2B76237  12.538  23.064  16.320 -0.0014 -0.0825 -0.1137
35854POPC   C3B76238  12.933  23.055  16.082 -0.2014  0.4538 -0.2113
35854POPC   C4B76239  13.109  22.928  15.643  0.2038  0.3871 -0.2353
35855POPC   NC376240   5.502  22.123  19.483  0.0354  0.2919  0.0938
35855POPC   PO476241   5.312  22.316  19.265  0.2036 -0.0248 -0.1159
35855POPC   GL176242   5.081  22.316  18.996  0.3063 -0.0512 -0.1944
35855POPC   GL276243   4.892  22.076  19.015 -0.0226 -0.1165 -0.1010
35855POPC   C1A76244   4.984  22.547  18.596 -0.0201 -0.1522  0.2785
35855POPC   D2A76245   4.963  22.755  18.149  0.1304  0.2758  0.2210
35855POPC   C3A76246   4.686  23.115  18.070 -0.2497  0.2238 -0.3558
35855POPC   C4A76247   4.687  23.604  18.090 -0.1263 -0.3655 -0.0377
35855POPC   C1B76248   4.972  21.913  18.601  0.0745 -0.1328  0.1817
35855POPC   C2B76249   4.817  21.825  18.218  0.1066 -0.1620 -0.2837
35855POPC   C3B76250   4.497  21.603  17.915  0.0997  0.0241 -0.0758
35855POPC   C4B76251   4.187  21.566  17.582  0.0637 -0.2713  0.1614
35856POPC   NC376252   5.439  17.639  19.659  0.2326 -0.2228 -0.0289
35856POPC   PO476253   5.577  17.338  19.475  0.0806 -0.0927 -0.1463
35856POPC   GL176254   5.545  17.258  19.073 -0.1031  0.1980 -0.3187
35856POPC   GL276255   5.634  17.455  18.992  0.1545  0.0223  0.4065
35856POPC   C1A76256   5.785  16.993  18.737 -0.0815  0.1397  0.1306
35856POPC   D2A76257   5.733  16.638  18.488  0.2982 -0.0069 -0.1798
35856POPC   C3A76258   5.999  16.565  18.093  0.3679 -0.1339 -0.2144
35856POPC   C4A76259   6.470  16.620  18.002  0.2256 -0.1833  0.2519
35856POPC   C1B76260   5.559  17.390  18.467  0.3531  0.1399 -0.4275
35856POPC   C2B76261   5.858  17.467  18.138 -0.0072 -0.1308 -0.0837
35856POPC   C3B76262   5.817  17.479  17.616  0.1794  0.2455 -0.1041
35856POPC   C4B76263   5.896  17.169  17.225 -0.2733 -0.0173  0.2778
35857POPC   NC376264  15.095  32.242  20.423 -0.0379  0.0893 -0.2146
35857POPC   PO476265  15.214  31.906  20.258  0.1566  0.1217  0.0646
35857POPC   GL176266  15.274  31.957  19.971  0.1588 -0.2222 -0.1278
35857POPC   GL276267  15.437  32.282  20.027  0.0165 -0.1575 -0.1731
35857POPC   C1A76268  15.209  32.069  19.509  0.3751 -0.0872  0.1179
35857POPC   D2A76269  14.986  31.908  19.125  0.3995  0.2470  0.0305
35857POPC   C3A76270  14.793  31.548  19.280 -0.0799 -0.0269  0.0526
35857POPC   C4A76271  14.438  31.291  19.375  0.0060 -0.1172 -0.1245
35857POPC   C1B76272  15.729  32.364  19.616  0.0136  0.0618  0.2587
35857POPC   C2B76273  15.766  32.420  19.145  0.0516 -0.2179  0.0588
35857POPC   C3B76274  16.048  32.469  18.785  0.4093 -0.0736 -0.2661
35857POPC   C4B76275  16.428  32.558  18.565 -0.2895  0.0189  0.0298
35858POPC   NC376276   4.158  30.227  20.786  0.0799 -0.0521  0.0550
35858POPC   PO476277   4.554  30.231  20.820  0.2132  0.1475  0.1560
35858POPC   GL176278   4.444  29.971  20.472 -0.0699 -0.0862 -0.2657
35858POPC   GL276279   4.245  30.173  20.341  0.1514  0.0094  0.3640
35858POPC   C1A76280   4.490  29.913  20.022  0.2017 -0.2888  0.0407
35858POPC   D2A76281   4.302  30.030  19.643  0.0003 -0.1775  0.2854
35858POPC   C3A76282   4.320  30.162  19.223  0.1518  0.0710  0.2466
35858POPC   C4A76283   4.310  30.362  18.776  0.0888 -0.2949  0.0367
35858POPC   C1B76284   4.218  30.404  19.933 -0.1179  0.0490 -0.0453
35858POPC   C2B76285   4.283  30.574  19.492 -0.3836 -0.4041 -0.2514
35858POPC   C3B76286   4.645  30.576  19.201 -0.0928  0.1776  0.2244
35858POPC   C4B76287   4.898  30.291  18.894  0.1966  0.0639  0.1178
35859POPC   NC376288   4.495  16.484  20.672  0.3546  0.0976 -0.0178
35859POPC   PO476289   4.216  16.566  20.417 -0.1219 -0.0536  0.2622
35859POPC   GL176290   4.299  16.704  20.042 -0.1811  0.1032 -0.2568
35859POPC   GL276291   4.204  16.486  19.847  0.1923 -0.2033 -0.2547
35859POPC   C1A76292   4.332  16.942  19.602 -0.0209  0.3478 -0.0474
35859POPC   D2A76293   4.382  16.844  19.121  0.4340 -0.1737 -0.0372
35859POPC   C3A76294   4.210  16.905  18.702 -0.0177 -0.1123 -0.1240
35859POPC   C4A76295   4.233  16.755  18.259  0.3397 -0.0135  0.2648
35859POPC   C1B76296   4.048  16.280  19.521  0.1152  0.0749  0.0635
35859POPC   C2B76297   3.669  16.207  19.186  0.2931  0.0138 -0.4241
35859POPC   C3B76298   3.637  16.016  18.760  0.0384  0.2098 -0.0976
35859POPC   C4B76299   3.856  15.989  18.340 -0.2005  0.2540 -0.2145
35860POPC   NC376300   4.026  28.885  20.692  0.2280 -0.1418  0.2349
35860POPC   PO476301   3.741  28.743  20.966 -0.2430 -0.2684  0.4182
35860POPC   GL176302   3.520  28.712  20.598 -0.1536  0.1201 -0.3173
35860POPC   GL276303   3.523  28.410  20.514  0.1959 -0.0965  0.0860
35860POPC   C1A76304   3.662  28.871  20.179 -0.0166  0.0119  0.1454
35860POPC   D2A76305   3.425  28.926  19.774 -0.0268  0.1858  0.1400
35860POPC   C3A76306   3.204  28.672  19.486  0.1994  0.0332 -0.3424
35860POPC   C4A76307   3.127  28.361  19.155  0.3368 -0.2646  0.3041
35860POPC   C1B76308   3.204  28.511  20.154 -0.0949 -0.0663 -0.0428
35860POPC   C2B76309   2.899  28.444  19.793  0.2340  0.0679  0.2612
35860POPC   C3B76310   2.690  28.166  19.418 -0.0116  0.2590  0.0319
35860POPC   C4B76311   2.767  28.086  18.998  0.3942  0.0809  0.0366
35861POPC   NC376312   5.579  28.080  20.594 -0.1564 -0.1469  0.2184
35861POPC   PO476313   5.468  27.698  20.489  0.0083 -0.0251 -0.0746
35861POPC   GL176314   5.409  27.985  20.102 -0.1367  0.1064  0.6797
35861POPC   GL276315   5.696  27.871  20.108  0.1121 -0.2837 -0.3899
35861POPC   C1A76316   5.257  28.019  19.689  0.3417 -0.2724  0.4361
35861POPC   D2A76317   5.068  28.091  19.244  0.0405 -0.1061  0.1966
35861POPC   C3A76318   5.340  28.088  18.834  0.2232  0.3395  0.0992
35861POPC   C4A76319   5.596  28.057  18.437  0.1428 -0.1901  0.0514
35861POPC   C1B76320   5.703  28.167  19.714 -0.2262  0.0726  0.1445
35861POPC   C2B76321   5.623  28.093  19.272  0.1451  0.1977  0.0065
35861POPC   C3B76322   5.406  28.456  19.204  0.3162 -0.1607 -0.2199
35861POPC   C4B76323   5.436  28.877  19.090  0.2733 -0.0517  0.1186
35862POPC   NC376324   2.381  20.778  19.552 -0.2258 -0.0499  0.0833
35862POPC   PO476325   2.753  20.744  19.509 -0.0574 -0.3736  0.1067
35862POPC   GL176326   2.890  20.827  19.178 -0.3470  0.1768  0.1914
35862POPC   GL276327   3.114  21.047  19.270 -0.0681  0.1697 -0.0739
35862POPC   C1A76328   2.795  20.541  18.818  0.0513 -0.0284  0.0052
35862POPC   D2A76329   2.876  20.357  18.392  0.1150  0.1055 -0.2002
35862POPC   C3A76330   2.534  20.260  18.181  0.2269 -0.1838  0.1323
35862POPC   C4A76331   2.456  20.100  17.738  0.0483  0.3156  0.2593
35862POPC   C1B76332   2.987  21.095  18.830  0.0095 -0.0247 -0.0480
35862POPC   C2B76333   2.957  21.188  18.378 -0.0555  0.2326  0.2182
35862POPC   C3B76334   2.696  21.004  18.145  0.1071 -0.0783 -0.2307
35862POPC   C4B76335   2.597  20.673  17.912 -0.2064 -0.0738 -0.0861
35863POPC   NC376336   9.671  23.481  12.943  0.0693  0.0794  0.3517
35863POPC   PO476337   9.379  23.248  13.096  0.1462  0.4631 -0.0009
35863POPC   GL176338   9.221  23.733  13.010  0.3196  0.2713  0.0993
35863POPC   GL276339   9.391  23.890  13.121  0.2951  0.0630  0.0522
35863POPC   C1A76340   9.155  24.024  12.650 -0.3042  0.0862 -0.0399
35863POPC   D2A76341   9.220  24.196  12.285  0.1821  0.0329 -0.0851
35863POPC   C3A76342   9.691  24.344  12.252  0.0149  0.0227  0.0537
35863POPC   C4A76343   9.976  24.723  12.374 -0.0464 -0.2181  0.2927
35863POPC   C1B76344   9.549  24.111  13.484 -0.0907  0.3214  0.1635
35863POPC   C2B76345   9.547  24.519  13.661  0.1301  0.1529  0.1705
35863POPC   C3B76346   9.439  24.603  14.127 -0.0248 -0.0107  0.0790
35863POPC   C4B76347   9.578  24.661  14.574 -0.2142  0.0228  0.1150
35864POPC   NC376348   8.348  23.053  16.026  0.1350 -0.0410  0.1191
35864POPC   PO476349   8.473  23.089  15.652 -0.0574  0.0260 -0.0993
35864POPC   GL176350   8.219  23.343  15.587 -0.3441 -0.2493 -0.1346
35864POPC   GL276351   8.118  23.269  15.327  0.1227  0.0136 -0.0239
35864POPC   C1A76352   8.108  23.733  15.307 -0.2080  0.0776 -0.1674
35864POPC   D2A76353   7.737  23.775  14.992 -0.0227 -0.1575  0.2255
35864POPC   C3A76354   7.325  23.993  15.051 -0.0240  0.1678 -0.1773
35864POPC   C4A76355   6.985  24.020  15.384 -0.0004  0.0423 -0.0850
35864POPC   C1B76356   7.725  23.515  15.495 -0.1931 -0.1202 -0.0052
35864POPC   C2B76357   7.392  23.808  15.565  0.0158  0.0236 -0.1143
35864POPC   C3B76358   7.082  23.935  15.908  0.1206  0.1144  0.2883
35864POPC   C4B76359   6.913  23.907  16.323 -0.0392  0.0389  0.0392
35865POPC   NC376360  16.093  23.545  20.302 -0.0660  0.1571 -0.1693
35865POPC   PO476361  16.137  23.628  19.949 -0.0990 -0.2714  0.0700
35865POPC   GL176362  16.084  23.636  19.482  0.1756 -0.0161  0.2042
35865POPC   GL276363  16.069  23.392  19.359  0.0335  0.1846 -0.0077
35865POPC   C1A76364  15.830  23.757  19.043  0.1390  0.1906 -0.1490
35865POPC   D2A76365  15.858  23.565  18.656  0.2609 -0.1786  0.1686
35865POPC   C3A76366  15.961  24.067  18.618  0.2285  0.0928  0.1676
35865POPC   C4A76367  16.281  24.393  18.578  0.1042  0.1234 -0.1074
35865POPC   C1B76368  16.199  23.246  18.970  0.0928 -0.1258  0.1588
35865POPC   C2B76369  16.420  23.364  18.584  0.3338 -0.2076  0.3755
35865POPC   C3B76370  16.488  23.383  18.123  0.0618  0.0768  0.1001
35865POPC   C4B76371  16.473  23.365  17.653 -0.0895 -0.1392 -0.2600
35866POPC   NC376372   6.037  24.110  19.551 -0.0199  0.2739  0.0990
35866POPC   PO476373   6.030  23.901  19.227 -0.0565  0.1225  0.0411
35866POPC   GL176374   6.016  24.299  19.098 -0.1349  0.0238 -0.4952
35866POPC   GL276375   6.295  24.401  19.112  0.1949  0.1136 -0.1655
35866POPC   C1A76376   5.831  24.588  18.726 -0.2202  0.1979 -0.0594
35866POPC   D2A76377   5.727  25.002  18.664 -0.1351 -0.0139  0.1223
35866POPC   C3A76378   5.963  25.293  18.417 -0.0178 -0.0666  0.2567
35866POPC   C4A76379   5.870  25.530  18.006  0.2511  0.4425  0.0392
35866POPC   C1B76380   6.302  24.433  18.633  0.0026 -0.0261  0.2004
35866POPC   C2B76381   6.547  24.720  18.342  0.2320  0.1420  0.0697
35866POPC   C3B76382   6.773  24.727  17.961 -0.0222  0.2027  0.1291
35866POPC   C4B76383   7.006  24.924  17.584 -0.0473  0.1069 -0.3357
35867POPC   NC376384  10.023  23.617  16.488 -0.3623 -0.2966  0.0533
35867POPC   PO476385  10.014  23.344  16.192  0.4176 -0.4537  0.0103
35867POPC   GL176386  10.427  23.371  16.120 -0.4395 -0.2237 -0.2345
35867POPC   GL276387  10.439  23.596  16.181  0.5911 -0.0812 -0.1158
35867POPC   C1A76388  10.898  23.422  16.173 -0.3212 -0.1056 -0.4970
35867POPC   D2A76389  11.191  23.783  16.194 -0.0145  0.1113 -0.2916
35867POPC   C3A76390  11.167  24.245  16.212 -0.0280 -0.1296 -0.1276
35867POPC   C4A76391  11.102  24.675  16.245  0.0322  0.2380  0.0458
35867POPC   C1B76392  10.711  23.923  15.991 -0.1169  0.0581 -0.2120
35867POPC   C2B76393  10.954  24.250  15.764 -0.1459  0.2337  0.0635
35867POPC   C3B76394  10.871  24.440  15.303 -0.1936  0.3673 -0.1278
35867POPC   C4B76395  10.934  24.806  15.015  0.0920  0.0130  0.0640
35868POPC   NC376396   6.110  28.432  20.618 -0.0687  0.1797  0.1390
35868POPC   PO476397   5.763  28.573  20.731  0.2195  0.1147  0.2086
35868POPC   GL176398   5.610  28.837  20.464  0.1777  0.0124  0.0689
35868POPC   GL276399   5.870  28.880  20.381 -0.0259  0.0932 -0.1241
35868POPC   C1A76400   5.306  28.843  20.119  0.0640  0.0981  0.1709
35868POPC   D2A76401   5.013  29.088  19.951  0.0266  0.0276 -0.2652
35868POPC   C3A76402   4.959  29.011  19.513  0.2274  0.3027 -0.0921
35868POPC   C4A76403   4.851  28.627  19.244 -0.3750  0.2042  0.1477
35868POPC   C1B76404   5.774  28.779  19.965 -0.1458 -0.0971  0.6506
35868POPC   C2B76405   5.543  29.056  19.622 -0.2160 -0.0436 -0.0459
35868POPC   C3B76406   5.742  29.452  19.399  0.1469  0.0120 -0.2922
35868POPC   C4B76407   5.779  29.918  19.198 -0.1700  0.0249 -0.0505
35869POPC   NC376408  17.638  21.360  19.567  0.0937  0.4631 -0.3885
35869POPC   PO476409  17.371  21.623  19.427 -0.3723 -0.0923  0.1863
35869POPC   GL176410  17.461  21.780  19.077 -0.1243  0.0979 -0.1642
35869POPC   GL276411  17.289  21.774  18.860 -0.3726 -0.1102  0.1232
35869POPC   C1A76412  17.749  21.601  18.764  0.1141 -0.1084 -0.2040
35869POPC   D2A76413  17.795  21.711  18.318 -0.1897 -0.3369  0.4011
35869POPC   C3A76414  17.896  21.615  17.827  0.1048  0.2772  0.2140
35869POPC   C4A76415  18.037  21.607  17.421  0.4687  0.0779  0.1759
35869POPC   C1B76416  17.256  21.749  18.450 -0.1012 -0.0699  0.0573
35869POPC   C2B76417  17.391  21.656  17.989  0.1891  0.1098 -0.3811
35869POPC   C3B76418  17.546  21.347  17.629  0.0454  0.1724 -0.3587
35869POPC   C4B76419  17.908  21.119  17.610 -0.0676  0.0350  0.2377
35870POPC   NC376420  10.617  24.970  19.157 -0.0894  0.0614 -0.0497
35870POPC   PO476421  10.318  25.187  19.036 -0.2825 -0.0060  0.0521
35870POPC   GL176422  10.415  25.327  18.702 -0.0874 -0.0620  0.0473
35870POPC   GL276423  10.358  25.189  18.464  0.1303 -0.2670  0.1169
35870POPC   C1A76424  10.209  25.705  18.512  0.0168  0.3982  0.1823
35870POPC   D2A76425  10.082  26.131  18.367 -0.2691 -0.3474  0.0029
35870POPC   C3A76426   9.821  26.483  18.148 -0.2719  0.1606  0.1397
35870POPC   C4A76427   9.748  26.859  17.790 -0.1329  0.1283  0.1198
35870POPC   C1B76428  10.123  25.398  18.138 -0.2147  0.0688 -0.3575
35870POPC   C2B76429  10.091  25.813  17.972  0.3125  0.0014 -0.0636
35870POPC   C3B76430  10.271  26.226  17.916  0.0049 -0.3246  0.2356
35870POPC   C4B76431  10.244  26.364  17.466 -0.0153 -0.1805 -0.1654
35871POPC   NC376432   2.407  29.323  20.754  0.0374 -0.0909 -0.0096
35871POPC   PO476433   2.344  29.662  21.011  0.2125 -0.0565  0.5121
35871POPC   GL176434   2.300  29.727  20.531  0.3447  0.0939  0.1537
35871POPC   GL276435   2.099  30.015  20.526 -0.4466 -0.1848 -0.0488
35871POPC   C1A76436   2.574  29.856  20.210 -0.1743  0.1673 -0.1304
35871POPC   D2A76437   2.541  29.684  19.782  0.0201  0.3288  0.2522
35871POPC   C3A76438   2.323  29.599  19.382 -0.2409  0.2580  0.0232
35871POPC   C4A76439   2.262  29.446  18.993  0.1476  0.0764 -0.0035
35871POPC   C1B76440   1.848  30.290  20.212 -0.2232  0.0304  0.0609
35871POPC   C2B76441   1.602  30.646  20.034 -0.2953  0.0303 -0.0041
35871POPC   C3B76442   1.271  30.588  19.709  0.1261 -0.1245  0.0301
35871POPC   C4B76443   0.889  30.842  19.590  0.2796 -0.2164  0.3119
35872POPC   NC376444   7.021  25.587  20.104  0.1078  0.1923  0.0269
35872POPC   PO476445   7.220  25.313  19.864  0.2072  0.0795 -0.0019
35872POPC   GL176446   7.213  25.555  19.610  0.3232  0.2169  0.2892
35872POPC   GL276447   7.142  25.474  19.304 -0.2789 -0.2494 -0.0163
35872POPC   C1A76448   7.083  25.975  19.380  0.1088 -0.0132  0.1989
35872POPC   D2A76449   7.175  26.275  19.009  0.1310 -0.1731  0.0511
35872POPC   C3A76450   7.312  26.362  18.586 -0.1712 -0.1159 -0.0280
35872POPC   C4A76451   7.305  26.195  18.146 -0.1206 -0.3143 -0.1670
35872POPC   C1B76452   6.951  25.730  18.956 -0.5128  0.1602  0.1043
35872POPC   C2B76453   6.560  25.970  18.787 -0.0756  0.2239 -0.1471
35872POPC   C3B76454   6.254  26.277  18.544 -0.0196  0.0212 -0.1034
35872POPC   C4B76455   6.224  26.722  18.372  0.0923  0.1657 -0.1877
35873POPC   NC376456  15.041  30.499  20.319  0.1397  0.4219  0.1484
35873POPC   PO476457  14.771  30.235  20.397 -0.3064 -0.1450  0.0763
35873POPC   GL176458  14.952  30.009  20.075 -0.0369  0.2523  0.2661
35873POPC   GL276459  14.840  29.792  19.937  0.0120 -0.1996 -0.0833
35873POPC   C1A76460  15.011  30.121  19.603 -0.0134 -0.0772 -0.0848
35873POPC   D2A76461  15.253  30.233  19.237  0.1389  0.0265  0.0618
35873POPC   C3A76462  14.951  30.201  18.879 -0.0387 -0.2109 -0.0568
35873POPC   C4A76463  14.540  30.202  18.762  0.2976  0.0721  0.1182
35873POPC   C1B76464  14.731  29.738  19.489 -0.0153 -0.0863  0.3204
35873POPC   C2B76465  15.067  29.743  19.093  0.1324 -0.1782 -0.1020
35873POPC   C3B76466  15.262  29.579  18.728  0.0967  0.1156  0.2862
35873POPC   C4B76467  15.077  29.387  18.330 -0.0478  0.0378 -0.0173
35874POPC   NC376468   5.670  25.781  19.845  0.0662 -0.1512 -0.4687
35874POPC   PO476469   5.619  26.163  20.029 -0.4034  0.0242  0.2279
35874POPC   GL176470   5.551  26.476  19.859 -0.1888  0.0936  0.1381
35874POPC   GL276471   5.613  26.403  19.565 -0.0812  0.0471 -0.3220
35874POPC   C1A76472   5.199  26.727  19.700  0.0605 -0.2532  0.0802
35874POPC   D2A76473   4.754  26.549  19.660 -0.0628 -0.0102  0.0783
35874POPC   C3A76474   4.419  26.828  19.554 -0.0403  0.2842 -0.1044
35874POPC   C4A76475   4.251  27.267  19.573  0.0365  0.0041 -0.0134
35874POPC   C1B76476   5.683  26.706  19.189 -0.1218  0.0514 -0.1821
35874POPC   C2B76477   5.542  26.945  18.855  0.0501  0.2362  0.1569
35874POPC   C3B76478   5.118  27.162  18.820  0.0566  0.3780  0.0804
35874POPC   C4B76479   4.786  27.459  18.723  0.0410 -0.3513  0.0204
35875POPC   NC376480  10.637  21.698  13.385 -0.1354 -0.2202 -0.0314
35875POPC   PO476481  10.675  21.806  13.780 -0.1249 -0.1735 -0.2396
35875POPC   GL176482  11.013  21.668  14.013  0.2476 -0.0503 -0.3186
35875POPC   GL276483  11.346  21.832  13.924  0.1269  0.0025 -0.0124
35875POPC   C1A76484  11.073  21.244  13.902 -0.2906 -0.3919  0.0890
35875POPC   D2A76485  10.923  20.912  13.604 -0.1473 -0.3370 -0.0594
35875POPC   C3A76486  11.213  20.831  13.271  0.1440  0.0026 -0.2516
35875POPC   C4A76487  11.613  20.791  13.100  0.0312  0.0068  0.3538
35875POPC   C1B76488  11.638  21.673  13.609  0.2839  0.2412  0.1768
35875POPC   C2B76489  12.050  21.868  13.540 -0.3082  0.2668  0.3811
35875POPC   C3B76490  12.302  22.188  13.752  0.0355 -0.1604  0.0044
35875POPC   C4B76491  12.699  22.302  13.979 -0.1364 -0.0977  0.0549
35876POPC   NC376492  13.639  29.650  20.332  0.1321  0.0380  0.1891
35876POPC   PO476493  13.435  29.896  20.520 -0.1260  0.2897 -0.0323
35876POPC   GL176494  13.192  30.050  20.252  0.3212 -0.1832 -0.2613
35876POPC   GL276495  13.092  29.869  20.084 -0.2810  0.2498  0.1947
35876POPC   C1A76496  13.373  30.141  19.830  0.2383 -0.1169  0.0371
35876POPC   D2A76497  13.238  29.970  19.437  0.3021 -0.3051  0.1662
35876POPC   C3A76498  13.585  30.248  19.198 -0.2927  0.3891  0.0621
35876POPC   C4A76499  13.697  30.118  18.790  0.2420 -0.0274  0.1109
35876POPC   C1B76500  13.379  29.636  19.757 -0.1427 -0.0722  0.4425
35876POPC   C2B76501  13.444  29.249  19.481  0.0397  0.0826 -0.1426
35876POPC   C3B76502  13.598  29.130  19.070 -0.2902 -0.2359  0.2051
35876POPC   C4B76503  13.923  28.917  18.850 -0.0268  0.2392 -0.0359
35877POPC   NC376504   4.353  18.016  20.116 -0.0766  0.0510  0.0506
35877POPC   PO476505   4.535  17.696  19.978 -0.0326  0.3365  0.0305
35877POPC   GL176506   4.633  17.511  19.670 -0.2746 -0.1694  0.0099
35877POPC   GL276507   4.804  17.564  19.490 -0.0243  0.1046  0.1003
35877POPC   C1A76508   4.333  17.473  19.309  0.0100  0.1610 -0.3802
35877POPC   D2A76509   4.224  17.514  18.861 -0.1987  0.0183 -0.4601
35877POPC   C3A76510   4.003  17.310  18.487  0.0674  0.1534  0.2470
35877POPC   C4A76511   3.752  17.061  18.189  0.0443 -0.1592 -0.0778
35877POPC   C1B76512   4.725  17.696  19.081  0.0237  0.0063 -0.0518
35877POPC   C2B76513   4.655  17.798  18.643  0.1313  0.0201 -0.0254
35877POPC   C3B76514   4.435  17.578  18.290  0.0567  0.1828  0.3851
35877POPC   C4B76515   4.265  17.229  18.126  0.0453 -0.1104  0.0379
35878POPC   NC376516   5.934  24.773  19.815 -0.1333 -0.2277  0.1025
35878POPC   PO476517   5.935  24.633  19.447 -0.0525  0.0556 -0.0533
35878POPC   GL176518   5.900  25.009  19.369 -0.0336  0.1948 -0.3400
35878POPC   GL276519   5.688  25.149  19.546 -0.3181  0.3059  0.0663
35878POPC   C1A76520   6.057  25.217  19.011  0.0494  0.0126 -0.1183
35878POPC   D2A76521   6.246  25.586  18.880 -0.0736  0.0830 -0.3598
35878POPC   C3A76522   6.191  25.704  18.491  0.1432 -0.0886 -0.2985
35878POPC   C4A76523   6.066  26.000  18.180  0.0153 -0.1735 -0.0290
35878POPC   C1B76524   5.525  25.212  19.143  0.1906 -0.0572 -0.0541
35878POPC   C2B76525   5.291  25.304  18.756 -0.1300 -0.2173 -0.0874
35878POPC   C3B76526   5.096  25.159  18.382 -0.1439  0.0005  0.2001
35878POPC   C4B76527   5.105  24.955  17.944  0.4009  0.2259 -0.2613
35879POPC   NC376528   2.715  24.128  20.193  0.0462 -0.1776  0.3154
35879POPC   PO476529   2.827  23.768  20.277  0.2213  0.0874 -0.1032
35879POPC   GL176530   2.681  23.811  19.845 -0.1447 -0.4395 -0.1512
35879POPC   GL276531   2.776  24.067  19.689 -0.2403  0.2942 -0.1209
35879POPC   C1A76532   2.632  23.544  19.461  0.1918 -0.0060  0.3922
35879POPC   D2A76533   2.452  23.237  19.150 -0.0004  0.2407  0.2479
35879POPC   C3A76534   2.343  23.153  18.710  0.1159 -0.3085 -0.2932
35879POPC   C4A76535   2.230  23.259  18.285  0.0037 -0.2216 -0.0531
35879POPC   C1B76536   2.870  23.978  19.256  0.0517  0.0745  0.2782
35879POPC   C2B76537   2.784  24.064  18.847  0.2261 -0.0335  0.3620
35879POPC   C3B76538   2.864  24.224  18.402 -0.1061  0.0670 -0.0414
35879POPC   C4B76539   2.797  24.543  18.106  0.1220  0.4746  0.0695
35880POPC   NC376540   9.020  16.426  19.469 -0.0420 -0.0195 -0.4795
35880POPC   PO476541   8.784  16.728  19.395 -0.1991 -0.2162 -0.0216
35880POPC   GL176542   8.931  16.561  19.075  0.2152 -0.0011 -0.2423
35880POPC   GL276543   8.764  16.638  18.848  0.4490  0.1853  0.1932
35880POPC   C1A76544   9.314  16.485  18.786 -0.0638  0.1151 -0.0062
35880POPC   D2A76545   9.591  16.380  18.396  0.2582 -0.0004  0.2430
35880POPC   C3A76546   9.363  16.194  18.007 -0.3359 -0.2023 -0.1231
35880POPC   C4A76547   9.307  16.070  17.575 -0.0294 -0.0444  0.1508
35880POPC   C1B76548   8.716  16.932  18.467  0.1309  0.0524 -0.1628
35880POPC   C2B76549   8.659  16.777  18.073 -0.3446  0.1242 -0.0822
35880POPC   C3B76550   8.646  16.364  17.910  0.1722 -0.0971 -0.0367
35880POPC   C4B76551   8.632  15.937  17.813 -0.1650  0.1163  0.2197
35881POPC   NC376552  10.016  18.319  18.799 -0.1534 -0.3798  0.1555
35881POPC   PO476553   9.610  18.287  18.871  0.2389 -0.2022 -0.0543
35881POPC   GL176554   9.423  17.965  18.570 -0.1323  0.1068  0.1310
35881POPC   GL276555   9.226  17.999  18.343 -0.0781 -0.1852 -0.2230
35881POPC   C1A76556   9.484  17.494  18.408 -0.0813 -0.4839  0.0107
35881POPC   D2A76557   9.395  17.270  18.002 -0.0169 -0.3308  0.1040
35881POPC   C3A76558   8.957  17.126  17.974 -0.1941 -0.0851  0.0649
35881POPC   C4A76559   8.544  17.232  17.904 -0.0945  0.0030  0.3036
35881POPC   C1B76560   9.004  17.691  18.004 -0.2860 -0.1764 -0.1092
35881POPC   C2B76561   9.087  17.517  17.583 -0.1209 -0.2613  0.2961
35881POPC   C3B76562   8.871  17.305  17.169  0.0584 -0.1927  0.0458
35881POPC   C4B76563   9.138  17.056  16.829  0.0545  0.2607 -0.1831
35882POPC   NC376564   8.675  19.733  17.345 -0.3535  0.2018  0.1261
35882POPC   PO476565   8.442  19.995  17.223  0.3998  0.1931  0.3695
35882POPC   GL176566   8.124  19.916  16.847 -0.2493 -0.2397  0.2632
35882POPC   GL276567   8.254  19.946  16.563  0.0429 -0.0228 -0.1305
35882POPC   C1A76568   7.917  19.549  16.615 -0.0108  0.5076 -0.1014
35882POPC   D2A76569   7.681  19.106  16.666 -0.1692 -0.0881 -0.1070
35882POPC   C3A76570   7.876  18.732  16.459  0.0264  0.2637  0.3571
35882POPC   C4A76571   7.919  18.314  16.212 -0.1267  0.0079  0.1812
35882POPC   C1B76572   8.304  19.560  16.314  0.0693  0.1613 -0.0431
35882POPC   C2B76573   8.368  19.162  16.181 -0.0121  0.1778  0.1727
35882POPC   C3B76574   8.553  18.726  16.011 -0.0867  0.0312  0.0523
35882POPC   C4B76575   8.921  18.639  15.802 -0.0817 -0.1750 -0.2707
35883POPC   NC376576  13.751  31.500  20.713 -0.2175  0.2049 -0.0696
35883POPC   PO476577  14.131  31.504  20.584 -0.0927  0.0338  0.1331
35883POPC   GL176578  14.152  31.370  20.247 -0.0368  0.0327 -0.1690
35883POPC   GL276579  13.993  31.089  20.275  0.2319  0.0369 -0.0641
35883POPC   C1A76580  14.134  31.353  19.821 -0.2250  0.0237 -0.1997
35883POPC   D2A76581  13.855  31.122  19.572 -0.0549  0.2755 -0.3077
35883POPC   C3A76582  13.546  31.207  19.310  0.0906  0.0525  0.1957
35883POPC   C4A76583  13.119  30.985  19.302  0.0220  0.1312 -0.1131
35883POPC   C1B76584  13.585  31.339  20.032 -0.2970  0.2451  0.0575
35883POPC   C2B76585  13.263  31.339  19.676  0.0677 -0.0931  0.0884
35883POPC   C3B76586  13.070  31.485  19.241  0.1247  0.1345  0.0811
35883POPC   C4B76587  12.701  31.723  19.100 -0.1099 -0.1088  0.1792
35884POPC   NC376588   6.648  21.916  17.738  0.0632 -0.3194 -0.0222
35884POPC   PO476589   6.753  21.613  17.975  0.0178 -0.2216  0.0182
35884POPC   GL176590   6.512  21.383  17.681 -0.4382 -0.3377 -0.1183
35884POPC   GL276591   6.391  21.589  17.461  0.3477 -0.1109  0.1751
35884POPC   C1A76592   6.209  21.109  17.440 -0.1143 -0.0645 -0.2150
35884POPC   D2A76593   6.084  20.784  17.160  0.1558  0.3750  0.0014
35884POPC   C3A76594   5.724  20.793  16.874  0.2962  0.3486 -0.0866
35884POPC   C4A76595   5.426  20.940  16.550 -0.2471 -0.1716  0.0950
35884POPC   C1B76596   6.106  21.948  17.428  0.0326 -0.2459  0.0274
35884POPC   C2B76597   5.655  21.954  17.436  0.1368 -0.2564 -0.3863
35884POPC   C3B76598   5.179  21.882  17.313 -0.1058 -0.1319  0.3236
35884POPC   C4B76599   4.809  21.847  17.089 -0.4235  0.0641 -0.1382
35885POPC   NC376600  10.690  22.886  13.903 -0.0814  0.0248  0.1193
35885POPC   PO476601  10.941  23.194  13.946 -0.1513 -0.0268  0.0877
35885POPC   GL176602  10.999  23.325  13.655 -0.1102 -0.3304 -0.2297
35885POPC   GL276603  10.769  23.607  13.675  0.3191 -0.2149 -0.0701
35885POPC   C1A76604  11.255  23.277  13.262 -0.1403 -0.0825 -0.0244
35885POPC   D2A76605  11.512  22.908  13.046 -0.2349  0.0313 -0.1366
35885POPC   C3A76606  11.937  22.678  13.000 -0.1872  0.0434  0.0068
35885POPC   C4A76607  12.271  22.450  13.204  0.0950 -0.0159  0.3122
35885POPC   C1B76608  11.157  23.760  13.502  0.1695 -0.0444 -0.3882
35885POPC   C2B76609  11.310  23.878  13.067  0.0847  0.3899 -0.2895
35885POPC   C3B76610  11.685  23.847  12.816  0.1032 -0.0067 -0.4214
35885POPC   C4B76611  12.018  24.138  12.899 -0.3080 -0.1190  0.1550
35886POPC   NC376612  16.417  26.694  20.531  0.0483  0.1920  0.0822
35886POPC   PO476613  16.752  26.515  20.519 -0.3312  0.0592  0.1749
35886POPC   GL176614  16.512  26.505  20.148 -0.2369 -0.1000  0.0546
35886POPC   GL276615  16.642  26.313  19.912  0.0435  0.0244 -0.4570
35886POPC   C1A76616  16.490  26.739  19.737  0.0986 -0.0823 -0.3055
35886POPC   D2A76617  16.166  26.646  19.392  0.1958 -0.0506 -0.1226
35886POPC   C3A76618  16.077  26.762  18.940  0.4133 -0.0946 -0.0708
35886POPC   C4A76619  15.872  26.846  18.512  0.2550  0.1695  0.2244
35886POPC   C1B76620  16.533  26.242  19.479  0.0011  0.1333  0.0419
35886POPC   C2B76621  16.780  26.339  19.083  0.2059  0.3177 -0.1866
35886POPC   C3B76622  16.577  26.513  18.709  0.1102 -0.0167  0.0418
35886POPC   C4B76623  16.808  26.618  18.280  0.0913  0.0945 -0.1381
35887POPC   NC376624  15.857  24.508  19.634  0.0239  0.0465  0.0222
35887POPC   PO476625  16.206  24.670  19.583 -0.2953  0.1916  0.0976
35887POPC   GL176626  16.321  24.477  19.200  0.1859  0.1673  0.0404
35887POPC   GL276627  15.985  24.504  19.120 -0.0189 -0.1530 -0.0641
35887POPC   C1A76628  16.502  24.724  18.831 -0.1035 -0.0364 -0.0319
35887POPC   D2A76629  16.478  24.949  18.455 -0.0669  0.2502  0.2811
35887POPC   C3A76630  16.298  24.716  18.142  0.2758 -0.0785  0.2386
35887POPC   C4A76631  15.962  24.632  17.854  0.0233  0.0286 -0.0094
35887POPC   C1B76632  15.969  24.764  18.740 -0.1579  0.1265  0.0146
35887POPC   C2B76633  15.965  25.007  18.400  0.0107  0.1227  0.1639
35887POPC   C3B76634  16.173  25.422  18.327 -0.0951 -0.0490 -0.1508
35887POPC   C4B76635  16.137  25.812  18.106  0.2710 -0.0218 -0.2540
35888POPC   NC376636  10.913  22.576  15.544  0.1070 -0.2068 -0.1822
35888POPC   PO476637  11.273  22.786  15.504 -0.2523 -0.1888  0.2368
35888POPC   GL176638  11.710  22.801  15.458 -0.2872  0.1987 -0.2798
35888POPC   GL276639  11.740  22.781  15.161 -0.1141 -0.0613  0.3877
35888POPC   C1A76640  12.008  23.071  15.578  0.4258 -0.1141 -0.0155
35888POPC   D2A76641  12.441  23.314  15.527  0.0287 -0.0296  0.0269
35888POPC   C3A76642  12.797  23.070  15.278 -0.3234 -0.0066 -0.0214
35888POPC   C4A76643  13.266  23.078  15.152  0.2629 -0.2331 -0.3008
35888POPC   C1B76644  11.931  23.181  15.125  0.2247 -0.1025 -0.1203
35888POPC   C2B76645  12.094  23.580  15.289 -0.3204 -0.0943 -0.3250
35888POPC   C3B76646  12.439  23.846  15.506 -0.1544  0.0406 -0.1471
35888POPC   C4B76647  12.803  23.913  15.779 -0.1752 -0.3299 -0.1711
35889POPC   NC376648  15.528  29.814  20.965  0.1790 -0.0675 -0.0968
35889POPC   PO476649  15.380  29.461  20.811 -0.0052  0.0282  0.1802
35889POPC   GL176650  15.301  29.322  20.503 -0.3786 -0.4610 -0.3164
35889POPC   GL276651  15.420  29.062  20.377 -0.1266 -0.0254 -0.1564
35889POPC   C1A76652  15.183  29.397  20.059 -0.1708  0.0202  0.3059
35889POPC   D2A76653  15.258  29.293  19.631 -0.2550 -0.4362 -0.0423
35889POPC   C3A76654  14.985  29.275  19.277 -0.2395 -0.0170 -0.0914
35889POPC   C4A76655  14.774  29.133  18.900 -0.1217 -0.1792  0.0617
35889POPC   C1B76656  15.639  29.220  19.991  0.2964  0.1408  0.0507
35889POPC   C2B76657  15.847  29.351  19.616 -0.2160  0.1026 -0.1855
35889POPC   C3B76658  16.007  29.458  19.126 -0.1790  0.1297 -0.0422
35889POPC   C4B76659  16.090  29.790  18.798  0.3279 -0.1734  0.0070
35890POPC   NC376660   7.673  22.380  16.759  0.1043  0.0461 -0.1901
35890POPC   PO476661   7.974  22.235  16.539 -0.1268  0.0620  0.1142
35890POPC   GL176662   7.695  22.321  16.269 -0.1035 -0.2474  0.1131
35890POPC   GL276663   7.515  22.117  16.393 -0.0474  0.1640 -0.0315
35890POPC   C1A76664   7.281  22.506  16.084  0.0681  0.3002  0.0317
35890POPC   D2A76665   6.976  22.449  15.708 -0.0150 -0.1652 -0.2444
35890POPC   C3A76666   6.537  22.636  15.727  0.0199 -0.0517 -0.2777
35890POPC   C4A76667   6.080  22.669  15.795 -0.1682 -0.1950  0.0852
35890POPC   C1B76668   7.300  21.811  16.061  0.2322  0.0587  0.1177
35890POPC   C2B76669   7.430  21.574  15.641  0.2099 -0.2698  0.1958
35890POPC   C3B76670   7.296  21.285  15.310 -0.1762  0.0236 -0.0428
35890POPC   C4B76671   7.030  21.429  14.934  0.2945 -0.1957 -0.2936
35891POPC   NC376672  12.956  27.122  20.486  0.1553  0.1715  0.0930
35891POPC   PO476673  13.216  27.352  20.264  0.1511 -0.3240 -0.2207
35891POPC   GL176674  13.304  27.536  19.902  0.1026  0.0709 -0.2268
35891POPC   GL276675  13.540  27.744  20.062  0.0084  0.2743 -0.0015
35891POPC   C1A76676  13.308  27.514  19.428 -0.0341 -0.0881  0.2653
35891POPC   D2A76677  13.260  27.525  18.933 -0.0600 -0.1034 -0.2861
35891POPC   C3A76678  13.353  27.513  18.472  0.0917  0.0186  0.0869
35891POPC   C4A76679  13.374  27.775  18.077  0.0028 -0.1602 -0.1277
35891POPC   C1B76680  13.300  27.959  19.686  0.2512 -0.0263 -0.3415
35891POPC   C2B76681  13.271  27.990  19.245 -0.1023  0.0632 -0.2380
35891POPC   C3B76682  13.353  28.017  18.768 -0.0510 -0.4667 -0.2149
35891POPC   C4B76683  13.282  28.190  18.308  0.0520 -0.1502 -0.1090
35892POPC   NC376684   9.161  23.590  16.107 -0.0112  0.0457 -0.1335
35892POPC   PO476685   8.798  23.348  16.137 -0.1743 -0.0503 -0.0997
35892POPC   GL176686   8.749  23.613  15.882 -0.1171 -0.1054 -0.4158
35892POPC   GL276687   8.419  23.658  15.901  0.1234  0.0684  0.0438
35892POPC   C1A76688   8.920  23.970  15.595  0.2792  0.0841 -0.0874
35892POPC   D2A76689   8.834  24.180  15.199 -0.1685 -0.0129 -0.0186
35892POPC   C3A76690   8.441  24.154  15.300 -0.1055 -0.4639 -0.0518
35892POPC   C4A76691   7.991  24.218  15.263  0.2521 -0.2138  0.1240
35892POPC   C1B76692   8.225  24.008  15.696 -0.0908  0.2012 -0.0945
35892POPC   C2B76693   8.183  24.414  15.746  0.2033 -0.2735  0.1600
35892POPC   C3B76694   8.023  24.831  15.836  0.0217 -0.2413 -0.1013
35892POPC   C4B76695   7.857  25.223  15.709  0.1073  0.4939  0.3814
35893POPC   NC376696  10.145  29.114  20.369  0.3536  0.2629  0.0521
35893POPC   PO476697  10.527  29.186  20.405 -0.0736  0.1695 -0.0763
35893POPC   GL176698  10.487  29.207  20.079 -0.4776  0.1658 -0.2278
35893POPC   GL276699  10.625  29.251  19.799  0.1945  0.1032 -0.2957
35893POPC   C1A76700  10.161  29.114  19.828 -0.2635  0.3244 -0.4525
35893POPC   D2A76701   9.919  28.992  19.443 -0.1774  0.3105  0.2660
35893POPC   C3A76702   9.715  29.051  19.089  0.0371  0.3556  0.0997
35893POPC   C4A76703   9.284  28.968  18.817 -0.1734 -0.0955  0.1479
35893POPC   C1B76704  10.824  29.050  19.478 -0.0979 -0.1021  0.0374
35893POPC   C2B76705  10.985  28.934  19.062 -0.2630 -0.2030 -0.0173
35893POPC   C3B76706  10.910  29.035  18.599  0.0722 -0.0735 -0.0142
35893POPC   C4B76707  10.948  28.885  18.143  0.1442  0.0261 -0.1385
35894POPC   NC376708  17.113  23.353  20.277 -0.2819 -0.1560 -0.0429
35894POPC   PO476709  17.139  23.746  20.319 -0.0483  0.1380 -0.3624
35894POPC   GL176710  17.350  23.701  20.016 -0.2881 -0.4631 -0.0532
35894POPC   GL276711  17.524  23.477  20.043  0.3263  0.0018 -0.0726
35894POPC   C1A76712  17.478  24.021  19.693 -0.1242  0.2798 -0.1083
35894POPC   D2A76713  17.807  24.054  19.352  0.0178 -0.0104 -0.1091
35894POPC   C3A76714  17.772  23.912  18.943 -0.0377 -0.1891 -0.1872
35894POPC   C4A76715  17.609  23.949  18.520  0.4853 -0.3277 -0.1273
35894POPC   C1B76716  17.815  23.679  19.782  0.0101 -0.0491  0.0775
35894POPC   C2B76717  17.866  23.550  19.356  0.2102  0.4474  0.1771
35894POPC   C3B76718  17.794  23.448  18.894  0.0083 -0.1866 -0.0522
35894POPC   C4B76719  17.823  23.509  18.458  0.0251  0.0295  0.1697
35895POPC   NC376720  11.382  31.499  20.319  0.1084  0.1473 -0.1712
35895POPC   PO476721  11.223  31.291  20.613  0.1975  0.0581  0.1192
35895POPC   GL176722  11.074  31.043  20.321  0.0813 -0.2980 -0.3557
35895POPC   GL276723  11.300  31.017  20.155 -0.0925 -0.0362  0.0343
35895POPC   C1A76724  10.891  30.810  19.999 -0.2243  0.0510 -0.0310
35895POPC   D2A76725  10.970  30.489  19.730 -0.0140 -0.2659 -0.2332
35895POPC   C3A76726  11.221  30.359  19.345 -0.1269 -0.0153 -0.1242
35895POPC   C4A76727  11.390  29.993  19.130 -0.0246 -0.0510 -0.0183
35895POPC   C1B76728  11.339  30.878  19.682 -0.2012 -0.5040  0.0858
35895POPC   C2B76729  11.431  30.827  19.225  0.0878  0.1719  0.0250
35895POPC   C3B76730  11.596  30.886  18.747 -0.1624  0.4188  0.1574
35895POPC   C4B76731  11.638  30.796  18.291 -0.1656 -0.2458 -0.1710
35896POPC   NC376732   4.180  19.221  19.167  0.1120  0.1857 -0.4153
35896POPC   PO476733   4.572  19.193  19.354  0.0228 -0.0669  0.0204
35896POPC   GL176734   4.552  18.925  19.033 -0.1896  0.0150 -0.0592
35896POPC   GL276735   4.821  18.724  18.968  0.3554  0.0239  0.0736
35896POPC   C1A76736   4.378  18.928  18.600 -0.2673  0.1710 -0.0837
35896POPC   D2A76737   4.146  19.103  18.247 -0.1756  0.0453 -0.1006
35896POPC   C3A76738   4.092  19.177  17.776  0.1924 -0.0029 -0.2624
35896POPC   C4A76739   4.040  19.061  17.294 -0.1315 -0.1210 -0.0273
35896POPC   C1B76740   4.609  18.470  18.651  0.1289 -0.0705 -0.0029
35896POPC   C2B76741   4.633  18.388  18.232 -0.0777  0.2480 -0.0288
35896POPC   C3B76742   4.612  18.079  17.931 -0.1732  0.1410 -0.0121
35896POPC   C4B76743   4.811  17.924  17.553 -0.2154  0.1359  0.0313
35897POPC   NC376744  10.277  22.998  15.842 -0.0463  0.0691  0.0368
35897POPC   PO476745  10.390  23.304  15.641 -0.3133 -0.3112 -0.0356
35897POPC   GL176746  10.682  23.552  15.739  0.5260  0.0199  0.0057
35897POPC   GL276747  10.895  23.781  15.553 -0.3309  0.1196  0.1041
35897POPC   C1A76748  11.138  23.385  15.701 -0.2783  0.0985 -0.1195
35897POPC   D2A76749  11.471  23.279  15.333 -0.2202  0.4103 -0.1704
35897POPC   C3A76750  11.584  23.644  15.053 -0.3041  0.2116 -0.1696
35897POPC   C4A76751  11.860  23.927  14.723 -0.2720 -0.0547  0.1457
35897POPC   C1B76752  10.473  23.926  15.568 -0.0232  0.1445  0.2879
35897POPC   C2B76753  10.105  24.110  15.609 -0.2202 -0.3783 -0.0078
35897POPC   C3B76754   9.750  24.395  15.548 -0.2716  0.2820 -0.0707
35897POPC   C4B76755   9.474  24.777  15.691 -0.0155  0.2727  0.0300
35898POPC   NC376756   9.281  18.797  18.104 -0.2954 -0.2043  0.1333
35898POPC   PO476757   9.653  18.955  18.090  0.1999 -0.0315 -0.1802
35898POPC   GL176758   9.995  18.964  17.787  0.0563  0.2989 -0.0255
35898POPC   GL276759  10.237  18.887  17.722  0.0316 -0.1934  0.3458
35898POPC   C1A76760  10.052  19.135  17.313  0.2223  0.1370  0.0450
35898POPC   D2A76761   9.841  19.109  16.955 -0.0897 -0.1091  0.2985
35898POPC   C3A76762  10.044  18.799  16.654 -0.0286  0.1679 -0.0120
35898POPC   C4A76763  10.117  18.462  16.352  0.0231 -0.1151 -0.0613
35898POPC   C1B76764  10.092  18.454  17.580  0.2590  0.0599  0.0089
35898POPC   C2B76765   9.884  18.109  17.411 -0.1773 -0.0655 -0.2246
35898POPC   C3B76766  10.111  17.713  17.260  0.2619 -0.0843 -0.0037
35898POPC   C4B76767  10.047  17.246  17.099 -0.2122 -0.0520  0.0364
35899POPC   NC376768  14.419  14.794  20.447 -0.0290 -0.2172  0.0769
35899POPC   PO476769  14.799  14.866  20.381 -0.2118 -0.0963  0.1924
35899POPC   GL176770  14.665  14.834  19.980  0.3038 -0.1787 -0.3929
35899POPC   GL276771  14.389  14.812  19.975 -0.1520 -0.0991  0.0275
35899POPC   C1A76772  14.730  14.731  19.559  0.1208 -0.0339  0.4311
35899POPC   D2A76773  14.545  14.518  19.184  0.2618 -0.0922 -0.1212
35899POPC   C3A76774  14.669  14.666  18.793 -0.2202  0.0010  0.1523
35899POPC   C4A76775  14.420  14.516  18.499 -0.0379 -0.2759 -0.2107
35899POPC   C1B76776  14.432  15.137  19.619  0.0600 -0.0228 -0.2615
35899POPC   C2B76777  14.577  15.043  19.201 -0.0692 -0.0151  0.2472
35899POPC   C3B76778  14.633  15.350  18.883 -0.1419 -0.0538  0.0135
35899POPC   C4B76779  14.718  15.834  18.761 -0.1009 -0.1674  0.1921
35900POPC   NC376780  13.446  26.042  19.969  0.2245 -0.0397  0.0909
35900POPC   PO476781  13.055  26.097  20.036  0.0118 -0.0904  0.0175
35900POPC   GL176782  13.158  26.361  19.764 -0.3436 -0.1161  0.0654
35900POPC   GL276783  13.231  26.615  19.758  0.0997  0.2152 -0.0236
35900POPC   C1A76784  13.572  26.274  19.510  0.1398  0.1018 -0.1732
35900POPC   D2A76785  13.732  26.371  19.086 -0.6748  0.1038 -0.2433
35900POPC   C3A76786  13.439  26.634  18.884  0.1198  0.0434 -0.1831
35900POPC   C4A76787  13.242  26.957  18.612  0.2578  0.0425  0.2340
35900POPC   C1B76788  13.557  26.786  19.462 -0.0432  0.3399  0.1182
35900POPC   C2B76789  13.896  26.837  19.104 -0.0706  0.2876  0.2409
35900POPC   C3B76790  14.140  27.083  18.788 -0.0661 -0.0785 -0.0196
35900POPC   C4B76791  14.124  27.411  18.392 -0.0228  0.0074  0.0140
35901POPC   NC376792   6.833  17.529  19.435 -0.2915 -0.0222  0.2882
35901POPC   PO476793   7.070  17.618  19.110 -0.2592 -0.0723 -0.0916
35901POPC   GL176794   6.962  17.460  18.840 -0.0082  0.1937  0.1279
35901POPC   GL276795   6.742  17.540  18.703 -0.1126 -0.2555  0.0349
35901POPC   C1A76796   7.171  17.408  18.453 -0.2152  0.0290 -0.0789
35901POPC   D2A76797   7.293  17.294  18.105 -0.0502  0.1766 -0.1568
35901POPC   C3A76798   7.305  17.236  17.626  0.3317  0.0427  0.3154
35901POPC   C4A76799   7.198  16.973  17.259  0.1218  0.0508 -0.2014
35901POPC   C1B76800   6.817  17.089  18.685  0.0399 -0.6123  0.0402
35901POPC   C2B76801   6.576  16.755  18.468 -0.2490 -0.2132 -0.0268
35901POPC   C3B76802   6.773  16.426  18.281 -0.0284  0.2646 -0.0697
35901POPC   C4B76803   7.171  16.291  18.105 -0.1994  0.2724 -0.1329
35902POPC   NC376804   9.904  30.586  20.433 -0.1747 -0.3337 -0.0198
35902POPC   PO476805   9.831  30.239  20.317 -0.0720  0.0533  0.0328
35902POPC   GL176806   9.808  30.340  19.924  0.2461 -0.1409  0.1148
35902POPC   GL276807   9.761  30.625  19.904  0.2024  0.1110  0.0644
35902POPC   C1A76808   9.620  29.957  19.784 -0.0261 -0.2996 -0.2955
35902POPC   D2A76809   9.394  29.803  19.398 -0.1059 -0.0652 -0.0735
35902POPC   C3A76810   9.188  30.110  19.094 -0.0305  0.0079 -0.3519
35902POPC   C4A76811   9.230  30.451  18.756 -0.0301  0.1687  0.1044
35902POPC   C1B76812   9.652  30.406  19.536  0.3777 -0.1621  0.3789
35902POPC   C2B76813   9.594  30.483  19.099 -0.1269 -0.0902  0.3259
35902POPC   C3B76814   9.752  30.384  18.681 -0.0386 -0.1991  0.0321
35902POPC   C4B76815   9.818  30.237  18.228 -0.0310 -0.0939  0.0703
35903POPC   NC376816   0.952  17.143  20.539 -0.0895 -0.3285  0.3809
35903POPC   PO476817   0.945  16.731  20.423 -0.0142  0.0037  0.0749
35903POPC   GL176818   1.019  16.774  20.019  0.1729  0.1588  0.1450
35903POPC   GL276819   0.880  16.478  19.957  0.0808  0.3799  0.2038
35903POPC   C1A76820   1.268  16.785  19.648  0.0580 -0.0422  0.1688
35903POPC   D2A76821   1.309  16.479  19.286 -0.0111  0.0987 -0.0316
35903POPC   C3A76822   1.565  16.682  18.923  0.0470  0.1565 -0.0228
35903POPC   C4A76823   1.886  17.046  18.745 -0.0520  0.0190 -0.1408
35903POPC   C1B76824   0.877  16.276  19.519  0.0625  0.0273 -0.0815
35903POPC   C2B76825   0.980  16.158  19.059  0.0273 -0.0825 -0.0153
35903POPC   C3B76826   1.464  16.143  18.945  0.0920  0.1712  0.1177
35903POPC   C4B76827   1.805  16.105  18.584 -0.0310 -0.3293  0.1302
35904POPC   NC376828   1.284  25.157  20.213 -0.0233  0.0784  0.0296
35904POPC   PO476829   1.527  24.918  20.091 -0.1612  0.0741  0.2781
35904POPC   GL176830   1.533  25.204  19.787  0.0947  0.1354 -0.2942
35904POPC   GL276831   1.301  25.312  19.744  0.0111  0.1790  0.0227
35904POPC   C1A76832   1.773  25.175  19.390 -0.1191 -0.3367  0.0623
35904POPC   D2A76833   1.793  25.362  18.940 -0.3249  0.0174 -0.2538
35904POPC   C3A76834   2.010  25.179  18.536 -0.3171  0.0996 -0.0040
35904POPC   C4A76835   1.917  25.091  18.117  0.2306  0.2565  0.4646
35904POPC   C1B76836   1.277  25.458  19.303 -0.1800 -0.1397  0.2797
35904POPC   C2B76837   1.294  25.500  18.812 -0.3303 -0.3098  0.1082
35904POPC   C3B76838   1.189  25.693  18.450  0.2072 -0.2338  0.0791
35904POPC   C4B76839   1.069  26.016  18.162 -0.0617 -0.2556  0.1975
35905POPC   NC376840   2.344  27.859  20.446 -0.0628  0.0185  0.2157
35905POPC   PO476841   2.689  27.770  20.620 -0.0840 -0.0725 -0.3404
35905POPC   GL176842   2.871  27.813  20.345 -0.2263 -0.4756  0.1057
35905POPC   GL276843   2.768  27.600  20.133 -0.2935  0.0202 -0.0444
35905POPC   C1A76844   3.055  27.986  19.980 -0.3909 -0.1580 -0.1121
35905POPC   D2A76845   3.242  28.120  19.539 -0.0476  0.0036  0.1749
35905POPC   C3A76846   3.126  27.754  19.222  0.1254  0.0110 -0.0010
35905POPC   C4A76847   2.908  27.671  18.807  0.2554  0.1845  0.2174
35905POPC   C1B76848   2.831  27.685  19.644 -0.0949 -0.3017  0.0763
35905POPC   C2B76849   2.564  27.732  19.235  0.0629 -0.2048  0.1050
35905POPC   C3B76850   2.237  27.720  18.937 -0.0307 -0.1050  0.0984
35905POPC   C4B76851   2.048  27.593  18.509 -0.1211 -0.2332 -0.0017
35906POPC   NC376852   4.796  28.264  20.624 -0.2297 -0.1825  0.1972
35906POPC   PO476853   5.097  28.027  20.739  0.1005 -0.3049 -0.3762
35906POPC   GL176854   5.027  27.822  20.316  0.0792  0.6627 -0.0970
35906POPC   GL276855   4.809  28.003  20.238  0.1687  0.0880 -0.0150
35906POPC   C1A76856   5.058  27.566  19.911 -0.1825 -0.1168 -0.1694
35906POPC   D2A76857   5.211  27.550  19.494 -0.2127  0.0107 -0.0311
35906POPC   C3A76858   5.227  27.606  19.002  0.1229  0.3412 -0.1551
35906POPC   C4A76859   5.241  27.627  18.548  0.3323  0.1814  0.0994
35906POPC   C1B76860   4.628  28.004  19.821  0.1007 -0.3043 -0.0911
35906POPC   C2B76861   4.537  28.170  19.356 -0.1751  0.0117  0.2657
35906POPC   C3B76862   4.570  28.335  18.946  0.0388  0.0578 -0.2683
35906POPC   C4B76863   4.965  28.524  18.787  0.0514 -0.0824  0.2166
35907POPC   NC376864   7.002  28.611  20.673  0.0830 -0.0397 -0.1812
35907POPC   PO476865   6.642  28.520  20.686  0.0724  0.4225  0.0032
35907POPC   GL176866   6.498  28.568  20.316  0.1606  0.0772 -0.0506
35907POPC   GL276867   6.255  28.702  20.190 -0.2466  0.3567  0.1107
35907POPC   C1A76868   6.635  28.591  19.897  0.0961 -0.0330 -0.0056
35907POPC   D2A76869   6.652  28.587  19.417 -0.1882 -0.0508  0.0473
35907POPC   C3A76870   6.205  28.497  19.225 -0.1003  0.0819 -0.1579
35907POPC   C4A76871   5.843  28.559  18.940  0.0499  0.3349  0.0694
35907POPC   C1B76872   6.119  28.542  19.742 -0.2540 -0.2608  0.2482
35907POPC   C2B76873   5.736  28.602  19.516  0.2037  0.0957  0.0375
35907POPC   C3B76874   5.337  28.531  19.697 -0.1204 -0.3126  0.0758
35907POPC   C4B76875   4.957  28.596  19.881  0.1629 -0.0573  0.0767
35908POPC   NC376876  15.372  16.236  20.354  0.1104  0.3407  0.1177
35908POPC   PO476877  15.127  16.532  20.306 -0.1441 -0.0860  0.5009
35908POPC   GL176878  15.344  16.488  19.958  0.0394 -0.0193  0.1848
35908POPC   GL276879  15.531  16.646  19.970  0.1892  0.0297  0.4155
35908POPC   C1A76880  15.195  16.165  19.702  0.1357  0.2529 -0.1679
35908POPC   D2A76881  15.086  15.947  19.296  0.1080  0.0115  0.2746
35908POPC   C3A76882  15.117  15.652  18.937 -0.1913  0.2302 -0.1049
35908POPC   C4A76883  15.228  15.348  18.557 -0.0574 -0.0951  0.1220
35908POPC   C1B76884  15.383  16.689  19.511 -0.0864 -0.0614  0.0500
35908POPC   C2B76885  15.275  16.660  19.034  0.0443 -0.2254 -0.0453
35908POPC   C3B76886  15.134  16.597  18.540 -0.0310  0.0393  0.0041
35908POPC   C4B76887  15.304  16.497  18.078 -0.2325  0.3439 -0.1080
35909POPC   NC376888   0.536  22.845  19.804  0.1261 -0.0259  0.0094
35909POPC   PO476889   0.398  22.444  19.888  0.1812  0.4082 -0.1817
35909POPC   GL176890   0.703  22.452  19.534  0.3852  0.0284  0.1510
35909POPC   GL276891   0.754  22.738  19.365 -0.1305 -0.5065  0.0019
35909POPC   C1A76892   0.804  22.298  19.162 -0.4389  0.1264 -0.0701
35909POPC   D2A76893   0.566  22.001  18.972 -0.0259  0.1374  0.2913
35909POPC   C3A76894   0.589  22.103  18.560  0.0349 -0.1672  0.1503
35909POPC   C4A76895   0.220  22.052  18.235  0.2135 -0.1766 -0.2151
35909POPC   C1B76896   0.534  22.791  18.966  0.0753 -0.0787  0.0741
35909POPC   C2B76897   0.532  22.897  18.495 -0.1918 -0.0243 -0.3158
35909POPC   C3B76898   0.213  22.990  18.154 -0.0165 -0.3024 -0.1928
35909POPC   C4B76899   0.345  22.866  17.764 -0.5246 -0.1384  0.0823
35910POPC   NC376900   8.705  32.633  20.125  0.0160  0.4141  0.2224
35910POPC   PO476901   9.019  32.644  19.850 -0.2521  0.0325 -0.0074
35910POPC   GL176902   8.986  32.385  19.586 -0.5124  0.1740  0.1951
35910POPC   GL276903   9.037  32.483  19.297 -0.0387 -0.0159 -0.1324
35910POPC   C1A76904   9.323  32.051  19.454 -0.2177  0.1618 -0.0173
35910POPC   D2A76905   9.509  31.785  19.060  0.0070  0.2978 -0.0808
35910POPC   C3A76906   9.613  31.964  18.644 -0.1100 -0.0248 -0.0943
35910POPC   C4A76907   9.549  32.193  18.209 -0.3315 -0.1134  0.1904
35910POPC   C1B76908   9.002  32.178  18.935  0.0204  0.0145  0.1974
35910POPC   C2B76909   9.040  31.959  18.559 -0.0767  0.0244 -0.1893
35910POPC   C3B76910   9.103  31.502  18.330 -0.3244  0.2121 -0.4134
35910POPC   C4B76911   9.344  31.169  18.060  0.2710  0.2781 -0.2919
35911POPC   NC376912  14.244  19.317  19.276  0.0094  0.0633  0.0801
35911POPC   PO476913  14.411  18.992  19.440  0.1692  0.0684  0.2407
35911POPC   GL176914  14.480  18.806  19.105 -0.3992  0.1964  0.3295
35911POPC   GL276915  14.731  18.895  19.076 -0.3507  0.2288 -0.0708
35911POPC   C1A76916  14.643  18.489  18.772 -0.0879 -0.0424 -0.0828
35911POPC   D2A76917  14.835  18.491  18.351 -0.1499  0.1272 -0.3220
35911POPC   C3A76918  15.209  18.423  18.072  0.0976 -0.2567  0.0496
35911POPC   C4A76919  15.414  18.580  17.681  0.0390 -0.0674 -0.1271
35911POPC   C1B76920  15.194  18.766  19.029  0.2857 -0.0551 -0.0033
35911POPC   C2B76921  15.523  18.918  18.829  0.1510 -0.1538 -0.2279
35911POPC   C3B76922  15.545  19.215  18.481  0.2452  0.1163 -0.1717
35911POPC   C4B76923  15.378  19.451  18.148  0.0133  0.0613 -0.0241
35912POPC   NC376924   7.310  27.890  20.067  0.1845  0.0358  0.0847
35912POPC   PO476925   7.153  28.236  19.863  0.3941  0.1457  0.3022
35912POPC   GL176926   7.258  28.642  19.831  0.1617  0.0635  0.0441
35912POPC   GL276927   7.464  28.626  19.666  0.0994  0.1164 -0.1612
35912POPC   C1A76928   7.063  28.939  19.500  0.1677  0.1279 -0.0811
35912POPC   D2A76929   7.047  29.251  19.115  0.1308 -0.1349  0.0897
35912POPC   C3A76930   7.426  29.475  18.891  0.2907  0.0594 -0.1198
35912POPC   C4A76931   7.852  29.569  18.849  0.0273  0.1143  0.0129
35912POPC   C1B76932   7.250  28.503  19.282 -0.1015  0.3688  0.1308
35912POPC   C2B76933   7.068  28.668  18.836 -0.1012  0.1165  0.1025
35912POPC   C3B76934   7.088  28.781  18.372  0.1457 -0.0798  0.1010
35912POPC   C4B76935   7.504  28.774  18.157  0.2238 -0.0184  0.0593
35913POPC   NC376936  11.556  26.104  19.778 -0.2425 -0.0993 -0.0221
35913POPC   PO476937  11.738  26.404  19.631  0.1355 -0.0038  0.2369
35913POPC   GL176938  11.668  26.453  19.305  0.1673 -0.0024 -0.1103
35913POPC   GL276939  11.786  26.771  19.232 -0.1486 -0.0312  0.1892
35913POPC   C1A76940  11.461  26.337  18.918  0.0846  0.0519  0.2078
35913POPC   D2A76941  11.299  26.597  18.564  0.0213  0.1900 -0.0801
35913POPC   C3A76942  11.484  26.945  18.266 -0.1107 -0.0495  0.1914
35913POPC   C4A76943  11.601  27.016  17.861 -0.0849 -0.1934 -0.0064
35913POPC   C1B76944  11.727  26.760  18.788 -0.2131 -0.3304 -0.0037
35913POPC   C2B76945  11.981  26.957  18.500  0.1897 -0.0642 -0.1212
35913POPC   C3B76946  11.890  27.386  18.429  0.0411  0.0069  0.0528
35913POPC   C4B76947  11.894  27.832  18.234 -0.0739 -0.2517 -0.1420
35914POPC   NC376948  13.286  22.616  18.643 -0.1205  0.2537 -0.1516
35914POPC   PO476949  13.307  23.013  18.661  0.0466  0.1233 -0.0028
35914POPC   GL176950  13.528  23.223  18.476 -0.0379 -0.0369  0.1241
35914POPC   GL276951  13.742  22.973  18.399 -0.2521  0.2373  0.1013
35914POPC   C1A76952  13.542  23.454  18.083 -0.1232  0.0814 -0.0562
35914POPC   D2A76953  13.670  23.411  17.619 -0.0431  0.1631 -0.0648
35914POPC   C3A76954  13.707  23.578  17.162 -0.1568  0.2208  0.0896
35914POPC   C4A76955  13.999  23.827  16.896  0.0928  0.0345 -0.2123
35914POPC   C1B76956  13.984  23.279  18.180 -0.2974  0.0858 -0.1251
35914POPC   C2B76957  14.066  23.579  17.849  0.0612 -0.1059 -0.2240
35914POPC   C3B76958  14.310  23.889  17.605 -0.2401  0.0684  0.2281
35914POPC   C4B76959  14.477  24.210  17.283  0.0539  0.0331  0.1404
35915POPC   NC376960   8.159  17.568  19.178 -0.1085 -0.3552 -0.0221
35915POPC   PO476961   7.993  17.232  19.081 -0.1827 -0.1729  0.4185
35915POPC   GL176962   7.832  17.113  18.828 -0.1105  0.1392  0.3324
35915POPC   GL276963   7.800  16.777  18.890 -0.1933 -0.0245  0.0508
35915POPC   C1A76964   7.634  17.030  18.385  0.2894  0.1507  0.2046
35915POPC   D2A76965   7.537  16.957  17.914 -0.0417 -0.2589 -0.0202
35915POPC   C3A76966   7.144  16.791  17.728 -0.2147  0.0077  0.0499
35915POPC   C4A76967   6.846  16.466  17.602  0.2817 -0.2360 -0.0328
35915POPC   C1B76968   7.943  16.659  18.456  0.0083  0.0590  0.0528
35915POPC   C2B76969   8.168  16.535  18.022  0.0137  0.1576 -0.0192
35915POPC   C3B76970   8.184  16.551  17.537 -0.0088  0.1599  0.1045
35915POPC   C4B76971   8.028  16.409  17.142 -0.0884 -0.2280  0.3729
35916POPC   NC376972   2.848  32.570  20.765  0.0378 -0.2945  0.0355
35916POPC   PO476973   3.150  32.784  20.546  0.3211  0.0084  0.2962
35916POPC   GL176974   3.113  32.597  20.095  0.2304  0.1943 -0.0317
35916POPC   GL276975   3.039  32.337  20.304 -0.1161 -0.2085  0.0247
35916POPC   C1A76976   3.144  32.715  19.622 -0.2013  0.1831  0.0766
35916POPC   D2A76977   2.774  32.795  19.317  0.0175  0.0045 -0.3149
35916POPC   C3A76978   2.823  32.483  19.006 -0.0065  0.0165 -0.3739
35916POPC   C4A76979   2.789  32.076  18.863  0.0571  0.0192  0.0971
35916POPC   C1B76980   2.941  32.228  19.846 -0.0296  0.1290 -0.2238
35916POPC   C2B76981   2.782  32.029  19.457 -0.1617  0.2847 -0.0183
35916POPC   C3B76982   3.066  31.811  19.196 -0.3033 -0.1444 -0.0042
35916POPC   C4B76983   3.361  31.616  18.899  0.2043 -0.3820  0.4061
35917POPC   NC376984   9.008  25.559  19.960 -0.0274  0.1669  0.0112
35917POPC   PO476985   8.678  25.772  20.050 -0.0032  0.0024  0.2730
35917POPC   GL176986   8.496  26.095  19.853  0.2657  0.1690 -0.2330
35917POPC   GL276987   8.640  26.345  19.915 -0.0818 -0.2079  0.1197
35917POPC   C1A76988   8.587  26.311  19.393 -0.0853  0.0151 -0.1945
35917POPC   D2A76989   8.608  26.284  18.939  0.5101 -0.3451  0.0638
35917POPC   C3A76990   8.682  26.037  18.581 -0.0246  0.2631  0.1041
35917POPC   C4A76991   8.475  25.738  18.330 -0.4433 -0.0287  0.2713
35917POPC   C1B76992   9.039  26.523  19.712  0.3045  0.2214  0.0256
35917POPC   C2B76993   9.157  26.619  19.320 -0.0374  0.0143  0.2719
35917POPC   C3B76994   9.056  26.562  18.847 -0.0349  0.1858 -0.0555
35917POPC   C4B76995   8.704  26.644  18.557 -0.0868  0.1267 -0.1172
35918POPC   NC376996  10.317  24.419  17.821  0.1422  0.2187  0.2250
35918POPC   PO476997   9.956  24.300  17.961  0.1447  0.2130 -0.1234
35918POPC   GL176998   9.828  24.677  17.823 -0.3132 -0.2230 -0.1334
35918POPC   GL276999   9.808  24.582  17.571 -0.1064  0.1987  0.0355
35918POPC   C1A77000  10.175  24.959  17.739  0.1533  0.2229  0.1166
35918POPC   D2A77001  10.269  25.308  17.521 -0.2205 -0.0174  0.3060
35918POPC   C3A77002  10.690  25.269  17.303  0.0647 -0.0625  0.1110
35918POPC   C4A77003  11.045  25.542  17.367  0.1083  0.0224 -0.0623
35918POPC   C1B77004   9.932  24.926  17.226  0.1864 -0.3951  0.1316
35918POPC   C2B77005   9.938  25.402  17.191 -0.1012 -0.1686 -0.0995
35918POPC   C3B77006   9.852  25.790  16.873  0.0485  0.1599  0.0286
35918POPC   C4B77007  10.029  26.154  16.647 -0.0296  0.3082  0.2168
35919POPC   NC377008   6.541  22.465  18.479  0.2838 -0.0703 -0.1532
35919POPC   PO477009   6.586  22.258  18.163  0.1248  0.0646 -0.0022
35919POPC   GL177010   6.350  22.474  17.892 -0.1388  0.4735  0.0075
35919POPC   GL277011   6.180  22.172  17.841  0.4096  0.2695 -0.1639
35919POPC   C1A77012   6.402  22.525  17.423  0.1150 -0.1439  0.2438
35919POPC   D2A77013   6.160  22.375  17.035 -0.4100  0.0560 -0.0400
35919POPC   C3A77014   5.917  22.613  16.713 -0.1103 -0.0177  0.1809
35919POPC   C4A77015   5.519  22.630  16.452  0.2441 -0.1535 -0.0868
35919POPC   C1B77016   5.718  22.101  17.892 -0.0747 -0.1785  0.3393
35919POPC   C2B77017   5.281  22.013  17.952 -0.0696  0.2689  0.0860
35919POPC   C3B77018   4.940  21.840  17.732 -0.2885 -0.3252 -0.2265
35919POPC   C4B77019   4.560  21.987  17.532 -0.1506  0.1258 -0.2707
35920POPC   NC377020   8.125  29.268  20.899 -0.1215  0.0485  0.2397
35920POPC   PO477021   8.216  29.078  20.549  0.1167  0.0713 -0.0810
35920POPC   GL177022   7.998  28.886  20.194 -0.2542  0.2365  0.0564
35920POPC   GL277023   8.306  28.978  20.033  0.0154  0.1997 -0.0962
35920POPC   C1A77024   7.942  28.936  19.736 -0.0123 -0.1125  0.0600
35920POPC   D2A77025   8.050  29.167  19.324 -0.0878  0.0064 -0.3779
35920POPC   C3A77026   7.944  29.080  18.869  0.2100 -0.0394  0.0552
35920POPC   C4A77027   7.844  29.129  18.466 -0.0917 -0.0333  0.0718
35920POPC   C1B77028   8.346  28.863  19.580  0.2914  0.1950 -0.0894
35920POPC   C2B77029   8.251  28.657  19.178 -0.1496 -0.2729 -0.1276
35920POPC   C3B77030   8.097  28.327  18.886 -0.0833  0.2223  0.3093
35920POPC   C4B77031   8.229  28.038  18.489 -0.1183 -0.1296 -0.2653
35921POPC   NC377032   8.463  20.848  17.015 -0.0733  0.0823 -0.0355
35921POPC   PO477033   8.721  20.640  16.752  0.0403 -0.0973  0.0880
35921POPC   GL177034   8.696  20.314  16.527 -0.2099 -0.0009 -0.4408
35921POPC   GL277035   8.424  20.333  16.303  0.2422  0.2584  0.0321
35921POPC   C1A77036   8.737  19.896  16.312 -0.1307 -0.0446 -0.0477
35921POPC   D2A77037   8.769  19.396  16.272 -0.4101 -0.1815  0.1209
35921POPC   C3A77038   8.759  19.180  15.865  0.0669 -0.1012  0.1295
35921POPC   C4A77039   8.499  19.005  15.573  0.0328  0.1399  0.4658
35921POPC   C1B77040   8.344  19.960  16.034  0.2290 -0.2761  0.1512
35921POPC   C2B77041   8.208  19.574  15.752 -0.2540 -0.0528 -0.1765
35921POPC   C3B77042   7.981  19.197  15.670  0.4490  0.0537  0.1632
35921POPC   C4B77043   8.049  18.833  15.964  0.1908 -0.0702 -0.1865
35922POPC   NC377044  13.259  24.034  18.848  0.1655  0.2980  0.4477
35922POPC   PO477045  12.949  23.861  18.731 -0.2755  0.0272  0.1579
35922POPC   GL177046  12.994  23.876  18.410 -0.0169 -0.0673 -0.1144
35922POPC   GL277047  13.302  23.820  18.309  0.3972  0.1851 -0.2302
35922POPC   C1A77048  12.975  24.146  17.982 -0.0469  0.3609 -0.4182
35922POPC   D2A77049  13.098  24.453  17.629  0.2921  0.0121  0.0906
35922POPC   C3A77050  13.104  24.370  17.148 -0.2256 -0.1077  0.1503
35922POPC   C4A77051  13.248  24.471  16.759 -0.2581 -0.1416  0.1862
35922POPC   C1B77052  13.351  23.854  17.833 -0.4091  0.0673 -0.2853
35922POPC   C2B77053  13.367  24.055  17.444  0.2388  0.3593 -0.0266
35922POPC   C3B77054  13.434  24.039  16.987 -0.1657  0.3387 -0.1095
35922POPC   C4B77055  13.790  24.109  16.608 -0.2746 -0.1713 -0.0932
35923POPC   NC377056   8.991  23.509  17.463  0.0071  0.0159  0.0486
35923POPC   PO477057   8.880  23.616  17.799  0.0744 -0.3787 -0.0731
35923POPC   GL177058   8.727  23.879  17.488  0.2369 -0.2640  0.0981
35923POPC   GL277059   8.892  23.960  17.247  0.0148  0.1460 -0.0645
35923POPC   C1A77060   8.361  24.181  17.394 -0.1668 -0.0458  0.0854
35923POPC   D2A77061   8.205  24.475  17.027 -0.0472  0.1955 -0.3509
35923POPC   C3A77062   7.786  24.695  17.035 -0.0439 -0.2077 -0.0882
35923POPC   C4A77063   7.417  24.897  17.267  0.0711 -0.0672  0.1677
35923POPC   C1B77064   8.839  24.377  17.541 -0.0468 -0.3178  0.0290
35923POPC   C2B77065   8.557  24.757  17.413  0.0352 -0.2572  0.2013
35923POPC   C3B77066   8.319  25.083  17.655  0.0041 -0.3689 -0.2275
35923POPC   C4B77067   8.091  25.450  17.512  0.2527 -0.0733 -0.2228
35924POPC   NC377068  15.851  24.911  19.991 -0.1206  0.0655  0.2262
35924POPC   PO477069  15.545  25.113  19.839 -0.0884 -0.0435 -0.1158
35924POPC   GL177070  15.417  25.366  19.522 -0.0982 -0.0693  0.0725
35924POPC   GL277071  15.381  25.065  19.358 -0.1744  0.0008  0.0637
35924POPC   C1A77072  15.099  25.677  19.386  0.4725  0.0747 -0.2553
35924POPC   D2A77073  15.034  25.805  18.980  0.0696  0.1815  0.6715
35924POPC   C3A77074  15.412  25.921  18.731  0.2507 -0.0969  0.1851
35924POPC   C4A77075  15.681  26.109  18.365 -0.0924  0.1190  0.2941
35924POPC   C1B77076  15.101  25.299  19.027 -0.0090  0.3946  0.0688
35924POPC   C2B77077  15.257  25.448  18.640 -0.5161  0.0789  0.1290
35924POPC   C3B77078  15.349  25.717  18.295  0.0542  0.2445  0.0237
35924POPC   C4B77079  15.620  25.785  17.926 -0.2745 -0.0707 -0.0124
35925POPC   NC377080   9.197  24.075  17.713 -0.1982 -0.0874  0.0663
35925POPC   PO477081   9.557  24.069  17.698  0.0689  0.1270 -0.0757
35925POPC   GL177082   9.527  24.242  17.352 -0.3739  0.2535  0.2304
35925POPC   GL277083   9.268  24.243  17.255 -0.0783 -0.3334  0.0893
35925POPC   C1A77084   9.619  24.549  17.038  0.2871 -0.2255  0.0699
35925POPC   D2A77085   9.499  24.974  16.903 -0.1547  0.0523  0.1574
35925POPC   C3A77086   9.896  25.179  16.702 -0.0131  0.1101 -0.0895
35925POPC   C4A77087  10.266  25.376  16.510  0.1045 -0.1111  0.3149
35925POPC   C1B77088   8.932  24.487  17.077  0.1056  0.1298  0.1314
35925POPC   C2B77089   8.643  24.720  16.837  0.2261 -0.1898 -0.0799
35925POPC   C3B77090   8.301  24.937  16.845 -0.3235  0.1374 -0.1445
35925POPC   C4B77091   7.944  25.140  16.860  0.0527  0.1149 -0.1862
35926POPC   NC377092  12.005  30.806  20.526  0.0476 -0.2363 -0.3331
35926POPC   PO477093  12.229  30.969  20.249  0.0188  0.0828 -0.2247
35926POPC   GL177094  11.894  31.175  19.983  0.2945 -0.3122 -0.2194
35926POPC   GL277095  11.756  31.142  20.210  0.4947  0.1527 -0.1635
35926POPC   C1A77096  11.834  31.063  19.526  0.0082 -0.0890 -0.1177
35926POPC   D2A77097  12.034  30.872  19.186 -0.2843  0.1406 -0.0015
35926POPC   C3A77098  12.162  31.083  18.759  0.3760 -0.0439  0.2890
35926POPC   C4A77099  12.472  31.195  18.478 -0.2419 -0.2371 -0.2837
35926POPC   C1B77100  11.521  31.361  19.851  0.1763  0.3519 -0.1592
35926POPC   C2B77101  11.389  31.302  19.359  0.3473  0.0534 -0.0410
35926POPC   C3B77102  11.285  31.235  18.910 -0.1181  0.2538 -0.0814
35926POPC   C4B77103  11.292  31.134  18.456 -0.3036  0.0511  0.0430
35927POPC   NC377104  15.658  26.741  20.749  0.1420 -0.1750  0.1526
35927POPC   PO477105  15.954  26.857  20.532  0.2024  0.3043 -0.0103
35927POPC   GL177106  16.147  26.814  20.166 -0.2042 -0.0897  0.0154
35927POPC   GL277107  16.107  27.013  19.936  0.0339 -0.0115 -0.0223
35927POPC   C1A77108  16.109  26.425  19.921  0.2069 -0.1182 -0.0683
35927POPC   D2A77109  15.652  26.475  19.724  0.1444  0.2817 -0.2855
35927POPC   C3A77110  15.371  26.770  19.647  0.0265 -0.4425  0.0615
35927POPC   C4A77111  15.264  27.158  19.453  0.1507 -0.0870 -0.2179
35927POPC   C1B77112  15.802  26.976  19.539  0.3738  0.0277  0.1978
35927POPC   C2B77113  15.572  26.834  19.084  0.0497 -0.0396 -0.0598
35927POPC   C3B77114  15.365  26.775  18.613  0.2806 -0.0653 -0.1009
35927POPC   C4B77115  15.500  26.590  18.212 -0.2261  0.1799 -0.0768
35928POPC   NC377116   3.718  29.725  20.963  0.1162  0.0070 -0.1099
35928POPC   PO477117   3.700  30.055  20.735 -0.1300 -0.0192  0.1057
35928POPC   GL177118   3.596  30.216  20.358 -0.1651  0.4186  0.5484
35928POPC   GL277119   3.732  30.419  20.198  0.3164  0.4881 -0.0656
35928POPC   C1A77120   3.321  30.310  19.969 -0.2040  0.1443  0.0515
35928POPC   D2A77121   2.923  30.044  19.858 -0.1852  0.0527  0.0352
35928POPC   C3A77122   2.584  30.037  19.524 -0.1792  0.0641  0.0027
35928POPC   C4A77123   2.561  30.305  19.179  0.1957  0.0732  0.0069
35928POPC   C1B77124   3.719  30.253  19.692  0.3727  0.1130 -0.2819
35928POPC   C2B77125   3.803  30.154  19.285 -0.2194  0.2995  0.0242
35928POPC   C3B77126   3.949  30.049  18.863 -0.2932  0.0177  0.0002
35928POPC   C4B77127   4.005  30.157  18.428 -0.1567 -0.0873 -0.0128
35929POPC   NC377128   9.081  23.167  12.575 -0.3154  0.0040 -0.1452
35929POPC   PO477129   9.496  23.199  12.540  0.3990  0.0609 -0.2318
35929POPC   GL177130   9.453  23.609  12.527  0.3171 -0.1089 -0.1414
35929POPC   GL277131   9.209  23.663  12.274 -0.1130  0.0333 -0.3070
35929POPC   C1A77132   9.672  24.002  12.668  0.2078 -0.3719 -0.3396
35929POPC   D2A77133   9.994  24.282  12.589 -0.1858  0.3262 -0.0971
35929POPC   C3A77134   9.925  24.659  12.857 -0.0539 -0.1698 -0.0142
35929POPC   C4A77135   9.723  25.089  12.810  0.2876 -0.2064 -0.0732
35929POPC   C1B77136   8.831  23.596  12.561  0.4622 -0.1412  0.0473
35929POPC   C2B77137   8.452  23.821  12.733 -0.0985  0.0446 -0.1197
35929POPC   C3B77138   8.090  24.084  12.778  0.0193  0.0912  0.2844
35929POPC   C4B77139   7.711  24.308  12.757 -0.2015 -0.0043 -0.2166
35930POPC   NC377140  12.103  19.365  18.523 -0.1734  0.1482 -0.1422
35930POPC   PO477141  11.731  19.200  18.601  0.1433  0.2060  0.0433
35930POPC   GL177142  11.860  19.165  18.204  0.0307 -0.2452  0.1272
35930POPC   GL277143  11.760  19.288  17.979  0.0393 -0.0978  0.1192
35930POPC   C1A77144  12.036  18.874  17.895  0.2284 -0.3660  0.1594
35930POPC   D2A77145  12.144  18.451  17.909 -0.1197 -0.2258  0.2034
35930POPC   C3A77146  12.107  18.156  17.561 -0.1245  0.2003 -0.0564
35930POPC   C4A77147  12.309  17.913  17.183 -0.1551  0.1414  0.2487
35930POPC   C1B77148  11.954  19.278  17.557  0.3229  0.0101  0.0210
35930POPC   C2B77149  11.856  19.419  17.125 -0.2269  0.1373  0.2560
35930POPC   C3B77150  12.122  19.562  16.804  0.0542 -0.0516 -0.1005
35930POPC   C4B77151  12.390  19.377  16.483  0.0952  0.1015 -0.0722
35931POPC   NC377152  10.730  19.424  17.654  0.2054  0.2280  0.0033
35931POPC   PO477153  11.068  19.566  17.539  0.2323 -0.0315  0.0771
35931POPC   GL177154  11.117  19.196  17.265  0.0768 -0.1109  0.4695
35931POPC   GL277155  11.081  19.001  17.471 -0.1708  0.0512  0.0398
35931POPC   C1A77156  11.426  19.243  16.940  0.0707  0.0773  0.0322
35931POPC   D2A77157  11.522  19.629  16.638 -0.2419 -0.2795 -0.2507
35931POPC   C3A77158  11.694  19.571  16.243 -0.0138 -0.2272 -0.0839
35931POPC   C4A77159  11.920  19.670  15.848 -0.2904  0.0175 -0.2736
35931POPC   C1B77160  11.273  18.645  17.284  0.1105 -0.1316 -0.0504
35931POPC   C2B77161  11.563  18.460  17.011 -0.0091 -0.0272 -0.2606
35931POPC   C3B77162  12.040  18.475  16.947  0.1053  0.5223 -0.1869
35931POPC   C4B77163  12.332  18.209  16.709 -0.2476 -0.1650  0.0935
35932POPC   NC377164  11.118  20.015  17.258  0.3001 -0.0177 -0.0430
35932POPC   PO477165  10.911  20.257  17.026  0.0194 -0.0365  0.1386
35932POPC   GL177166  10.895  19.915  16.742 -0.3791 -0.5140 -0.2395
35932POPC   GL277167  10.981  19.936  16.469  0.0312 -0.2116  0.0586
35932POPC   C1A77168  10.585  19.606  16.660  0.1894  0.1427 -0.2721
35932POPC   D2A77169  10.333  19.211  16.653  0.1041  0.0567  0.0180
35932POPC   C3A77170  10.072  19.111  16.249 -0.6037 -0.1135  0.2583
35932POPC   C4A77171   9.696  19.173  15.970  0.0618  0.3625 -0.0032
35932POPC   C1B77172  11.078  19.508  16.406  0.1564 -0.0767  0.1810
35932POPC   C2B77173  11.302  19.143  16.273  0.1510 -0.0841 -0.2452
35932POPC   C3B77174  11.640  18.863  16.311 -0.0887  0.1148 -0.4265
35932POPC   C4B77175  11.667  18.463  16.141 -0.0234 -0.2079  0.0297
35933POPC   NC377176  11.674  17.008  19.144 -0.0504  0.0646 -0.0799
35933POPC   PO477177  11.459  17.205  19.384  0.1366  0.0898  0.2922
35933POPC   GL177178  11.209  17.037  19.078  0.4479 -0.0490  0.2422
35933POPC   GL277179  10.960  17.126  19.014 -0.0431 -0.3738  0.0224
35933POPC   C1A77180  11.174  17.017  18.574 -0.0652 -0.1056 -0.1911
35933POPC   D2A77181  10.837  16.952  18.252  0.1637 -0.0165  0.0049
35933POPC   C3A77182  10.923  16.792  17.846 -0.0887 -0.2887  0.0266
35933POPC   C4A77183  10.625  16.816  17.520  0.1365  0.1696  0.1835
35933POPC   C1B77184  10.655  17.106  18.687  0.1879  0.2713  0.0594
35933POPC   C2B77185  10.246  17.036  18.555  0.3092  0.0149 -0.4112
35933POPC   C3B77186  10.027  16.734  18.269  0.0852 -0.3806  0.0837
35933POPC   C4B77187  10.010  16.619  17.850  0.2208 -0.0337 -0.0981
35934POPC   NC377188  11.544  22.878  17.350  0.5742  0.6025 -0.2006
35934POPC   PO477189  11.252  22.853  17.535  0.2832 -0.2706  0.0556
35934POPC   GL177190  11.420  23.318  17.394 -0.2450 -0.0622  0.1124
35934POPC   GL277191  11.757  23.314  17.293  0.1342 -0.1304  0.0756
35934POPC   C1A77192  11.401  23.681  17.073 -0.0230  0.1256  0.1017
35934POPC   D2A77193  11.333  23.958  16.745  0.3940 -0.0928  0.3199
35934POPC   C3A77194  11.617  24.296  16.674 -0.0110 -0.2482 -0.1651
35934POPC   C4A77195  11.760  24.634  16.358 -0.1678 -0.1447  0.1298
35934POPC   C1B77196  11.866  23.488  16.863  0.0181  0.0737  0.1358
35934POPC   C2B77197  12.124  23.572  16.455 -0.1056  0.1360  0.2453
35934POPC   C3B77198  12.516  23.711  16.289  0.1919  0.0951 -0.1176
35934POPC   C4B77199  12.880  23.889  16.242 -0.0137 -0.0004  0.1271
35935POPC   NC377200  32.527  16.731  20.230  0.5054  0.1217  0.1395
35935POPC   PO477201  32.363  16.559  19.886  0.1507 -0.1411 -0.0103
35935POPC   GL177202  32.412  16.447  19.575 -0.2568  0.2706 -0.0912
35935POPC   GL277203  32.195  16.325  19.448  0.0052 -0.2937  0.0446
35935POPC   C1A77204  32.795  16.383  19.339  0.0222 -0.1387 -0.1673
35935POPC   D2A77205  32.959  16.086  19.101  0.1912 -0.0066 -0.1710
35935POPC   C3A77206  32.900  16.265  18.658  0.0906  0.2417 -0.0133
35935POPC   C4A77207  32.489  16.518  18.402 -0.1673  0.1999  0.2108
35935POPC   C1B77208  31.942  16.266  19.060  0.0966  0.1113 -0.2056
35935POPC   C2B77209  31.630  16.110  18.748 -0.0952 -0.0161 -0.2802
35935POPC   C3B77210  31.550  16.049  18.291  0.0968 -0.3467 -0.2064
35935POPC   C4B77211  31.362  16.296  17.963 -0.2720  0.0646  0.0455
35936POPC   NC377212  16.018  29.214  20.271  0.2720 -0.0385 -0.0381
35936POPC   PO477213  16.395  29.057  20.143  0.3946 -0.0858  0.0018
35936POPC   GL177214  16.304  28.865  19.797 -0.1292 -0.0534 -0.4751
35936POPC   GL277215  16.390  29.064  19.616 -0.2529 -0.0543 -0.2731
35936POPC   C1A77216  16.285  28.366  19.709  0.0583 -0.3527  0.0502
35936POPC   D2A77217  16.313  28.061  19.350 -0.1792 -0.0581 -0.0363
35936POPC   C3A77218  16.593  28.005  19.029 -0.1346  0.3077  0.1668
35936POPC   C4A77219  16.514  27.807  18.617  0.1424  0.1344 -0.0038
35936POPC   C1B77220  16.426  29.137  19.194 -0.0070  0.2745 -0.0668
35936POPC   C2B77221  16.444  29.252  18.722 -0.0068  0.1182 -0.0874
35936POPC   C3B77222  16.182  29.405  18.381 -0.0479 -0.2157  0.0469
35936POPC   C4B77223  15.744  29.550  18.488 -0.1032  0.2696 -0.3679
35937POPC   NC377224   5.115  19.149  19.240  0.3900 -0.2323 -0.0177
35937POPC   PO477225   5.248  19.376  18.937 -0.0027 -0.1517 -0.3107
35937POPC   GL177226   5.207  19.199  18.598  0.2292  0.1783  0.0215
35937POPC   GL277227   5.303  18.969  18.601 -0.1058 -0.1719 -0.0324
35937POPC   C1A77228   5.159  19.156  18.106 -0.1629  0.2501 -0.1741
35937POPC   D2A77229   5.108  19.300  17.670  0.1206  0.0435  0.3527
35937POPC   C3A77230   4.754  19.509  17.448  0.0803 -0.1196  0.0743
35937POPC   C4A77231   4.315  19.618  17.364  0.4821  0.2462 -0.3954
35937POPC   C1B77232   4.894  18.923  18.449 -0.3441  0.1454  0.2387
35937POPC   C2B77233   4.689  18.833  18.084 -0.2715 -0.0298  0.0913
35937POPC   C3B77234   4.282  18.700  17.919 -0.4500  0.1381 -0.0816
35937POPC   C4B77235   3.954  18.662  17.580 -0.0341  0.1456 -0.4981
35938POPC   NC377236   5.925  31.015  20.279  0.1356 -0.0852  0.0675
35938POPC   PO477237   6.108  30.693  20.261  0.1217 -0.0262  0.0745
35938POPC   GL177238   5.844  30.684  19.971 -0.2340  0.1685  0.2134
35938POPC   GL277239   5.834  30.368  19.920  0.1811 -0.1797  0.0827
35938POPC   C1A77240   6.074  30.751  19.602 -0.1339 -0.1087  0.0876
35938POPC   D2A77241   6.469  30.743  19.405  0.1101  0.0302  0.0923
35938POPC   C3A77242   6.847  31.129  19.344 -0.0341 -0.1085  0.0002
35938POPC   C4A77243   7.250  31.240  19.434 -0.0299 -0.1210  0.0168
35938POPC   C1B77244   5.679  30.425  19.477 -0.1980  0.2728  0.2691
35938POPC   C2B77245   5.704  30.401  19.055  0.1963 -0.2671  0.0676
35938POPC   C3B77246   5.783  30.031  18.714  0.1457 -0.1979  0.0527
35938POPC   C4B77247   5.655  29.643  18.435  0.0956  0.0829  0.0066
35939POPC   NC377248   6.705  28.955  20.383 -0.0046 -0.1378 -0.3189
35939POPC   PO477249   6.333  28.984  20.554 -0.0485 -0.0760 -0.1918
35939POPC   GL177250   6.151  29.184  20.171 -0.1722 -0.5758 -0.0737
35939POPC   GL277251   6.334  29.157  19.995  0.0261 -0.0700  0.0243
35939POPC   C1A77252   5.860  29.430  19.936  0.0114 -0.0731  0.4142
35939POPC   D2A77253   5.755  29.868  19.684 -0.4316 -0.0068  0.0914
35939POPC   C3A77254   5.360  29.884  19.452  0.1303  0.3588 -0.0384
35939POPC   C4A77255   5.217  30.287  19.275  0.1584  0.0828  0.1860
35939POPC   C1B77256   6.116  29.016  19.647  0.1126 -0.5082  0.0205
35939POPC   C2B77257   5.983  28.944  19.183 -0.1076  0.0273 -0.3325
35939POPC   C3B77258   6.147  28.964  18.754 -0.0238 -0.0841  0.0111
35939POPC   C4B77259   6.228  28.769  18.302  0.0520  0.0702  0.0716
35940POPC   NC377260   9.230  23.135  15.201 -0.2367 -0.0832 -0.0220
35940POPC   PO477261   9.498  23.369  15.319 -0.0668 -0.0112 -0.1068
35940POPC   GL177262   9.522  23.724  15.161  0.1860  0.3394  0.0736
35940POPC   GL277263   9.600  23.848  15.463  0.2159  0.2231  0.1622
35940POPC   C1A77264   9.852  24.047  15.100 -0.1041  0.0470  0.0742
35940POPC   D2A77265  10.222  24.221  14.886  0.1009  0.3409  0.0824
35940POPC   C3A77266  10.408  24.404  15.302 -0.0309 -0.0315 -0.1411
35940POPC   C4A77267  10.494  24.414  15.786 -0.0824  0.0657  0.3513
35940POPC   C1B77268   9.340  24.204  15.402  0.1967  0.0108 -0.1360
35940POPC   C2B77269   9.233  24.598  15.242 -0.0466 -0.0001 -0.0988
35940POPC   C3B77270   9.517  24.962  15.218 -0.2020  0.1195 -0.3853
35940POPC   C4B77271   9.356  25.377  15.362  0.2205 -0.2214 -0.2625
35941POPC   NC377272  11.167  17.595  19.523 -0.0008  0.0217 -0.0683
35941POPC   PO477273  11.172  17.545  19.120 -0.5058  0.2455 -0.1907
35941POPC   GL177274  11.514  17.373  18.892  0.1296 -0.0997  0.2170
35941POPC   GL277275  11.371  17.483  18.692  0.0314  0.0770  0.0913
35941POPC   C1A77276  11.741  17.040  18.617 -0.1296 -0.4409 -0.2602
35941POPC   D2A77277  11.958  16.594  18.640  0.2609 -0.0633 -0.2918
35941POPC   C3A77278  11.935  16.441  18.200  0.1892  0.1354 -0.0543
35941POPC   C4A77279  12.030  16.319  17.726 -0.1454 -0.2249  0.0208
35941POPC   C1B77280  11.087  17.490  18.271 -0.0996  0.2083 -0.3406
35941POPC   C2B77281  10.995  17.339  17.817  0.0239 -0.2276 -0.0874
35941POPC   C3B77282  10.962  17.160  17.408 -0.2141  0.0082  0.3041
35941POPC   C4B77283  11.322  17.078  17.114  0.0563  0.0555  0.3901
35942POPC   NC377284   5.561  19.847  19.069  0.2570  0.0118  0.1498
35942POPC   PO477285   5.447  19.799  18.697  0.0914  0.0128 -0.0087
35942POPC   GL177286   5.352  19.592  18.400 -0.3846  0.1280  0.1693
35942POPC   GL277287   5.066  19.614  18.335  0.2386  0.0972  0.2334
35942POPC   C1A77288   5.471  19.562  17.973 -0.1370  0.2615  0.2232
35942POPC   D2A77289   5.658  19.781  17.587 -0.3961 -0.0118 -0.1395
35942POPC   C3A77290   5.752  19.560  17.173 -0.0787 -0.1608  0.1416
35942POPC   C4A77291   6.106  19.320  16.885  0.1961 -0.2990 -0.0882
35942POPC   C1B77292   4.984  19.749  17.898 -0.0852  0.0936  0.2596
35942POPC   C2B77293   5.173  19.849  17.499 -0.2361  0.2043  0.1922
35942POPC   C3B77294   5.140  19.590  17.115 -0.0122  0.0732 -0.3152
35942POPC   C4B77295   5.104  19.237  16.849  0.3616  0.0008  0.1595
35943POPC   NC377296  15.954  22.905  19.556  0.2590  0.0068 -0.0134
35943POPC   PO477297  15.573  23.008  19.504 -0.1436  0.2834  0.1781
35943POPC   GL177298  15.640  23.053  19.056 -0.1872  0.0566 -0.3215
35943POPC   GL277299  15.859  22.890  19.013  0.3358 -0.1896 -0.1637
35943POPC   C1A77300  15.449  23.276  18.673 -0.0969 -0.0256 -0.0479
35943POPC   D2A77301  15.401  23.587  18.302 -0.0257  0.3547  0.0660
35943POPC   C3A77302  15.637  23.653  17.884 -0.2748 -0.3581  0.3461
35943POPC   C4A77303  16.098  23.717  17.730  0.1182  0.0141  0.2367
35943POPC   C1B77304  15.887  23.047  18.581 -0.1829 -0.0065 -0.2126
35943POPC   C2B77305  15.998  23.167  18.164  0.2567 -0.0108  0.1547
35943POPC   C3B77306  15.810  23.240  17.762 -0.1035  0.2483 -0.1146
35943POPC   C4B77307  15.527  22.963  17.589  0.1658  0.1530  0.2036
35944POPC   NC377308  12.399  31.432  20.257  0.0468 -0.1723 -0.3758
35944POPC   PO477309  12.649  31.738  20.261  0.0317 -0.0895 -0.1732
35944POPC   GL177310  12.531  31.670  19.859 -0.0451  0.1847 -0.0635
35944POPC   GL277311  12.796  31.556  19.795 -0.5111 -0.0191  0.1940
35944POPC   C1A77312  12.369  31.881  19.475  0.0719 -0.3038 -0.0009
35944POPC   D2A77313  12.065  31.947  19.088  0.0984  0.0672 -0.4001
35944POPC   C3A77314  11.894  31.719  18.751 -0.0741  0.2140  0.1049
35944POPC   C4A77315  11.710  31.362  18.505  0.0042 -0.0225 -0.1149
35944POPC   C1B77316  13.166  31.825  19.640  0.0903 -0.0107  0.2753
35944POPC   C2B77317  13.431  31.827  19.239 -0.1834  0.1731 -0.2896
35944POPC   C3B77318  13.440  31.527  18.911 -0.1555 -0.0634 -0.0531
35944POPC   C4B77319  13.208  31.121  18.848 -0.2212 -0.0639  0.1619
35945POPC   NC377320  16.830  28.756  20.302 -0.1225 -0.2822 -0.0420
35945POPC   PO477321  17.118  28.495  20.407  0.1583  0.0640 -0.1246
35945POPC   GL177322  17.277  28.526  20.076 -0.1082  0.2505 -0.5985
35945POPC   GL277323  17.214  28.756  19.942 -0.1766 -0.1822 -0.1016
35945POPC   C1A77324  17.277  28.371  19.630  0.0753 -0.0628 -0.0172
35945POPC   D2A77325  17.552  28.050  19.396  0.0779  0.0846 -0.0301
35945POPC   C3A77326  17.666  27.743  19.123 -0.2538 -0.4213  0.0023
35945POPC   C4A77327  17.850  27.398  18.892 -0.2268  0.1866 -0.1599
35945POPC   C1B77328  16.746  28.707  19.736 -0.1535 -0.2632 -0.2516
35945POPC   C2B77329  16.478  28.646  19.360 -0.1927 -0.0630  0.1580
35945POPC   C3B77330  16.090  28.514  19.168 -0.0302  0.0901 -0.1234
35945POPC   C4B77331  15.743  28.301  19.412 -0.1266 -0.2549  0.0351
35946POPC   NC377332  12.468  15.929  20.311  0.0164 -0.1575 -0.0857
35946POPC   PO477333  12.279  16.226  20.139  0.1299 -0.1233  0.0260
35946POPC   GL177334  12.193  16.071  19.819  0.4290 -0.3133  0.1209
35946POPC   GL277335  12.118  15.823  19.954 -0.2233 -0.0040  0.2037
35946POPC   C1A77336  12.205  16.235  19.367 -0.2653  0.0367  0.4533
35946POPC   D2A77337  12.225  16.281  18.895  0.1370 -0.2202 -0.1311
35946POPC   C3A77338  12.483  16.157  18.463  0.0795  0.1012  0.0436
35946POPC   C4A77339  12.680  16.168  18.067 -0.3264 -0.2032  0.0141
35946POPC   C1B77340  11.980  15.777  19.492  0.1787 -0.0605  0.2211
35946POPC   C2B77341  11.991  15.869  18.975  0.0972 -0.0358  0.1142
35946POPC   C3B77342  12.029  15.959  18.536 -0.0229  0.3149  0.2790
35946POPC   C4B77343  12.187  16.028  18.075 -0.1062 -0.1139 -0.3349
35947POPC   NC377344  14.426  15.964  20.231 -0.0541 -0.2843 -0.4547
35947POPC   PO477345  14.647  15.663  20.075  0.0910  0.1305  0.0369
35947POPC   GL177346  14.685  15.754  19.702 -0.1770  0.0295 -0.0818
35947POPC   GL277347  14.672  16.075  19.641 -0.1750  0.0812 -0.0456
35947POPC   C1A77348  14.953  15.478  19.446 -0.3179  0.0104 -0.0173
35947POPC   D2A77349  15.283  15.162  19.281 -0.0027  0.3274  0.0657
35947POPC   C3A77350  15.506  15.189  18.925 -0.0864 -0.1007  0.0954
35947POPC   C4A77351  15.581  15.062  18.473  0.0892 -0.0355  0.1561
35947POPC   C1B77352  14.275  16.346  19.456 -0.2535 -0.3853  0.1722
35947POPC   C2B77353  14.001  16.452  19.099  0.0611  0.2287 -0.0308
35947POPC   C3B77354  13.939  16.199  18.723  0.0691  0.0442  0.1147
35947POPC   C4B77355  13.862  15.820  18.466 -0.0938  0.3162 -0.2116
35948POPC   NC377356  11.906  22.518  17.360 -0.0180  0.2601 -0.0260
35948POPC   PO477357  11.776  22.294  17.077  0.2301 -0.1920 -0.1655
35948POPC   GL177358  12.091  22.506  16.868  0.1718  0.4352  0.1382
35948POPC   GL277359  12.299  22.649  16.996 -0.0141 -0.1939 -0.0060
35948POPC   C1A77360  12.469  22.392  16.601 -0.0775 -0.1493 -0.0155
35948POPC   D2A77361  12.859  22.493  16.375 -0.1848 -0.3303  0.1154
35948POPC   C3A77362  12.901  22.454  15.918  0.1302  0.0701 -0.0270
35948POPC   C4A77363  13.074  22.346  15.518 -0.1484 -0.0431 -0.1039
35948POPC   C1B77364  12.665  22.805  16.770  0.0463  0.1245  0.0947
35948POPC   C2B77365  13.037  22.923  16.509  0.0699 -0.0432  0.1203
35948POPC   C3B77366  13.362  22.886  16.207  0.0124  0.0860  0.0506
35948POPC   C4B77367  13.807  22.855  16.004  0.0325  0.1542 -0.1038
35949POPC   NC377368  12.637  21.324  17.601 -0.1028  0.0433  0.0439
35949POPC   PO477369  12.291  21.121  17.627  0.2356 -0.0507  0.3095
35949POPC   GL177370  12.455  20.922  17.351 -0.1606 -0.0021  0.1087
35949POPC   GL277371  12.564  21.036  17.142 -0.1516 -0.3782 -0.1181
35949POPC   C1A77372  12.599  20.540  17.450 -0.1886  0.2559 -0.2212
35949POPC   D2A77373  12.940  20.326  17.679 -0.1638  0.1085  0.0209
35949POPC   C3A77374  12.887  19.914  17.529  0.1488  0.1028  0.1083
35949POPC   C4A77375  12.878  19.612  17.225 -0.0941 -0.0339  0.0923
35949POPC   C1B77376  12.664  20.784  16.753 -0.1377 -0.1845  0.2712
35949POPC   C2B77377  12.848  20.605  16.334 -0.0075  0.1118  0.1354
35949POPC   C3B77378  13.175  20.654  16.006 -0.2762  0.0896 -0.1283
35949POPC   C4B77379  13.428  20.811  15.644 -0.1178  0.0148  0.1970
35950POPC   NC377380   3.986  18.719  19.906  0.1108 -0.0915 -0.0060
35950POPC   PO477381   3.728  18.499  19.762 -0.1678 -0.0809  0.3308
35950POPC   GL177382   3.679  18.380  19.374 -0.1378  0.1866  0.1717
35950POPC   GL277383   3.932  18.286  19.195 -0.1936 -0.0989 -0.0697
35950POPC   C1A77384   3.337  18.396  19.037 -0.1331 -0.0410  0.0768
35950POPC   D2A77385   3.079  18.314  18.648  0.3453  0.2710  0.2512
35950POPC   C3A77386   2.697  18.120  18.434  0.0080  0.1015  0.2667
35950POPC   C4A77387   2.257  17.976  18.412  0.1832  0.0715  0.1186
35950POPC   C1B77388   3.687  18.065  18.819 -0.1040  0.1492  0.0743
35950POPC   C2B77389   3.633  17.944  18.407  0.1200  0.0397  0.1305
35950POPC   C3B77390   3.479  17.941  17.954 -0.4265  0.1589 -0.1210
35950POPC   C4B77391   3.321  18.169  17.589 -0.1846  0.2383  0.2015
35951POPC   NC377392   6.485  18.272  19.156 -0.0479 -0.0987 -0.2081
35951POPC   PO477393   6.608  17.947  18.970  0.0374  0.1345  0.1007
35951POPC   GL177394   6.469  17.875  18.617  0.2214 -0.0214  0.0240
35951POPC   GL277395   6.393  18.110  18.576 -0.1740  0.0226  0.2843
35951POPC   C1A77396   6.296  17.811  18.179  0.0107 -0.0888  0.0959
35951POPC   D2A77397   6.222  17.825  17.728 -0.0120  0.0481 -0.2273
35951POPC   C3A77398   5.921  18.101  17.451  0.0272 -0.0677 -0.4844
35951POPC   C4A77399   5.587  18.229  17.167 -0.1376 -0.2786 -0.0058
35951POPC   C1B77400   6.099  18.375  18.276  0.1647 -0.2337  0.0576
35951POPC   C2B77401   5.900  18.445  17.795 -0.1675  0.1199 -0.1416
35951POPC   C3B77402   5.631  18.627  17.434  0.1516  0.0861 -0.2448
35951POPC   C4B77403   5.285  18.718  17.114 -0.4839  0.0785  0.3887
35952POPC   NC377404   3.611  26.638  20.150 -0.1710  0.1240 -0.0287
35952POPC   PO477405   3.931  26.440  20.295 -0.2761  0.0191  0.1468
35952POPC   GL177406   3.983  26.346  19.951  0.1592  0.0033  0.0112
35952POPC   GL277407   3.821  26.015  19.933 -0.3199  0.0829  0.2786
35952POPC   C1A77408   4.302  26.353  19.626 -0.0499 -0.0360 -0.1104
35952POPC   D2A77409   4.492  26.328  19.196  0.1300  0.1506  0.0535
35952POPC   C3A77410   4.947  26.341  19.054  0.3081 -0.0445  0.2796
35952POPC   C4A77411   5.176  26.728  19.103 -0.1788 -0.0134  0.0117
35952POPC   C1B77412   3.618  26.094  19.539  0.1612  0.0310  0.4127
35952POPC   C2B77413   3.414  26.096  19.104  0.0154 -0.1612 -0.0535
35952POPC   C3B77414   3.033  25.923  18.905  0.0552 -0.0309 -0.2789
35952POPC   C4B77415   2.709  26.042  18.579 -0.0596 -0.3172 -0.1193
35953POPC   NC377416   6.756  18.998  18.540 -0.0177  0.3164 -0.4695
35953POPC   PO477417   7.096  19.131  18.515 -0.1988 -0.1643 -0.1321
35953POPC   GL177418   7.011  19.038  18.091  0.0552 -0.1853 -0.3026
35953POPC   GL277419   6.726  19.079  18.016 -0.0899  0.1518  0.3580
35953POPC   C1A77420   6.975  18.624  17.790 -0.1044  0.1342  0.1185
35953POPC   D2A77421   7.041  18.271  17.506 -0.0314  0.1863 -0.0175
35953POPC   C3A77422   6.827  18.183  17.126 -0.0511  0.2032  0.0487
35953POPC   C4A77423   6.439  17.881  17.275 -0.1768  0.1959  0.3802
35953POPC   C1B77424   6.461  19.363  17.747 -0.2307  0.2707  0.3003
35953POPC   C2B77425   6.217  19.571  17.388  0.0295 -0.0679 -0.1673
35953POPC   C3B77426   6.237  19.829  17.006  0.2228  0.0281 -0.2947
35953POPC   C4B77427   6.021  19.804  16.603 -0.0970  0.0254 -0.6320
35954POPC   NC377428   4.952  26.597  20.561  0.0902  0.0751 -0.1642
35954POPC   PO477429   4.842  26.875  20.327  0.0601  0.0408  0.1329
35954POPC   GL177430   4.622  26.993  19.958  0.2828 -0.2672  0.1067
35954POPC   GL277431   4.583  27.339  20.014  0.1549  0.3824  0.0365
35954POPC   C1A77432   4.841  27.135  19.600 -0.1996 -0.2315  0.3040
35954POPC   D2A77433   4.709  27.208  19.159  0.1560 -0.1154  0.1472
35954POPC   C3A77434   4.627  26.779  18.940  0.1045 -0.4706 -0.2233
35954POPC   C4A77435   4.481  26.420  18.724 -0.0753 -0.2123  0.2323
35954POPC   C1B77436   4.643  27.580  19.655  0.0279 -0.1890 -0.1573
35954POPC   C2B77437   4.700  27.721  19.252 -0.0583 -0.1943  0.1607
35954POPC   C3B77438   4.892  27.900  18.863  0.4016  0.0256  0.2858
35954POPC   C4B77439   5.027  28.081  18.457 -0.3351  0.4197  0.3038
35955POPC   NC377440  11.595  21.723  16.421 -0.1091  0.1603 -0.0775
35955POPC   PO477441  11.456  21.395  16.477 -0.0067 -0.1065 -0.1739
35955POPC   GL177442  11.739  21.278  16.282  0.0963  0.2337 -0.0486
35955POPC   GL277443  11.790  20.982  16.414 -0.1054  0.1237 -0.0132
35955POPC   C1A77444  11.995  21.154  15.826 -0.1683 -0.0961 -0.1574
35955POPC   D2A77445  12.371  21.212  15.606  0.0715  0.2267 -0.1762
35955POPC   C3A77446  12.411  21.675  15.608  0.0293  0.0168 -0.0707
35955POPC   C4A77447  12.135  22.007  15.539  0.2312 -0.1716  0.1695
35955POPC   C1B77448  12.263  20.996  16.308 -0.2504  0.1249 -0.1050
35955POPC   C2B77449  12.572  20.879  15.992  0.1363  0.0487  0.1215
35955POPC   C3B77450  12.635  20.819  15.528 -0.1224  0.2281 -0.4402
35955POPC   C4B77451  12.930  20.980  15.207  0.4152 -0.0489  0.1114
35956POPC   NC377452   2.578  31.899  20.785  0.1026  0.0675 -0.1536
35956POPC   PO477453   2.913  32.059  20.714  0.3488 -0.2196  0.0801
35956POPC   GL177454   2.919  31.836  20.423 -0.0464 -0.1643 -0.0815
35956POPC   GL277455   2.709  31.943  20.224  0.0463  0.0369 -0.3118
35956POPC   C1A77456   3.212  31.817  20.060 -0.3343  0.1288 -0.0831
35956POPC   D2A77457   3.336  31.849  19.646  0.3450 -0.0863 -0.0197
35956POPC   C3A77458   3.507  31.564  19.290 -0.0614  0.2655 -0.2694
35956POPC   C4A77459   3.832  31.589  18.981  0.1634 -0.3554 -0.0161
35956POPC   C1B77460   2.779  31.658  19.844 -0.2293 -0.0899  0.1898
35956POPC   C2B77461   2.625  31.535  19.371  0.1691 -0.1711 -0.3645
35956POPC   C3B77462   2.447  31.162  19.183  0.0213 -0.0730 -0.1922
35956POPC   C4B77463   2.399  31.025  18.768 -0.1440  0.0309  0.1427
35957POPC   NC377464  12.349  25.045  18.639 -0.0169  0.1077 -0.1531
35957POPC   PO477465  12.735  24.896  18.770 -0.1626 -0.0793 -0.0642
35957POPC   GL177466  12.789  24.967  18.405  0.0459 -0.0096  0.1851
35957POPC   GL277467  12.721  25.245  18.393 -0.2987  0.2314  0.5026
35957POPC   C1A77468  12.784  24.954  17.963 -0.0132  0.1481  0.0540
35957POPC   D2A77469  12.970  24.996  17.549  0.1774  0.2140 -0.4844
35957POPC   C3A77470  12.860  24.787  17.152 -0.1263  0.2831  0.0169
35957POPC   C4A77471  12.787  24.656  16.736 -0.0768 -0.0448 -0.2546
35957POPC   C1B77472  12.818  25.487  17.991 -0.0034  0.0013  0.2003
35957POPC   C2B77473  12.810  25.562  17.522 -0.0539 -0.0891 -0.1330
35957POPC   C3B77474  12.947  25.555  17.107  0.0952  0.1756  0.0903
35957POPC   C4B77475  12.913  25.272  16.698  0.0545 -0.2712 -0.2152
35958POPC   NC377476   2.016  28.684  20.331  0.3876  0.2882 -0.3340
35958POPC   PO477477   2.037  28.958  20.639  0.1651  0.1185  0.0133
35958POPC   GL177478   2.133  29.196  20.334  0.1330 -0.2048  0.2093
35958POPC   GL277479   1.909  29.166  20.184 -0.2606  0.0164  0.2802
35958POPC   C1A77480   2.139  29.638  20.172 -0.2279  0.0209  0.2250
35958POPC   D2A77481   2.173  30.002  19.913  0.0085  0.0551 -0.1901
35958POPC   C3A77482   2.510  30.309  19.956  0.2027  0.0101  0.4095
35958POPC   C4A77483   2.550  30.818  19.977  0.0224  0.1928 -0.5270
35958POPC   C1B77484   1.768  29.434  19.838  0.1149  0.0842  0.0706
35958POPC   C2B77485   1.818  29.709  19.521  0.1923 -0.1677  0.1227
35958POPC   C3B77486   1.753  29.719  19.073  0.1400 -0.1064 -0.1727
35958POPC   C4B77487   1.805  29.775  18.607  0.2343 -0.1071 -0.0076
35959POPC   NC377488   7.236  24.299  19.794  0.2783  0.2425  0.0792
35959POPC   PO477489   6.917  24.470  19.660 -0.0911  0.0536 -0.1153
35959POPC   GL177490   6.752  24.698  19.359  0.0308 -0.0824 -0.0229
35959POPC   GL277491   6.905  24.964  19.291  0.2172  0.0268 -0.1157
35959POPC   C1A77492   6.647  24.743  18.897  0.0136  0.1257  0.0496
35959POPC   D2A77493   6.266  24.937  18.660  0.2596  0.0383  0.1935
35959POPC   C3A77494   5.994  24.834  18.267  0.5490  0.0256  0.0416
35959POPC   C4A77495   6.270  24.652  17.951 -0.0991 -0.0806 -0.1744
35959POPC   C1B77496   6.877  25.195  18.975 -0.0581  0.1363  0.3699
35959POPC   C2B77497   6.609  25.358  18.691 -0.0268  0.0541  0.0818
35959POPC   C3B77498   6.456  25.205  18.317  0.0415 -0.0717  0.1508
35959POPC   C4B77499   6.309  25.409  17.912  0.0046 -0.1865 -0.4325
35960POPC   NC377500  13.738  19.854  19.236 -0.2161  0.1498 -0.0234
35960POPC   PO477501  14.120  19.820  19.182 -0.1004 -0.0574 -0.1408
35960POPC   GL177502  14.328  19.846  18.835  0.1194 -0.2843  0.4005
35960POPC   GL277503  14.370  20.142  18.798 -0.2133  0.3580  0.0751
35960POPC   C1A77504  14.572  19.879  18.438 -0.0763 -0.3685  0.1116
35960POPC   D2A77505  14.801  20.257  18.159 -0.3122  0.1997  0.4321
35960POPC   C3A77506  15.050  20.331  17.796 -0.0278 -0.1607 -0.1366
35960POPC   C4A77507  15.339  20.024  17.685  0.1564  0.1855  0.0822
35960POPC   C1B77508  14.437  20.539  18.550  0.1159  0.0352  0.0314
35960POPC   C2B77509  14.541  20.734  18.158 -0.1116 -0.0255  0.3714
35960POPC   C3B77510  14.617  20.774  17.700 -0.0340 -0.3260  0.0702
35960POPC   C4B77511  14.845  20.574  17.390  0.1307  0.0078  0.0433
35961POPC   NC377512  10.450  23.470  13.308 -0.1859 -0.0865 -0.1569
35961POPC   PO477513  10.108  23.328  13.230 -0.0788 -0.2444  0.0061
35961POPC   GL177514  10.097  23.718  13.112 -0.2191 -0.1809 -0.0240
35961POPC   GL277515  10.174  23.745  12.837  0.0830 -0.1694 -0.1357
35961POPC   C1A77516   9.890  24.139  13.149 -0.0502  0.0561  0.4901
35961POPC   D2A77517   9.483  24.415  13.122 -0.0392  0.1324 -0.3892
35961POPC   C3A77518   9.438  24.651  12.765 -0.2761 -0.3993  0.0324
35961POPC   C4A77519   9.429  24.871  12.314 -0.3267 -0.0179 -0.0543
35961POPC   C1B77520  10.420  24.140  12.802  0.0790 -0.0001  0.0380
35961POPC   C2B77521  10.855  24.300  12.885  0.0497 -0.2686  0.1937
35961POPC   C3B77522  11.238  24.423  12.780  0.1927 -0.0914  0.3223
35961POPC   C4B77523  11.378  24.847  12.579 -0.1194  0.0034  0.0493
35962POPC   NC377524   7.333  31.767  20.812  0.3498  0.0843 -0.1437
35962POPC   PO477525   7.455  31.842  20.442  0.1891  0.1031 -0.3650
35962POPC   GL177526   7.411  31.817  20.069 -0.0067 -0.1966  0.3087
35962POPC   GL277527   7.379  32.026  19.890 -0.0688 -0.0973 -0.1787
35962POPC   C1A77528   7.424  31.384  19.842  0.0658  0.0377 -0.1595
35962POPC   D2A77529   7.450  30.936  19.813 -0.3315 -0.2285 -0.0523
35962POPC   C3A77530   7.849  30.841  19.517  0.2076 -0.1452 -0.0319
35962POPC   C4A77531   8.170  30.726  19.226  0.1268  0.2412  0.2574
35962POPC   C1B77532   7.199  31.785  19.523 -0.4156 -0.1439  0.0482
35962POPC   C2B77533   7.227  31.589  19.106  0.0276 -0.1661  0.0157
35962POPC   C3B77534   7.027  31.661  18.684 -0.1725 -0.2379  0.2505
35962POPC   C4B77535   6.926  31.701  18.220 -0.2752  0.1042 -0.0323
35963POPC   NC377536   5.493  22.571  18.912 -0.2541  0.1353 -0.3068
35963POPC   PO477537   5.388  22.819  19.226 -0.1579 -0.0644 -0.0782
35963POPC   GL177538   5.089  22.954  18.935 -0.1493 -0.4295 -0.1001
35963POPC   GL277539   5.103  23.255  19.028  0.0585  0.0538  0.0641
35963POPC   C1A77540   5.285  22.964  18.485 -0.0243 -0.2110 -0.3905
35963POPC   D2A77541   5.541  22.642  18.319  0.2487 -0.2257  0.0474
35963POPC   C3A77542   5.328  22.546  17.896 -0.1338  0.1268 -0.2521
35963POPC   C4A77543   5.383  22.353  17.467 -0.0452  0.0284 -0.1414
35963POPC   C1B77544   5.128  23.615  18.742 -0.0096 -0.1226  0.2532
35963POPC   C2B77545   5.013  23.889  18.380 -0.0217 -0.0409 -0.0727
35963POPC   C3B77546   5.138  23.807  17.949 -0.2066 -0.0029 -0.2224
35963POPC   C4B77547   5.377  23.611  17.700  0.1648  0.0270  0.1835
35964POPC   NC377548   7.601  21.946  17.371  0.1876  0.1070  0.2794
35964POPC   PO477549   7.592  22.337  17.236 -0.3575 -0.0624  0.0099
35964POPC   GL177550   7.296  22.454  17.010  0.2857  0.4709  0.3469
35964POPC   GL277551   7.164  22.703  17.051 -0.0292 -0.0358 -0.1015
35964POPC   C1A77552   7.107  22.398  16.615  0.1638 -0.2542  0.1796
35964POPC   D2A77553   6.688  22.230  16.560  0.2900  0.0243  0.0673
35964POPC   C3A77554   6.207  22.201  16.549 -0.0364 -0.2286 -0.3126
35964POPC   C4A77555   5.772  22.162  16.553  0.2136  0.2363  0.0283
35964POPC   C1B77556   6.974  22.893  16.714  0.1153  0.4458  0.0082
35964POPC   C2B77557   7.077  22.934  16.232  0.1842 -0.1466  0.3288
35964POPC   C3B77558   7.064  22.987  15.772 -0.0030 -0.0882 -0.5466
35964POPC   C4B77559   6.888  22.851  15.419  0.2362 -0.0185  0.0646
35965POPC   NC377560  13.081  21.244  17.326  0.0196  0.1519 -0.1414
35965POPC   PO477561  13.320  21.514  17.354  0.2155 -0.1951 -0.1535
35965POPC   GL177562  13.442  21.705  17.037  0.1245  0.0082  0.2563
35965POPC   GL277563  13.475  22.002  16.926  0.1669  0.0399  0.0466
35965POPC   C1A77564  13.583  21.487  16.661  0.0302 -0.0116 -0.3770
35965POPC   D2A77565  13.556  21.454  16.214 -0.1439  0.0004 -0.0746
35965POPC   C3A77566  13.422  21.142  16.020 -0.2712  0.3627 -0.0569
35965POPC   C4A77567  13.003  21.147  15.796 -0.0552  0.0560 -0.0350
35965POPC   C1B77568  13.861  22.113  16.704 -0.1697  0.1030  0.1837
35965POPC   C2B77569  14.355  22.124  16.602 -0.1409  0.0969  0.1638
35965POPC   C3B77570  14.694  22.310  16.868  0.0977 -0.1038 -0.3577
35965POPC   C4B77571  14.989  22.328  17.204 -0.5419  0.0490 -0.3048
35966POPC   NC377572  32.193  30.245  21.078 -0.0706  0.2489 -0.1237
35966POPC   PO477573  31.978  30.125  20.832  0.1004  0.1474  0.1830
35966POPC   GL177574  32.132  29.910  20.515  0.0602  0.2126  0.2004
35966POPC   GL277575  32.408  29.946  20.485  0.4360  0.0819 -0.1598
35966POPC   C1A77576  32.137  30.049  20.102  0.0342  0.0554 -0.1617
35966POPC   D2A77577  32.162  30.286  19.708 -0.0382  0.0371  0.4378
35966POPC   C3A77578  32.210  30.000  19.274  0.1085  0.2077 -0.0475
35966POPC   C4A77579  32.221  29.978  18.870  0.2556  0.0538 -0.0952
35966POPC   C1B77580  32.662  29.969  20.088  0.1072  0.1253  0.1575
35966POPC   C2B77581  32.680  30.138  19.632  0.3991  0.0371 -0.3601
35966POPC   C3B77582  32.655  30.195  19.166  0.0520  0.1352 -0.1398
35966POPC   C4B77583  32.719  30.137  18.708 -0.1595  0.1732  0.2575
35967POPC   NC377584   9.943  23.001  12.721  0.2343  0.1111  0.1650
35967POPC   PO477585  10.265  23.259  12.749  0.3306 -0.2216 -0.1059
35967POPC   GL177586  10.560  23.456  12.793 -0.3436  0.0936 -0.0530
35967POPC   GL277587  10.810  23.275  12.938 -0.2723 -0.1894  0.3654
35967POPC   C1A77588  10.724  23.817  13.020 -0.2400  0.1114 -0.2483
35967POPC   D2A77589  10.702  24.203  13.394  0.1341  0.1107  0.1062
35967POPC   C3A77590  10.412  24.491  13.137 -0.0028 -0.1441 -0.0206
35967POPC   C4A77591  10.437  24.896  12.916  0.0039 -0.2463 -0.2963
35967POPC   C1B77592  11.104  23.563  12.743 -0.1195 -0.3008  0.1074
35967POPC   C2B77593  11.286  23.895  12.515 -0.7020  0.0369 -0.1168
35967POPC   C3B77594  11.313  23.929  12.048 -0.1801  0.0840 -0.0674
35967POPC   C4B77595  11.600  23.630  11.788 -0.3982 -0.1298  0.2055
35968POPC   NC377596   0.909  21.684  19.825  0.2244  0.2609 -0.0520
35968POPC   PO477597   0.658  21.393  19.693  0.1154 -0.1410  0.2124
35968POPC   GL177598   0.840  21.088  19.473 -0.0073  0.3323  0.0686
35968POPC   GL277599   1.100  20.889  19.479  0.0881  0.0524 -0.0538
35968POPC   C1A77600   0.642  20.890  19.099  0.0597  0.1325  0.0481
35968POPC   D2A77601   0.821  20.525  18.769 -0.0132  0.1596 -0.0502
35968POPC   C3A77602   0.754  20.608  18.290  0.0417 -0.3805 -0.2080
35968POPC   C4A77603   1.039  20.753  17.965  0.0164 -0.0785 -0.1889
35968POPC   C1B77604   1.153  20.953  19.007  0.0697  0.2387  0.1890
35968POPC   C2B77605   1.070  20.907  18.545 -0.1169  0.1271  0.0531
35968POPC   C3B77606   1.306  21.107  18.219 -0.2120  0.2377 -0.2357
35968POPC   C4B77607   1.600  21.176  17.855  0.0793 -0.0785 -0.2397
35969POPC   NC377608   6.367  24.959  19.258 -0.1384  0.0341 -0.0910
35969POPC   PO477609   6.333  25.099  19.640  0.2048  0.1290 -0.1980
35969POPC   GL177610   6.288  25.534  19.612  0.0314  0.2297 -0.3109
35969POPC   GL277611   5.965  25.531  19.498  0.2392  0.1019  0.0047
35969POPC   C1A77612   6.539  25.794  19.245 -0.0108  0.1469 -0.2382
35969POPC   D2A77613   6.710  26.250  19.205 -0.1595 -0.1353  0.0918
35969POPC   C3A77614   6.648  26.468  18.782 -0.3386  0.2805  0.2611
35969POPC   C4A77615   6.753  26.442  18.341 -0.0929 -0.1693  0.0477
35969POPC   C1B77616   6.009  25.908  19.208 -0.2931 -0.0131  0.1155
35969POPC   C2B77617   5.755  26.237  19.015  0.0497 -0.0224 -0.1898
35969POPC   C3B77618   5.440  26.377  18.778 -0.0726 -0.1033  0.0778
35969POPC   C4B77619   5.065  26.610  18.650 -0.2692  0.1477 -0.0400
35970POPC   NC377620   8.816  22.680  14.445 -0.2491 -0.0564  0.0558
35970POPC   PO477621   8.844  23.013  14.313 -0.0206 -0.0329  0.0056
35970POPC   GL177622   8.701  23.239  14.072  0.0131  0.1721  0.1735
35970POPC   GL277623   8.812  23.148  13.759  0.5275 -0.2944 -0.2499
35970POPC   C1A77624   8.322  23.151  13.744 -0.0574 -0.0130 -0.1928
35970POPC   D2A77625   7.868  23.062  13.742  0.3648  0.0305  0.0669
35970POPC   C3A77626   7.684  22.967  14.126  0.1546  0.0144 -0.1675
35970POPC   C4A77627   7.421  23.169  14.472  0.0166 -0.2163  0.1167
35970POPC   C1B77628   8.680  23.607  13.681 -0.4474 -0.1888  0.1407
35970POPC   C2B77629   8.658  24.076  13.654 -0.3267  0.4045  0.0376
35970POPC   C3B77630   8.672  24.506  13.510  0.1833 -0.1770  0.1440
35970POPC   C4B77631   8.449  24.766  13.200  0.0676  0.2570 -0.1205
35971POPC   NC377632   8.494  30.702  20.159  0.1123  0.4761 -0.1210
35971POPC   PO477633   8.808  30.861  20.015 -0.2025  0.1407 -0.1430
35971POPC   GL177634   8.713  30.669  19.627 -0.0371 -0.1281 -0.2032
35971POPC   GL277635   8.506  30.927  19.604 -0.1212  0.1766  0.1634
35971POPC   C1A77636   8.546  30.356  19.299  0.1148  0.3937  0.3217
35971POPC   D2A77637   8.282  30.255  18.938 -0.2593  0.2239 -0.1064
35971POPC   C3A77638   8.460  30.591  18.702  0.0517  0.1498  0.0889
35971POPC   C4A77639   8.462  30.963  18.486 -0.0965 -0.2284  0.0804
35971POPC   C1B77640   8.670  30.903  19.209 -0.3106  0.4158  0.0118
35971POPC   C2B77641   8.823  31.011  18.828 -0.3317 -0.1370  0.1546
35971POPC   C3B77642   9.233  31.035  18.551  0.0334 -0.0606 -0.1179
35971POPC   C4B77643   9.498  31.459  18.657 -0.1681  0.0672  0.0283
35972POPC   NC377644  10.490  25.955  19.885  0.0071  0.0379 -0.1652
35972POPC   PO477645  10.111  25.912  19.886 -0.0495  0.2109 -0.3248
35972POPC   GL177646  10.176  26.248  19.725  0.1674 -0.1031  0.0101
35972POPC   GL277647   9.925  26.240  19.581  0.0029  0.0515  0.3342
35972POPC   C1A77648  10.235  26.652  19.483 -0.3591 -0.1164 -0.1270
35972POPC   D2A77649  10.040  26.864  19.173 -0.0220  0.1018  0.3669
35972POPC   C3A77650   9.931  27.303  19.183 -0.3282 -0.0616  0.0294
35972POPC   C4A77651   9.918  27.699  19.027 -0.1823 -0.3450 -0.2328
35972POPC   C1B77652  10.028  26.326  19.121 -0.0384  0.1164  0.0785
35972POPC   C2B77653  10.029  26.545  18.703  0.0674  0.5189  0.0295
35972POPC   C3B77654   9.941  26.957  18.477  0.2845  0.0935  0.0593
35972POPC   C4B77655   9.613  27.074  18.196 -0.1661  0.2234  0.5429
35973POPC   NC377656  12.286  26.142  19.604 -0.0110 -0.2382 -0.1535
35973POPC   PO477657  12.193  26.404  19.932 -0.4965 -0.0674 -0.0106
35973POPC   GL177658  12.136  26.681  19.698 -0.0530  0.1983  0.2657
35973POPC   GL277659  12.355  26.633  19.467 -0.2883  0.5015  0.0455
35973POPC   C1A77660  11.873  27.060  19.597  0.2030  0.1227 -0.0159
35973POPC   D2A77661  11.619  27.268  19.289 -0.3634  0.2792  0.2604
35973POPC   C3A77662  11.915  27.645  19.275  0.0181 -0.0657 -0.1634
35973POPC   C4A77663  12.376  27.770  19.425 -0.2189  0.1424  0.1478
35973POPC   C1B77664  12.656  26.838  19.139 -0.0533  0.0024 -0.3363
35973POPC   C2B77665  13.087  26.943  19.040 -0.0153  0.1311 -0.1474
35973POPC   C3B77666  13.514  27.142  19.021 -0.0096 -0.2286 -0.0849
35973POPC   C4B77667  13.898  27.347  19.205 -0.2069 -0.1023 -0.0118
35974POPC   NC377668   1.072  24.692  20.315 -0.1541  0.3091  0.0865
35974POPC   PO477669   1.278  24.376  20.343  0.0809 -0.2594  0.4820
35974POPC   GL177670   1.310  24.220  19.937  0.0447  0.1686  0.0096
35974POPC   GL277671   1.526  24.023  19.953  0.1230  0.1663 -0.1712
35974POPC   C1A77672   1.249  24.098  19.508 -0.2675 -0.1484 -0.2002
35974POPC   D2A77673   1.191  24.005  19.111 -0.0267 -0.1783 -0.1424
35974POPC   C3A77674   1.061  23.661  18.798  0.2080 -0.2638  0.3801
35974POPC   C4A77675   0.922  23.196  18.672 -0.0484 -0.0496  0.0781
35974POPC   C1B77676   1.782  24.113  19.570  0.1257 -0.0131  0.2649
35974POPC   C2B77677   2.063  24.265  19.189  0.0913 -0.0384  0.0757
35974POPC   C3B77678   2.253  24.301  18.769 -0.0595 -0.1411 -0.2424
35974POPC   C4B77679   2.360  24.308  18.384  0.4176  0.0908  0.1498
35975POPC   NC377680   2.555  21.694  19.513  0.1133 -0.3303  0.0115
35975POPC   PO477681   2.739  21.931  19.735 -0.1259 -0.2158 -0.4580
35975POPC   GL177682   2.877  22.061  19.396  0.1960 -0.0148 -0.2943
35975POPC   GL277683   2.944  22.343  19.389  0.0259  0.1102 -0.1830
35975POPC   C1A77684   2.610  21.900  19.050 -0.1983 -0.0424 -0.0105
35975POPC   D2A77685   2.425  22.004  18.629  0.2505  0.2171 -0.2530
35975POPC   C3A77686   2.654  22.320  18.321  0.0257 -0.1144  0.0300
35975POPC   C4A77687   2.832  22.683  18.105  0.2511 -0.1946  0.2205
35975POPC   C1B77688   2.999  22.123  18.979  0.0184 -0.1107  0.0143
35975POPC   C2B77689   3.121  21.943  18.634  0.1160 -0.0625  0.1150
35975POPC   C3B77690   2.862  21.704  18.322  0.0719  0.1091 -0.0137
35975POPC   C4B77691   2.628  21.457  17.945 -0.1484 -0.0973 -0.1388
35976POPC   NC377692   6.935   0.097  20.141 -0.1279 -0.0753 -0.0984
35976POPC   PO477693   6.764   0.423  20.304  0.0382  0.1394  0.2122
35976POPC   GL177694   6.484   0.243  19.971  0.0600 -0.1201 -0.1938
35976POPC   GL277695   6.580   0.148  19.750  0.0207 -0.2110  0.0223
35976POPC   C1A77696   6.057   0.141  19.856  0.1756  0.1014 -0.2667
35976POPC   D2A77697   5.707  -0.147  19.909  0.0812  0.2537  0.1674
35976POPC   C3A77698   5.588  -0.500  19.592 -0.0274  0.0025 -0.0560
35976POPC   C4A77699   5.649  -0.885  19.296  0.1271 -0.0517 -0.0471
35976POPC   C1B77700   6.268   0.043  19.425  0.1557  0.3082  0.0975
35976POPC   C2B77701   6.086  -0.115  19.006 -0.0929  0.1354 -0.1479
35976POPC   C3B77702   5.881  -0.357  18.664 -0.0311  0.1669 -0.1323
35976POPC   C4B77703   5.666  -0.689  18.423  0.2179 -0.1713  0.0633
35977POPC   NC377704   2.233  30.955  20.716  0.0109 -0.0994  0.0832
35977POPC   PO477705   2.633  31.019  20.775 -0.1127  0.0076 -0.0153
35977POPC   GL177706   2.736  31.052  20.344  0.0170  0.2147  0.0682
35977POPC   GL277707   2.943  31.283  20.203  0.1339 -0.0200 -0.0165
35977POPC   C1A77708   2.412  31.281  20.082  0.0456 -0.0084 -0.0170
35977POPC   D2A77709   2.255  31.136  19.662  0.0074 -0.0404 -0.1923
35977POPC   C3A77710   2.536  30.752  19.456 -0.1406 -0.1915  0.0162
35977POPC   C4A77711   2.713  30.758  19.128  0.0699  0.0567  0.0262
35977POPC   C1B77712   2.808  31.169  19.807  0.1121  0.0693 -0.0780
35977POPC   C2B77713   3.024  30.945  19.489 -0.0794  0.2396  0.0277
35977POPC   C3B77714   3.483  31.052  19.312  0.0416  0.2360  0.0642
35977POPC   C4B77715   3.682  31.016  18.852 -0.2989 -0.0406 -0.5441
35978POPC   NC377716   3.041  26.117  20.376  0.0908  0.3848  0.1608
35978POPC   PO477717   3.356  26.197  20.174 -0.4219 -0.2087  0.3147
35978POPC   GL177718   3.154  26.207  19.818 -0.1285  0.3611  0.0571
35978POPC   GL277719   2.879  26.275  19.776  0.0685 -0.0397 -0.0620
35978POPC   C1A77720   3.048  25.939  19.411 -0.0802 -0.0642  0.0083
35978POPC   D2A77721   2.951  25.510  19.223  0.3054 -0.0728  0.0873
35978POPC   C3A77722   2.539  25.378  19.274 -0.1117 -0.1930  0.0672
35978POPC   C4A77723   2.191  25.125  19.129  0.0490  0.0143  0.1144
35978POPC   C1B77724   3.204  26.417  19.377 -0.3276  0.3545 -0.0808
35978POPC   C2B77725   3.623  26.511  19.244  0.2314  0.0642 -0.1330
35978POPC   C3B77726   4.058  26.565  19.198  0.0516  0.1229 -0.1356
35978POPC   C4B77727   4.247  26.981  19.135 -0.0771 -0.0564  0.0607
35979POPC   NC377728   6.773  20.963  17.985 -0.4763 -0.1828 -0.2074
35979POPC   PO477729   7.119  20.793  17.840 -0.0287 -0.1136 -0.0975
35979POPC   GL177730   7.049  20.834  17.396 -0.1476 -0.1438 -0.2231
35979POPC   GL277731   6.956  20.570  17.232  0.4274  0.0189  0.0277
35979POPC   C1A77732   6.695  21.121  17.194 -0.0767 -0.2764  0.1160
35979POPC   D2A77733   6.321  21.204  16.850 -0.2441 -0.0920  0.1486
35979POPC   C3A77734   6.271  21.260  16.358  0.0633  0.2847 -0.0369
35979POPC   C4A77735   6.536  21.233  15.992  0.0891 -0.1356 -0.0956
35979POPC   C1B77736   6.559  20.672  16.968 -0.2897 -0.0032 -0.0113
35979POPC   C2B77737   6.213  20.737  16.670  0.0920 -0.3272  0.0304
35979POPC   C3B77738   5.921  20.891  16.324  0.0449  0.0592 -0.1902
35979POPC   C4B77739   6.019  21.057  15.890 -0.0303 -0.1090 -0.2505
35980POPC   NC377740   3.171  18.537  19.736 -0.3193 -0.0671  0.0220
35980POPC   PO477741   3.429  18.886  19.674 -0.0514  0.4205  0.0650
35980POPC   GL177742   3.318  18.872  19.242  0.3324 -0.1763  0.3105
35980POPC   GL277743   3.001  18.917  19.256  0.0163 -0.0417  0.2331
35980POPC   C1A77744   3.257  18.909  18.726 -0.1421  0.1210 -0.4918
35980POPC   D2A77745   3.127  19.088  18.334 -0.0705  0.1107 -0.3596
35980POPC   C3A77746   3.371  18.996  17.951 -0.3507 -0.2592  0.2416
35980POPC   C4A77747   3.599  19.069  17.532  0.2810 -0.3343 -0.0248
35980POPC   C1B77748   2.835  18.512  19.167  0.3301  0.2085 -0.2039
35980POPC   C2B77749   2.487  18.364  18.947  0.0026 -0.1493  0.0801
35980POPC   C3B77750   2.046  18.313  18.831  0.2364 -0.1864  0.0135
35980POPC   C4B77751   1.804  17.904  18.886  0.2623  0.0337 -0.1804
35981POPC   NC377752   1.665  23.022  20.368 -0.3156  0.2748  0.3701
35981POPC   PO477753   1.700  22.768  20.033 -0.1297  0.1254 -0.0778
35981POPC   GL177754   1.865  22.821  19.627 -0.1824 -0.2442  0.2923
35981POPC   GL277755   1.930  22.485  19.467 -0.2002 -0.5519 -0.2446
35981POPC   C1A77756   2.300  22.856  19.530  0.0505 -0.1206 -0.2745
35981POPC   D2A77757   2.708  22.806  19.392 -0.0497  0.0892 -0.1321
35981POPC   C3A77758   2.928  22.696  18.975 -0.0409  0.2581 -0.1351
35981POPC   C4A77759   3.095  22.696  18.538  0.0916  0.0412 -0.0406
35981POPC   C1B77760   1.987  22.626  19.011 -0.3199 -0.0741 -0.0918
35981POPC   C2B77761   1.961  22.845  18.628 -0.2417  0.1655 -0.1271
35981POPC   C3B77762   1.783  23.020  18.264  0.4316 -0.0530 -0.0702
35981POPC   C4B77763   1.807  23.474  18.182  0.1992 -0.1696  0.3294
35982POPC   NC377764   7.176  20.021  17.881  0.1978  0.1289  0.2023
35982POPC   PO477765   7.501  19.821  17.925  0.0573  0.2780  0.3554
35982POPC   GL177766   7.260  19.620  17.652 -0.0028 -0.2724  0.1529
35982POPC   GL277767   7.392  19.303  17.654  0.1387 -0.1771 -0.1194
35982POPC   C1A77768   7.227  19.603  17.204 -0.0974 -0.4083  0.3361
35982POPC   D2A77769   7.347  19.423  16.807 -0.5499 -0.2631 -0.1035
35982POPC   C3A77770   7.447  19.458  16.358 -0.2710  0.0989  0.2872
35982POPC   C4A77771   7.533  19.453  15.902 -0.2618 -0.4232 -0.2091
35982POPC   C1B77772   7.042  19.022  17.563  0.0655  0.0658  0.0786
35982POPC   C2B77773   6.854  18.694  17.239 -0.2593  0.0047  0.1466
35982POPC   C3B77774   6.906  18.582  16.784  0.0901 -0.4374 -0.0388
35982POPC   C4B77775   6.843  18.457  16.356 -0.3779 -0.0137  0.2419
35983POPC   NC377776  16.149  19.395  19.903  0.3765  0.1141  0.0882
35983POPC   PO477777  16.179  19.020  19.962  0.3655 -0.0780 -0.0698
35983POPC   GL177778  16.115  18.983  19.605  0.1123 -0.0225 -0.0425
35983POPC   GL277779  16.327  18.728  19.562  0.1445 -0.2215 -0.0214
35983POPC   C1A77780  16.096  19.241  19.221 -0.0463  0.0543  0.0525
35983POPC   D2A77781  16.345  19.291  18.822 -0.0118 -0.0407  0.1093
35983POPC   C3A77782  16.102  19.357  18.481  0.2756 -0.0643  0.0511
35983POPC   C4A77783  15.911  19.477  18.061 -0.1234  0.3274 -0.4228
35983POPC   C1B77784  16.476  18.899  19.163  0.3614 -0.0341 -0.0299
35983POPC   C2B77785  16.529  18.834  18.694  0.1705 -0.0233 -0.0848
35983POPC   C3B77786  16.548  18.941  18.234 -0.2282 -0.3005 -0.0993
35983POPC   C4B77787  16.232  19.078  17.910 -0.1498  0.3052 -0.0552
35984POPC   NC377788   7.502  20.408  16.693 -0.3686  0.3306 -0.0272
35984POPC   PO477789   7.311  20.732  16.834 -0.2779 -0.1242 -0.1375
35984POPC   GL177790   7.000  20.691  16.606  0.0604  0.0151  0.3281
35984POPC   GL277791   6.890  20.438  16.618 -0.1552 -0.2596 -0.2787
35984POPC   C1A77792   6.631  20.935  16.492  0.1370  0.1846  0.0965
35984POPC   D2A77793   6.382  20.788  16.199  0.1342 -0.0357 -0.2569
35984POPC   C3A77794   6.585  20.427  15.997  0.2424  0.3853 -0.1169
35984POPC   C4A77795   6.454  20.144  15.679  0.2515  0.2205  0.1597
35984POPC   C1B77796   6.950  20.053  16.255 -0.0095 -0.1506 -0.1746
35984POPC   C2B77797   6.971  19.921  15.845 -0.2960 -0.6801  0.1964
35984POPC   C3B77798   6.788  19.698  15.511 -0.0770  0.0367 -0.0076
35984POPC   C4B77799   6.345  19.551  15.429 -0.1368 -0.0714  0.3149
35985POPC   NC377800  17.008  24.023  19.958  0.0927  0.0486  0.3980
35985POPC   PO477801  16.930  24.398  19.909 -0.1448  0.0182  0.2061
35985POPC   GL177802  17.134  24.408  19.622  0.1120 -0.3247 -0.2353
35985POPC   GL277803  17.058  24.189  19.445  0.2077 -0.0049 -0.0441
35985POPC   C1A77804  17.229  24.803  19.290  0.0834  0.1822  0.3321
35985POPC   D2A77805  17.223  25.144  18.912  0.0229  0.0880  0.1785
35985POPC   C3A77806  17.055  25.286  18.488  0.1772  0.2064  0.3910
35985POPC   C4A77807  16.653  25.546  18.399  0.4149  0.1720  0.0350
35985POPC   C1B77808  16.810  24.211  19.068  0.1831 -0.0254 -0.1126
35985POPC   C2B77809  16.880  24.247  18.592  0.0774  0.0529  0.1660
35985POPC   C3B77810  16.660  24.382  18.224 -0.3594  0.0317 -0.3159
35985POPC   C4B77811  16.700  24.270  17.820 -0.2716  0.2431  0.0824
35986POPC   NC377812   9.524  23.126  16.330 -0.1204  0.1866 -0.1508
35986POPC   PO477813   9.524  23.513  16.426  0.0491 -0.0388  0.0747
35986POPC   GL177814   9.542  23.919  16.443 -0.1450  0.1641  0.1609
35986POPC   GL277815   9.670  23.884  16.167  0.1187  0.2176  0.3179
35986POPC   C1A77816   9.312  24.281  16.242  0.0395 -0.0702 -0.1805
35986POPC   D2A77817   9.198  24.756  16.220 -0.2587  0.0340 -0.0112
35986POPC   C3A77818   8.760  24.707  16.315 -0.1291 -0.1789  0.1754
35986POPC   C4A77819   8.373  24.967  16.295 -0.1047  0.0414  0.3333
35986POPC   C1B77820   9.794  24.279  16.056  0.2609 -0.1773  0.3273
35986POPC   C2B77821   9.907  24.744  15.959 -0.2714  0.1871  0.1042
35986POPC   C3B77822   9.991  25.123  16.182 -0.0513 -0.1101 -0.3514
35986POPC   C4B77823  10.070  25.501  16.036  0.1668 -0.0754  0.1658
35987POPC   NC377824   6.231  16.500  19.638 -0.2640 -0.6102 -0.2817
35987POPC   PO477825   5.855  16.411  19.713 -0.1859  0.1762 -0.2228
35987POPC   GL177826   5.996  16.173  19.417 -0.2083 -0.1408  0.1205
35987POPC   GL277827   6.282  16.104  19.363  0.3857 -0.0189  0.3723
35987POPC   C1A77828   6.007  16.136  18.954 -0.2024  0.4103 -0.4393
35987POPC   D2A77829   5.705  16.168  18.593 -0.0848  0.0901  0.1428
35987POPC   C3A77830   5.772  16.103  18.113  0.0491 -0.2920 -0.0373
35987POPC   C4A77831   6.029  16.260  17.736 -0.2357  0.1311 -0.0597
35987POPC   C1B77832   6.486  16.075  18.911 -0.1662 -0.0018  0.2327
35987POPC   C2B77833   6.399  15.781  18.563 -0.0001 -0.0660  0.0589
35987POPC   C3B77834   6.210  15.430  18.384 -0.0473 -0.1688  0.4823
35987POPC   C4B77835   5.984  15.134  18.176  0.0889  0.1715  0.1673
35988POPC   NC377836   8.601  23.323  16.586  0.1229  0.2541  0.0524
35988POPC   PO477837   8.351  23.011  16.539  0.0739 -0.0780 -0.1486
35988POPC   GL177838   8.081  23.263  16.493  0.2752 -0.0192  0.2242
35988POPC   GL277839   7.821  23.142  16.629  0.1012  0.1788  0.1641
35988POPC   C1A77840   8.233  23.697  16.439  0.0337 -0.0998 -0.0301
35988POPC   D2A77841   8.465  24.033  16.264 -0.1184  0.2298  0.0331
35988POPC   C3A77842   8.642  24.278  15.873  0.0006 -0.0469 -0.0184
35988POPC   C4A77843   8.917  24.513  15.570  0.2641  0.1277 -0.1244
35988POPC   C1B77844   7.608  23.224  16.271  0.0041 -0.1099  0.0723
35988POPC   C2B77845   7.396  23.415  15.872 -0.1822  0.0068  0.1101
35988POPC   C3B77846   7.014  23.492  15.624 -0.2792  0.0557 -0.0299
35988POPC   C4B77847   6.634  23.727  15.659 -0.0980 -0.0514 -0.2361
35989POPC   NC377848  10.196  31.419  20.468 -0.1477 -0.0948 -0.0620
35989POPC   PO477849  10.326  31.074  20.390  0.0437  0.1517  0.1268
35989POPC   GL177850  10.408  30.926  20.002 -0.0969 -0.0921 -0.2318
35989POPC   GL277851  10.214  30.720  20.000 -0.2092  0.1336 -0.0900
35989POPC   C1A77852  10.519  30.951  19.511  0.1100 -0.2862 -0.2489
35989POPC   D2A77853  10.519  30.979  19.059  0.2631  0.0471 -0.1786
35989POPC   C3A77854  10.491  30.691  18.686 -0.1128 -0.1460  0.0434
35989POPC   C4A77855  10.251  30.314  18.498  0.1077  0.0067 -0.1602
35989POPC   C1B77856  10.489  30.495  19.736 -0.1390 -0.1552  0.0553
35989POPC   C2B77857  10.594  30.453  19.354  0.2055  0.1375 -0.0981
35989POPC   C3B77858  10.806  30.408  18.993 -0.0791  0.1729  0.3195
35989POPC   C4B77859  10.977  30.148  18.640 -0.0910 -0.0855 -0.0265
35990POPC   NC377860  15.448  28.015  20.659  0.0007  0.1033 -0.0235
35990POPC   PO477861  15.551  27.738  20.414  0.0381  0.0902 -0.0409
35990POPC   GL177862  15.558  27.975  20.061 -0.0547  0.3430 -0.2667
35990POPC   GL277863  15.820  28.046  20.021 -0.1034  0.2800  0.0993
35990POPC   C1A77864  15.366  28.036  19.618  0.2461  0.0939  0.2295
35990POPC   D2A77865  15.204  28.387  19.323 -0.1324  0.0727  0.3323
35990POPC   C3A77866  15.080  28.251  18.971 -0.1224 -0.0866 -0.0149
35990POPC   C4A77867  15.346  28.275  18.545 -0.3776 -0.3267 -0.2056
35990POPC   C1B77868  15.955  27.890  19.612 -0.1174 -0.3484 -0.1454
35990POPC   C2B77869  15.996  27.794  19.156  0.0713 -0.0925  0.2797
35990POPC   C3B77870  16.078  28.084  18.776  0.1142  0.1902 -0.0665
35990POPC   C4B77871  16.420  28.322  18.558  0.0896  0.2085 -0.0453
35991POPC   NC377872   8.345  20.346  16.834 -0.1299 -0.0754 -0.1222
35991POPC   PO477873   7.993  20.329  16.637  0.2434  0.1640 -0.1865
35991POPC   GL177874   7.948  20.193  16.251 -0.1603 -0.0371 -0.3274
35991POPC   GL277875   7.714  20.296  16.201 -0.0598 -0.0762 -0.2012
35991POPC   C1A77876   7.906  19.786  16.070 -0.0322 -0.0768  0.3326
35991POPC   D2A77877   7.909  19.288  16.177  0.2754  0.1358  0.3449
35991POPC   C3A77878   7.589  19.031  16.171  0.0362 -0.1098  0.0402
35991POPC   C4A77879   7.615  18.589  15.970 -0.1883  0.0520  0.2400
35991POPC   C1B77880   7.275  20.384  16.051  0.0027  0.1922  0.0010
35991POPC   C2B77881   7.019  20.550  15.640 -0.0871 -0.2138  0.0505
35991POPC   C3B77882   6.945  20.960  15.394 -0.1078  0.1608 -0.4023
35991POPC   C4B77883   6.874  21.361  15.611 -0.1825  0.1371 -0.3128
35992POPC   NC377884   3.201  28.809  21.144  0.2274  0.1154  0.2879
35992POPC   PO477885   2.923  29.046  20.871  0.0129 -0.0364 -0.0162
35992POPC   GL177886   2.739  29.074  20.539  0.1614  0.0892  0.4968
35992POPC   GL277887   2.569  28.774  20.468 -0.0132 -0.2241 -0.0565
35992POPC   C1A77888   2.609  29.314  20.155  0.3580  0.1357 -0.0792
35992POPC   D2A77889   2.276  29.264  19.834  0.0903  0.2714 -0.0753
35992POPC   C3A77890   2.016  28.895  19.763 -0.2267  0.2252 -0.2368
35992POPC   C4A77891   1.987  28.430  19.668  0.0866  0.2025  0.0218
35992POPC   C1B77892   2.803  28.840  20.105  0.1757 -0.0187 -0.2217
35992POPC   C2B77893   2.684  28.925  19.659  0.0038 -0.0105  0.1527
35992POPC   C3B77894   2.350  29.083  19.351  0.0392 -0.1567  0.1296
35992POPC   C4B77895   2.149  28.986  18.969 -0.2586  0.2354  0.1541
35993POPC   NC377896  10.575  22.998  14.942 -0.2009 -0.2859 -0.1370
35993POPC   PO477897  10.879  22.765  15.092 -0.1032  0.0804 -0.1253
35993POPC   GL177898  11.027  23.138  15.043 -0.1022  0.2925 -0.1249
35993POPC   GL277899  10.836  23.203  15.303  0.0254  0.0308  0.0403
35993POPC   C1A77900  11.456  23.208  14.805 -0.0074 -0.0008  0.1194
35993POPC   D2A77901  11.591  22.944  14.438 -0.2142 -0.1671  0.0641
35993POPC   C3A77902  12.032  23.050  14.235 -0.1257 -0.1305  0.4100
35993POPC   C4A77903  12.327  23.402  14.109  0.0792 -0.1953  0.0298
35993POPC   C1B77904  11.094  23.572  15.135  0.2525  0.1138  0.0675
35993POPC   C2B77905  11.198  24.040  15.236 -0.3418  0.0862  0.2399
35993POPC   C3B77906  11.350  24.458  15.073  0.0928 -0.1648  0.1324
35993POPC   C4B77907  11.809  24.569  15.006 -0.2321 -0.0435 -0.2754
35994POPC   NC377908  14.524  19.998  19.309  0.0496  0.2191 -0.3084
35994POPC   PO477909  14.871  19.843  19.422  0.0709  0.1246  0.4137
35994POPC   GL177910  14.633  19.536  19.269  0.0127  0.0440 -0.0840
35994POPC   GL277911  14.801  19.310  19.354  0.2174 -0.0747  0.1031
35994POPC   C1A77912  14.610  19.323  18.835  0.1025 -0.0811 -0.2638
35994POPC   D2A77913  14.769  18.931  18.579 -0.1658  0.0947 -0.2221
35994POPC   C3A77914  15.191  18.829  18.501  0.0593 -0.2179 -0.0521
35994POPC   C4A77915  15.572  18.669  18.300  0.0626  0.0256  0.1333
35994POPC   C1B77916  15.161  19.309  19.086  0.0780  0.1260  0.2167
35994POPC   C2B77917  15.628  19.412  19.069 -0.1788 -0.0790 -0.1945
35994POPC   C3B77918  15.977  19.651  18.946 -0.1264 -0.0998  0.0723
35994POPC   C4B77919  16.192  19.850  18.574 -0.0175 -0.0811 -0.0308
35995POPC   NC377920   7.039  29.814  20.212  0.1847  0.0095  0.1210
35995POPC   PO477921   6.683  29.884  20.333 -0.0027 -0.2242  0.3671
35995POPC   GL177922   6.525  29.990  20.011  0.1564  0.0618 -0.1665
35995POPC   GL277923   6.537  29.667  19.854  0.2784  0.1481 -0.4713
35995POPC   C1A77924   6.176  30.107  19.739  0.3414  0.1110  0.3757
35995POPC   D2A77925   6.194  30.338  19.317  0.1505 -0.4376 -0.0882
35995POPC   C3A77926   6.223  29.964  19.035  0.0526 -0.1457  0.3377
35995POPC   C4A77927   6.120  29.695  18.643 -0.3163  0.1129  0.1683
35995POPC   C1B77928   6.239  29.602  19.563  0.1045  0.1088 -0.3056
35995POPC   C2B77929   6.153  29.431  19.157  0.2144 -0.1203 -0.0068
35995POPC   C3B77930   5.804  29.389  18.901 -0.2061  0.3234  0.0821
35995POPC   C4B77931   5.627  29.097  18.559  0.0485  0.0963 -0.2429
35996POPC   NC377932   7.630  30.946  20.339  0.0103  0.0737 -0.1030
35996POPC   PO477933   7.532  30.545  20.383 -0.1041 -0.3420 -0.0087
35996POPC   GL177934   7.421  30.483  20.050  0.1855  0.2121  0.0360
35996POPC   GL277935   7.400  30.194  20.076 -0.0379  0.1195 -0.0981
35996POPC   C1A77936   7.531  30.393  19.586 -0.1734 -0.1848 -0.0017
35996POPC   D2A77937   7.255  30.206  19.230 -0.3625 -0.3797 -0.2302
35996POPC   C3A77938   7.423  30.126  18.780  0.0729  0.0628 -0.0350
35996POPC   C4A77939   7.443  30.030  18.355 -0.1979 -0.1994 -0.0062
35996POPC   C1B77940   7.181  30.006  19.683  0.1410 -0.1164 -0.0039
35996POPC   C2B77941   6.723  29.860  19.452  0.1625  0.1863 -0.0748
35996POPC   C3B77942   6.614  29.580  19.053  0.0788  0.1459  0.0043
35996POPC   C4B77943   6.509  29.340  18.649  0.1410 -0.0091 -0.4199
35997POPC   NC377944   4.180  23.639  19.631  0.2531 -0.1371 -0.0536
35997POPC   PO477945   4.307  23.314  19.379 -0.0129  0.2682  0.0269
35997POPC   GL177946   4.111  23.241  19.077 -0.1798  0.0742  0.1844
35997POPC   GL277947   4.231  22.965  19.006 -0.0213 -0.1001  0.0870
35997POPC   C1A77948   3.750  23.317  18.789 -0.2157 -0.1977  0.0106
35997POPC   D2A77949   3.720  23.372  18.351  0.3503 -0.0607  0.0207
35997POPC   C3A77950   3.662  23.786  18.174 -0.2715 -0.0512  0.1441
35997POPC   C4A77951   3.218  24.003  18.136 -0.1356 -0.0680 -0.1896
35997POPC   C1B77952   4.277  23.230  18.654 -0.1995 -0.3242 -0.1116
35997POPC   C2B77953   4.267  23.338  18.240  0.1783  0.0951  0.0024
35997POPC   C3B77954   4.295  23.467  17.798  0.0776  0.1704  0.0045
35997POPC   C4B77955   4.689  23.541  17.602 -0.1523 -0.1185  0.2156
35998POPC   NC377956  11.402  25.416  19.191  0.1758 -0.0009  0.1249
35998POPC   PO477957  11.028  25.539  19.212 -0.0040  0.2191  0.0364
35998POPC   GL177958  11.065  25.659  18.856 -0.0638  0.2360 -0.0011
35998POPC   GL277959  11.334  25.496  18.696  0.2610 -0.1146 -0.2134
35998POPC   C1A77960  10.776  25.659  18.481  0.2978 -0.0720  0.0867
35998POPC   D2A77961  10.588  25.949  18.158  0.0320 -0.1043 -0.0849
35998POPC   C3A77962  10.952  25.963  17.835  0.3974 -0.1531 -0.2425
35998POPC   C4A77963  10.879  26.015  17.417 -0.2512  0.0845 -0.0306
35998POPC   C1B77964  11.451  25.924  18.624  0.3040  0.0480  0.2071
35998POPC   C2B77965  11.540  26.220  18.211 -0.2715  0.0143 -0.1447
35998POPC   C3B77966  11.372  26.206  17.808 -0.2046  0.2940 -0.1601
35998POPC   C4B77967  11.213  26.418  17.446  0.0046 -0.1614 -0.0339
35999POPC   NC377968  13.621  24.231  19.611 -0.0651  0.0102 -0.0299
35999POPC   PO477969  13.493  24.581  19.459  0.0128  0.4059  0.0676
35999POPC   GL177970  13.789  24.685  19.121  0.3355  0.2744  0.2897
35999POPC   GL277971  13.691  24.910  18.863 -0.0677  0.1001 -0.1675
35999POPC   C1A77972  13.916  24.473  18.702 -0.1283 -0.1350 -0.2516
35999POPC   D2A77973  13.892  24.566  18.193 -0.0527  0.1693 -0.2830
35999POPC   C3A77974  14.183  24.949  18.198  0.0170  0.2235  0.1166
35999POPC   C4A77975  14.403  25.283  18.362 -0.2190  0.2947  0.3846
35999POPC   C1B77976  13.737  24.958  18.420  0.1938  0.1967  0.0663
35999POPC   C2B77977  13.734  25.063  17.984 -0.1128  0.1674  0.0871
35999POPC   C3B77978  13.952  24.961  17.617 -0.2834 -0.1973 -0.0075
35999POPC   C4B77979  13.775  25.080  17.217 -0.1620 -0.2282  0.1751
36000POPC   NC377980  11.658  22.596  16.714  0.1932 -0.3604 -0.1587
36000POPC   PO477981  11.612  22.857  16.423 -0.4545  0.2692 -0.0133
36000POPC   GL177982  11.805  23.163  16.481  0.0116 -0.0978  0.1824
36000POPC   GL277983  11.645  23.439  16.402  0.0417  0.0023 -0.1607
36000POPC   C1A77984  12.017  23.275  16.095 -0.3669  0.0485  0.3217
36000POPC   D2A77985  12.204  23.635  15.906  0.1233 -0.0601  0.1790
36000POPC   C3A77986  11.992  23.946  15.622  0.1824  0.2442 -0.0900
36000POPC   C4A77987  11.684  24.168  15.296  0.3442  0.0960  0.1767
36000POPC   C1B77988  11.743  23.837  16.176 -0.2589  0.0087  0.1754
36000POPC   C2B77989  11.895  24.270  16.025  0.0660 -0.0020  0.0048
36000POPC   C3B77990  11.968  24.450  15.588 -0.0936  0.0710  0.1930
36000POPC   C4B77991  12.287  24.393  15.227  0.3925  0.2012  0.1533
36001POPC   NC377992  10.940  22.709  12.476 -0.1134  0.0444  0.1813
36001POPC   PO477993  11.189  22.666  12.754 -0.0857  0.2046 -0.1124
36001POPC   GL177994  11.266  23.085  12.680  0.3810  0.0792  0.1651
36001POPC   GL277995  11.365  23.007  12.434  0.0484  0.0801  0.1998
36001POPC   C1A77996  11.624  23.346  12.843  0.0507  0.0768  0.1071
36001POPC   D2A77997  11.863  23.510  13.151 -0.0705  0.1501  0.0329
36001POPC   C3A77998  11.734  23.937  13.330 -0.1214 -0.0901 -0.0335
36001POPC   C4A77999  11.479  24.151  13.690  0.2165 -0.1720  0.3155
36001POPC   C1B78000  11.804  22.976  12.526  0.1738  0.0140  0.2937
36001POPC   C2B78001  12.003  22.622  12.345  0.3027  0.1886 -0.5255
36001POPC   C3B78002  12.220  22.227  12.393  0.2591  0.0843 -0.2842
36001POPC   C4B78003  12.448  21.809  12.540 -0.2658  0.0115 -0.2157
36002POPC   NC378004   8.165  23.626  17.757 -0.2211 -0.0309  0.2334
36002POPC   PO478005   8.029  23.400  17.441 -0.0836  0.2874  0.2420
36002POPC   GL178006   8.011  23.585  17.096  0.1937  0.0965 -0.0779
36002POPC   GL278007   8.086  23.467  16.885 -0.3232 -0.1965 -0.3050
36002POPC   C1A78008   8.133  23.949  16.838 -0.2924 -0.1559 -0.2113
36002POPC   D2A78009   7.889  24.268  16.713  0.1371 -0.0895  0.0849
36002POPC   C3A78010   7.855  24.711  16.536  0.3244  0.1111 -0.0928
36002POPC   C4A78011   7.934  25.138  16.270 -0.0022  0.0499 -0.0269
36002POPC   C1B78012   7.686  23.604  16.717 -0.2349 -0.2245  0.0156
36002POPC   C2B78013   7.283  23.737  16.676  0.1303 -0.2729  0.2838
36002POPC   C3B78014   6.836  23.550  16.655  0.0017  0.2388  0.1495
36002POPC   C4B78015   6.396  23.490  16.546 -0.0646 -0.0369  0.1473
36003POPC   NC378016   8.203  32.400  20.149  0.0503  0.2054  0.1395
36003POPC   PO478017   8.506  32.281  19.910  0.2269  0.2966 -0.0410
36003POPC   GL178018   8.294  32.229  19.598  0.2146 -0.0920 -0.2416
36003POPC   GL278019   8.070  32.086  19.746  0.1491 -0.0390  0.0243
36003POPC   C1A78020   8.088  32.382  19.224  0.2774  0.1010 -0.0377
36003POPC   D2A78021   7.936  32.302  18.801 -0.0795  0.0235  0.1922
36003POPC   C3A78022   8.284  32.417  18.513  0.0499 -0.1572  0.1334
36003POPC   C4A78023   8.418  32.210  18.094  0.1207 -0.0858 -0.1602
36003POPC   C1B78024   7.696  31.773  19.631 -0.3025 -0.3270  0.3923
36003POPC   C2B78025   7.717  31.390  19.445 -0.0505  0.0440  0.2437
36003POPC   C3B78026   7.551  31.103  19.124 -0.0944  0.3562 -0.0494
36003POPC   C4B78027   7.483  30.939  18.670  0.3428  0.1030  0.1994
36004POPC   NC378028  15.793  22.435  19.269 -0.1465 -0.1162  0.1309
36004POPC   PO478029  16.070  22.279  19.410 -0.2720  0.1085  0.3330
36004POPC   GL178030  16.227  22.178  19.152 -0.3256 -0.3005 -0.1423
36004POPC   GL278031  16.173  22.079  18.950 -0.0828  0.1842 -0.2125
36004POPC   C1A78032  16.619  22.398  18.984 -0.2253  0.0219  0.0195
36004POPC   D2A78033  16.832  22.553  18.592 -0.1994 -0.0094 -0.2997
36004POPC   C3A78034  17.211  22.810  18.405  0.0285 -0.1102  0.0553
36004POPC   C4A78035  17.613  22.720  18.393  0.2680 -0.1242 -0.0309
36004POPC   C1B78036  16.317  22.239  18.552 -0.0116  0.1154 -0.2077
36004POPC   C2B78037  16.456  22.418  18.150  0.0981  0.0867 -0.1670
36004POPC   C3B78038  16.779  22.554  17.841 -0.0262 -0.1995 -0.0774
36004POPC   C4B78039  16.740  22.944  17.602 -0.0774  0.0498 -0.1355
36005POPC   NC378040  10.589  21.618  14.213  0.1976  0.4464  0.0028
36005POPC   PO478041  10.699  21.650  14.602  0.1077  0.2016 -0.0941
36005POPC   GL178042  11.173  21.604  14.446  0.0533  0.0621  0.0862
36005POPC   GL278043  11.233  21.563  14.657 -0.0274  0.0384  0.0246
36005POPC   C1A78044  11.491  21.389  14.171  0.1808 -0.2136 -0.2939
36005POPC   D2A78045  11.657  21.115  13.847 -0.0603 -0.0239  0.1999
36005POPC   C3A78046  11.457  21.228  13.476  0.3303  0.0484  0.0152
36005POPC   C4A78047  11.227  21.516  13.206 -0.2811 -0.1039 -0.0321
36005POPC   C1B78048  11.441  21.167  14.647 -0.1765 -0.1544  0.0498
36005POPC   C2B78049  11.726  20.826  14.749  0.3445  0.1519 -0.1714
36005POPC   C3B78050  12.104  20.583  14.828  0.0563  0.4344  0.1049
36005POPC   C4B78051  12.396  20.257  14.729 -0.3451 -0.2329 -0.1430
36006POPC   NC378052   7.530  30.168  20.690 -0.1110  0.0270  0.1955
36006POPC   PO478053   7.580  29.852  20.438  0.0536  0.1521 -0.2432
36006POPC   GL178054   7.862  29.874  20.067  0.0094  0.2295  0.0609
36006POPC   GL278055   7.935  30.020  19.899 -0.2768 -0.5232  0.3723
36006POPC   C1A78056   8.062  29.626  19.695  0.3078  0.0853  0.4198
36006POPC   D2A78057   8.139  29.858  19.271 -0.0872  0.4549  0.0229
36006POPC   C3A78058   8.583  29.921  19.089 -0.0155  0.2392  0.2238
36006POPC   C4A78059   8.787  30.266  18.851  0.1233  0.2722 -0.1843
36006POPC   C1B78060   7.667  29.843  19.607 -0.2069 -0.2280  0.0151
36006POPC   C2B78061   7.636  29.403  19.422  0.0572 -0.2329 -0.2906
36006POPC   C3B78062   7.514  29.020  19.210 -0.1213 -0.1361  0.0832
36006POPC   C4B78063   7.406  29.020  18.709  0.0960  0.1353 -0.0188
36007POPC   NC378064   5.290  30.861  20.709  0.0508 -0.0491 -0.1065
36007POPC   PO478065   4.967  30.958  20.495  0.0058  0.3284  0.0116
36007POPC   GL178066   4.758  30.937  20.044 -0.3211  0.3212 -0.2249
36007POPC   GL278067   4.678  31.197  20.085  0.1575  0.1302  0.1302
36007POPC   C1A78068   4.671  30.893  19.611 -0.1075  0.1345  0.2024
36007POPC   D2A78069   4.799  31.139  19.220 -0.2473 -0.0059 -0.2577
36007POPC   C3A78070   4.634  31.309  18.852  0.1585 -0.1792  0.3469
36007POPC   C4A78071   4.181  31.279  18.775  0.2793 -0.2562  0.0388
36007POPC   C1B78072   5.012  31.211  19.773 -0.1574  0.0195  0.2252
36007POPC   C2B78073   5.346  31.229  19.454  0.0866 -0.0737 -0.0172
36007POPC   C3B78074   5.307  31.082  19.003  0.2681 -0.0847  0.4813
36007POPC   C4B78075   5.103  31.160  18.626 -0.0407 -0.0030  0.0888
36008POPC   NC378076  12.614  29.774  19.804  0.0533  0.1353  0.2811
36008POPC   PO478077  12.334  29.954  20.051 -0.1223 -0.3251 -0.2121
36008POPC   GL178078  12.319  30.209  19.762 -0.0861 -0.1424 -0.0545
36008POPC   GL278079  12.611  30.289  19.709  0.2841  0.1235  0.0114
36008POPC   C1A78080  12.150  30.295  19.355  0.0619  0.1282  0.0852
36008POPC   D2A78081  12.312  30.230  18.914 -0.3042  0.3604 -0.2303
36008POPC   C3A78082  12.771  30.164  18.855  0.0681  0.1757  0.2212
36008POPC   C4A78083  13.216  30.058  18.879 -0.1118 -0.0797 -0.0624
36008POPC   C1B78084  12.702  30.058  19.318  0.0364 -0.0360 -0.0947
36008POPC   C2B78085  12.735  29.664  19.058 -0.0611  0.1922 -0.1287
36008POPC   C3B78086  12.794  29.339  18.735  0.0351 -0.1754  0.0115
36008POPC   C4B78087  12.801  28.896  18.617 -0.1124 -0.3459 -0.1165
36009POPC   NC378088  10.169  17.926  19.257 -0.0608  0.2565 -0.2531
36009POPC   PO478089   9.814  17.965  19.210  0.2747  0.0105  0.2331
36009POPC   GL178090   9.918  17.849  18.865  0.2048 -0.3528  0.0594
36009POPC   GL278091  10.025  17.560  18.872 -0.4256  0.1955 -0.1450
36009POPC   C1A78092   9.812  17.956  18.377 -0.0941 -0.0473  0.0576
36009POPC   D2A78093   9.885  18.110  17.974 -0.2619 -0.2932 -0.0980
36009POPC   C3A78094   9.583  18.455  17.682  0.0017  0.0140  0.1558
36009POPC   C4A78095   9.392  18.369  17.257 -0.2932 -0.1164  0.1251
36009POPC   C1B78096   9.972  17.464  18.362 -0.3169  0.0379 -0.1492
36009POPC   C2B78097   9.961  17.146  18.023  0.1159  0.1902  0.0978
36009POPC   C3B78098   9.739  17.005  17.635  0.2254 -0.1054  0.0585
36009POPC   C4B78099   9.267  17.001  17.516 -0.0940  0.2058  0.0763
36010POPC   NC378100   5.915  22.903  18.291 -0.0132 -0.3189  0.1252
36010POPC   PO478101   6.300  22.786  18.218 -0.1072 -0.1094  0.0520
36010POPC   GL178102   6.101  22.803  17.787 -0.1213 -0.0551 -0.2596
36010POPC   GL278103   5.820  22.598  17.854 -0.0057 -0.1011 -0.0411
36010POPC   C1A78104   6.008  22.965  17.389  0.3052 -0.0176  0.1037
36010POPC   D2A78105   5.716  22.932  17.028 -0.1531 -0.1201 -0.2536
36010POPC   C3A78106   5.459  23.352  16.850 -0.0249  0.2381 -0.0081
36010POPC   C4A78107   5.388  23.669  17.136 -0.0187 -0.2709 -0.0138
36010POPC   C1B78108   5.895  22.411  17.468  0.0759  0.3169  0.0424
36010POPC   C2B78109   5.696  22.316  17.082 -0.2688  0.0086  0.2329
36010POPC   C3B78110   5.349  22.515  16.892 -0.1887  0.1288  0.0094
36010POPC   C4B78111   5.095  22.906  17.056  0.0994 -0.0093  0.1777
36011POPC   NC378112  12.259  29.467  20.606 -0.0832 -0.2020 -0.3027
36011POPC   PO478113  12.142  29.426  20.234  0.0838 -0.0104  0.1202
36011POPC   GL178114  12.255  29.489  19.902 -0.4023 -0.2742 -0.1089
36011POPC   GL278115  12.011  29.653  19.746  0.0951  0.0337  0.0329
36011POPC   C1A78116  12.557  29.268  19.600  0.1467  0.1067 -0.3684
36011POPC   D2A78117  12.621  29.207  19.155  0.2222  0.0616 -0.0636
36011POPC   C3A78118  12.258  29.135  18.863 -0.1353 -0.0983  0.0955
36011POPC   C4A78119  11.896  29.045  18.578 -0.3106 -0.1967 -0.2195
36011POPC   C1B78120  12.288  29.607  19.382 -0.2822 -0.2824  0.1559
36011POPC   C2B78121  12.245  29.636  18.912 -0.3643  0.1803  0.1463
36011POPC   C3B78122  12.511  29.695  18.528 -0.2491  0.0957 -0.3716
36011POPC   C4B78123  13.029  29.742  18.559  0.0608 -0.3166  0.3250
36012POPC   NC378124  10.069  23.970  17.573 -0.2024  0.3453  0.0461
36012POPC   PO478125   9.879  23.932  17.230  0.0687 -0.0692  0.0055
36012POPC   GL178126  10.019  24.297  17.152  0.3223 -0.1097 -0.5655
36012POPC   GL278127  10.301  24.423  17.349 -0.0980  0.2251 -0.1942
36012POPC   C1A78128  10.034  24.611  16.792  0.1326 -0.2621 -0.0760
36012POPC   D2A78129  10.315  24.876  16.559  0.1603  0.2005 -0.1178
36012POPC   C3A78130  10.610  24.859  16.181 -0.0441 -0.2235  0.1343
36012POPC   C4A78131  10.882  24.790  15.773  0.3309  0.2112 -0.1588
36012POPC   C1B78132  10.415  24.817  17.188  0.0599 -0.1497 -0.2567
36012POPC   C2B78133  10.314  25.176  16.986  0.1476 -0.0203  0.1052
36012POPC   C3B78134  10.308  25.678  16.917 -0.1237  0.0709  0.1096
36012POPC   C4B78135  10.586  26.029  16.938 -0.0346 -0.2801 -0.0309
36013POPC   NC378136   8.113  22.779  15.543  0.2124 -0.1001 -0.0839
36013POPC   PO478137   8.004  22.752  15.915  0.2014 -0.3265 -0.0625
36013POPC   GL178138   7.908  23.079  15.900 -0.3254  0.3213  0.0054
36013POPC   GL278139   7.697  23.059  15.692 -0.1194 -0.3714  0.0213
36013POPC   C1A78140   7.877  23.558  16.017  0.2198 -0.0237  0.3899
36013POPC   D2A78141   7.522  23.749  16.220  0.2251 -0.0448  0.1144
36013POPC   C3A78142   7.364  24.166  16.269 -0.0981 -0.3198 -0.1116
36013POPC   C4A78143   7.110  24.527  16.058 -0.0503  0.0757 -0.2383
36013POPC   C1B78144   7.352  23.152  15.372  0.0178 -0.4544  0.2060
36013POPC   C2B78145   7.204  23.548  15.161 -0.0814  0.2218 -0.3350
36013POPC   C3B78146   7.332  23.619  14.716 -0.1512  0.0483 -0.3166
36013POPC   C4B78147   7.350  23.741  14.248 -0.2370 -0.0319  0.1165
36014POPC   NC378148  13.145  18.416  18.869 -0.0828 -0.1276 -0.1847
36014POPC   PO478149  13.223  18.826  18.824 -0.0567  0.1190  0.1010
36014POPC   GL178150  13.282  18.743  18.432  0.4654  0.1374  0.3033
36014POPC   GL278151  13.068  18.625  18.433 -0.2718 -0.0529  0.1970
36014POPC   C1A78152  13.392  18.893  17.974 -0.0238  0.2459  0.2715
36014POPC   D2A78153  13.621  19.164  17.666 -0.0936 -0.0237  0.1087
36014POPC   C3A78154  13.694  19.067  17.254  0.0580 -0.1013  0.1044
36014POPC   C4A78155  13.763  18.877  16.789  0.3451  0.0610  0.0538
36014POPC   C1B78156  13.033  18.482  17.969  0.0471  0.1892 -0.2213
36014POPC   C2B78157  12.766  18.501  17.550 -0.0449 -0.1371  0.0475
36014POPC   C3B78158  12.383  18.489  17.361 -0.1253  0.0325  0.0253
36014POPC   C4B78159  11.975  18.611  17.448 -0.2948  0.1722 -0.3532
36015POPC   NC378160   9.759   0.065  20.194  0.1047 -0.1690 -0.0923
36015POPC   PO478161   9.947  -0.057  19.903 -0.0176  0.0140 -0.0273
36015POPC   GL178162   9.677  -0.269  19.662 -0.0296  0.1836 -0.2767
36015POPC   GL278163   9.573  -0.261  19.424  0.0383 -0.0850  0.1112
36015POPC   C1A78164   9.759  -0.751  19.625  0.1016  0.2149 -0.1200
36015POPC   D2A78165  10.162  -0.984  19.404  0.0957 -0.0526  0.0619
36015POPC   C3A78166  10.007  -1.229  19.071  0.3327  0.1472  0.3138
36015POPC   C4A78167  10.011  -1.219  18.623  0.1790  0.0806 -0.0933
36015POPC   C1B78168   9.452  -0.419  18.992  0.2569  0.0624  0.0345
36015POPC   C2B78169   9.369  -0.256  18.541  0.3123  0.2697 -0.2569
36015POPC   C3B78170   9.267  -0.082  18.152  0.0261  0.1510 -0.2996
36015POPC   C4B78171   9.308  -0.268  17.720 -0.2085  0.0021  0.0722
36016POPC   NC378172   9.390  29.361  20.381 -0.1734 -0.0292 -0.0456
36016POPC   PO478173   9.105  29.164  20.244  0.0226  0.2949 -0.3979
36016POPC   GL178174   8.911  29.371  19.795  0.3784 -0.1028 -0.0691
36016POPC   GL278175   8.636  29.304  19.793 -0.0170 -0.0991  0.1384
36016POPC   C1A78176   9.144  29.238  19.383  0.1880 -0.1501  0.0026
36016POPC   D2A78177   9.386  29.416  19.064  0.0436 -0.1572 -0.1980
36016POPC   C3A78178   9.257  29.488  18.679  0.0303 -0.0063  0.0440
36016POPC   C4A78179   8.946  29.841  18.595 -0.3525  0.1139  0.1134
36016POPC   C1B78180   8.505  29.330  19.351 -0.1787 -0.0662 -0.2234
36016POPC   C2B78181   8.402  29.129  18.929 -0.1821  0.2120  0.2390
36016POPC   C3B78182   8.239  28.742  18.634 -0.2291 -0.0536 -0.0359
36016POPC   C4B78183   7.881  28.537  18.458  0.1089  0.1584 -0.1904
36017POPC   NC378184   1.316  31.701  20.680  0.0134  0.0123  0.2662
36017POPC   PO478185   1.522  31.997  20.564  0.1869 -0.2610  0.0327
36017POPC   GL178186   1.783  31.788  20.290 -0.1696  0.1520 -0.0674
36017POPC   GL278187   1.874  32.078  20.123 -0.1563  0.4791  0.1787
36017POPC   C1A78188   1.940  31.599  19.880  0.1458  0.0891 -0.3136
36017POPC   D2A78189   2.127  31.583  19.432 -0.0642  0.1170 -0.1261
36017POPC   C3A78190   1.904  31.802  19.097 -0.0537 -0.3475 -0.1009
36017POPC   C4A78191   1.932  32.156  18.790 -0.2314 -0.1542 -0.2328
36017POPC   C1B78192   1.552  32.046  19.767 -0.2267  0.3766  0.0250
36017POPC   C2B78193   1.465  31.871  19.361 -0.1089 -0.0811 -0.0959
36017POPC   C3B78194   1.439  31.753  18.945 -0.2475 -0.2181 -0.1392
36017POPC   C4B78195   1.703  31.668  18.550  0.4669  0.1674 -0.2334
36018POPC   NC378196   1.149  19.235  19.598  0.0116  0.0125  0.3623
36018POPC   PO478197   0.924  18.924  19.666 -0.2285  0.0913 -0.1881
36018POPC   GL178198   0.755  19.164  19.375  0.1089  0.2696 -0.1701
36018POPC   GL278199   0.477  19.030  19.354  0.3937  0.0933 -0.5491
36018POPC   C1A78200   1.015  19.177  18.974  0.1777 -0.3192  0.0495
36018POPC   D2A78201   1.216  18.929  18.581  0.1801 -0.2908 -0.0529
36018POPC   C3A78202   0.979  18.687  18.311  0.1370 -0.0402  0.0146
36018POPC   C4A78203   0.795  18.867  17.925  0.0548  0.3970 -0.1615
36018POPC   C1B78204   0.293  18.777  19.006 -0.2176  0.2770 -0.2988
36018POPC   C2B78205   0.067  19.016  18.647  0.0008  0.0353 -0.2509
36018POPC   C3B78206   0.080  19.185  18.217 -0.3911 -0.0793  0.1044
36018POPC   C4B78207   0.024  19.313  17.763  0.0682 -0.0305  0.0241
36019POPC   NC378208  13.148  29.498  20.529  0.1430  0.2606  0.2610
36019POPC   PO478209  12.787  29.428  20.656  0.3057 -0.1711 -0.0964
36019POPC   GL178210  12.851  29.188  20.285  0.3163  0.2518 -0.2108
36019POPC   GL278211  12.536  29.095  20.154  0.2330 -0.4397 -0.1195
36019POPC   C1A78212  13.011  29.252  19.826  0.3613  0.1452  0.2219
36019POPC   D2A78213  12.987  29.573  19.491  0.0593 -0.0073 -0.0617
36019POPC   C3A78214  13.255  29.505  19.096  0.0008 -0.5866 -0.0630
36019POPC   C4A78215  13.661  29.604  18.892 -0.1871  0.0083  0.0849
36019POPC   C1B78216  12.270  28.924  19.825 -0.1738  0.1480  0.0665
36019POPC   C2B78217  12.309  28.824  19.390  0.0902  0.1454  0.0528
36019POPC   C3B78218  12.217  28.641  18.956  0.0528 -0.0729 -0.3242
36019POPC   C4B78219  12.281  28.536  18.549  0.2804 -0.0046 -0.1784
36020POPC   NC378220  10.330  20.049  16.968 -0.2106 -0.1231  0.5200
36020POPC   PO478221  10.249  19.816  17.259 -0.1726  0.1090  0.0678
36020POPC   GL178222  10.550  19.645  17.312 -0.1771 -0.0754  0.1068
36020POPC   GL278223  10.766  19.698  17.125 -0.1136  0.1485 -0.1268
36020POPC   C1A78224  10.577  19.186  17.182  0.0310  0.2889 -0.1046
36020POPC   D2A78225  10.371  18.843  17.017  0.1213 -0.2129  0.1372
36020POPC   C3A78226  10.535  18.787  16.585 -0.0579  0.0855 -0.2378
36020POPC   C4A78227  10.659  18.515  16.219  0.1084  0.2198 -0.2012
36020POPC   C1B78228  10.994  19.422  16.883 -0.0954  0.2996 -0.0372
36020POPC   C2B78229  10.961  19.034  16.692 -0.0723  0.1227 -0.0331
36020POPC   C3B78230  11.291  18.698  16.661 -0.0373  0.0973 -0.0748
36020POPC   C4B78231  11.405  18.275  16.493  0.0161 -0.0058  0.0961
36021POPC   NC378232   6.975  31.784  20.259  0.1846 -0.0831 -0.1679
36021POPC   PO478233   6.592  31.881  20.360  0.3928 -0.1126 -0.3565
36021POPC   GL178234   6.369  31.747  20.061 -0.3425 -0.0250 -0.1734
36021POPC   GL278235   6.652  31.625  19.922 -0.2167  0.1834  0.0930
36021POPC   C1A78236   6.204  31.613  19.606  0.0979 -0.0564  0.1164
36021POPC   D2A78237   6.202  31.793  19.218 -0.0496  0.0505 -0.0662
36021POPC   C3A78238   6.339  31.539  18.864 -0.1389  0.2275  0.0016
36021POPC   C4A78239   6.542  31.372  18.506 -0.0654 -0.1933 -0.0848
36021POPC   C1B78240   6.693  31.651  19.448  0.2098 -0.1657 -0.1877
36021POPC   C2B78241   6.726  31.877  19.024  0.1497  0.2534  0.0061
36021POPC   C3B78242   6.558  31.981  18.620 -0.0592  0.0545  0.1091
36021POPC   C4B78243   6.598  32.017  18.139  0.0786  0.2627 -0.1268
36022POPC   NC378244  32.311  20.677  19.900 -0.1299  0.1522  0.3660
36022POPC   PO478245  32.499  20.386  19.781 -0.0549  0.0132  0.1240
36022POPC   GL178246  32.675  20.255  19.482 -0.2709 -0.1623  0.2849
36022POPC   GL278247  32.950  20.235  19.412  0.4477 -0.1720  0.1819
36022POPC   C1A78248  32.666  20.268  18.991  0.0461 -0.3836  0.1747
36022POPC   D2A78249  32.416  20.400  18.604 -0.4074  0.0356  0.0133
36022POPC   C3A78250  32.202  20.211  18.274 -0.1747 -0.2872  0.3512
36022POPC   C4A78251  32.007  19.899  18.064  0.1289  0.1364  0.0504
36022POPC   C1B78252  33.052  19.898  19.093  0.2232  0.2871  0.0143
36022POPC   C2B78253  33.063  20.089  18.630  0.2968  0.1547 -0.2997
36022POPC   C3B78254  33.118  19.998  18.222  0.1436  0.0405  0.1385
36022POPC   C4B78255  33.259  19.839  17.804  0.0639 -0.2765  0.4400
36023POPC   NC378256   2.098  17.650  20.038 -0.0284 -0.1784  0.0471
36023POPC   PO478257   1.777  17.527  20.037 -0.0680 -0.0501 -0.1012
36023POPC   GL178258   1.874  17.322  19.687 -0.3547 -0.1508 -0.0416
36023POPC   GL278259   1.588  17.183  19.552 -0.0313  0.1917  0.0815
36023POPC   C1A78260   2.265  17.070  19.567  0.1504 -0.0278  0.0698
36023POPC   D2A78261   2.658  17.250  19.609 -0.0436  0.0186  0.1433
36023POPC   C3A78262   2.816  17.504  19.223 -0.0396  0.1260  0.0275
36023POPC   C4A78263   2.669  17.443  18.779  0.2036  0.0492 -0.0572
36023POPC   C1B78264   1.333  17.003  19.178  0.1904 -0.5459 -0.2118
36023POPC   C2B78265   1.137  17.181  18.763 -0.0157 -0.2819  0.2683
36023POPC   C3B78266   1.221  17.416  18.313  0.0667  0.1289  0.2244
36023POPC   C4B78267   1.107  17.838  18.196  0.1789 -0.0834 -0.1510
36024POPC   NC378268   2.439  25.262  20.726 -0.1229  0.2947 -0.0941
36024POPC   PO478269   2.098  25.198  20.521 -0.1996 -0.0648  0.4129
36024POPC   GL178270   2.108  25.180  20.146  0.3794  0.1736 -0.2596
36024POPC   GL278271   1.930  25.401  20.060  0.1243  0.1408  0.1514
36024POPC   C1A78272   2.040  24.966  19.764  0.0466  0.1579 -0.0187
36024POPC   D2A78273   1.960  24.716  19.388  0.2379  0.1524  0.1394
36024POPC   C3A78274   1.958  24.704  18.902 -0.0004 -0.2196 -0.1823
36024POPC   C4A78275   1.786  24.607  18.472  0.2770 -0.2077 -0.0559
36024POPC   C1B78276   2.151  25.501  19.658 -0.1749  0.0032 -0.2067
36024POPC   C2B78277   2.127  25.622  19.219 -0.0713  0.2677 -0.3571
36024POPC   C3B78278   2.313  25.573  18.793 -0.0773  0.0234  0.0193
36024POPC   C4B78279   2.428  25.728  18.348  0.1871 -0.0145  0.1862
36025POPC   NC378280  11.430  24.649  18.723 -0.2156 -0.0562  0.1702
36025POPC   PO478281  11.265  24.988  18.663  0.1454  0.2129  0.0740
36025POPC   GL178282  11.549  25.086  18.496 -0.1035 -0.0899  0.0290
36025POPC   GL278283  11.549  24.862  18.251  0.2346  0.1420 -0.1329
36025POPC   C1A78284  11.955  25.168  18.344  0.0547  0.2935 -0.0090
36025POPC   D2A78285  12.291  24.971  18.032  0.1881  0.2201 -0.1939
36025POPC   C3A78286  12.403  25.066  17.589  0.2110 -0.0822 -0.3010
36025POPC   C4A78287  12.633  25.224  17.213 -0.2040 -0.0084 -0.0552
36025POPC   C1B78288  11.420  25.265  17.991  0.3820 -0.0155 -0.1046
36025POPC   C2B78289  11.507  25.655  17.703  0.1789 -0.0799 -0.0679
36025POPC   C3B78290  11.422  25.911  17.337 -0.0797  0.3036  0.1737
36025POPC   C4B78291  11.598  26.137  16.984  0.0810  0.1146 -0.0958
36026POPC   NC378292   7.913  26.144  19.829 -0.0915  0.1811 -0.1845
36026POPC   PO478293   7.848  25.768  19.733 -0.1054 -0.0703  0.3466
36026POPC   GL178294   8.099  25.660  19.415  0.1215 -0.2430 -0.1168
36026POPC   GL278295   8.337  25.809  19.551  0.0021 -0.2523  0.2261
36026POPC   C1A78296   7.936  25.452  19.037  0.1584  0.1629 -0.0715
36026POPC   D2A78297   7.801  25.711  18.722 -0.1816 -0.2044  0.1234
36026POPC   C3A78298   7.396  25.881  18.654  0.3143  0.2968 -0.4558
36026POPC   C4A78299   6.950  26.028  18.518  0.2731  0.1123 -0.0408
36026POPC   C1B78300   8.227  25.915  19.071  0.0219  0.1156 -0.3876
36026POPC   C2B78301   8.215  25.985  18.666 -0.0213 -0.0801  0.1427
36026POPC   C3B78302   8.382  26.254  18.284 -0.1016  0.1100  0.2207
36026POPC   C4B78303   8.204  26.592  17.949  0.2029  0.0783  0.0886
36027POPC   NC378304   2.922  25.578  19.764 -0.3287  0.0026  0.1625
36027POPC   PO478305   2.943  25.475  20.125 -0.4225  0.0810 -0.0030
36027POPC   GL178306   2.980  25.115  19.794  0.0384  0.3031  0.2151
36027POPC   GL278307   3.157  25.136  19.532 -0.0725 -0.1579  0.1238
36027POPC   C1A78308   3.049  24.679  19.688  0.2078 -0.0281 -0.2150
36027POPC   D2A78309   3.176  24.339  19.456 -0.0372 -0.1322  0.0732
36027POPC   C3A78310   3.036  24.481  19.024  0.0552 -0.1270  0.2265
36027POPC   C4A78311   2.805  24.650  18.662 -0.3140  0.0443  0.1538
36027POPC   C1B78312   3.181  24.933  19.077 -0.0661 -0.2437  0.1229
36027POPC   C2B78313   3.124  25.115  18.609 -0.0657  0.0852 -0.0341
36027POPC   C3B78314   3.050  24.927  18.197 -0.1722  0.2061  0.0367
36027POPC   C4B78315   2.986  25.165  17.826  0.2740  0.3321  0.2524
36028POPC   NC378316  11.470  20.973  16.057 -0.0097  0.4387  0.0305
36028POPC   PO478317  11.432  20.595  16.220 -0.0276 -0.2056 -0.0955
36028POPC   GL178318  11.598  20.547  15.788  0.0766  0.0979  0.4234
36028POPC   GL278319  11.531  20.236  15.815 -0.3239  0.1775 -0.5633
36028POPC   C1A78320  11.791  20.459  15.342  0.0435 -0.2572  0.0753
36028POPC   D2A78321  11.863  20.177  14.992  0.1992  0.2525  0.0793
36028POPC   C3A78322  11.487  19.979  14.786  0.0996  0.1527  0.0171
36028POPC   C4A78323  11.186  19.601  14.734 -0.0695  0.0635 -0.3424
36028POPC   C1B78324  11.982  20.136  15.655 -0.1619  0.1765  0.0158
36028POPC   C2B78325  12.372  19.935  15.652  0.1400 -0.1474  0.0722
36028POPC   C3B78326  12.640  19.961  15.235 -0.2309  0.1050 -0.0860
36028POPC   C4B78327  12.791  19.972  14.774 -0.2600 -0.1933  0.1236
36029POPC   NC378328   0.134  29.957  21.284  0.2743 -0.0308  0.2287
36029POPC   PO478329   0.164  29.676  20.980  0.0051  0.0115  0.0023
36029POPC   GL178330  -0.107  29.672  20.631 -0.1572 -0.0210 -0.3681
36029POPC   GL278331   0.031  29.918  20.557 -0.1055 -0.1858  0.1341
36029POPC   C1A78332  -0.020  29.449  20.225 -0.0878  0.0687  0.3543
36029POPC   D2A78333   0.086  29.656  19.797 -0.1589  0.0967 -0.1828
36029POPC   C3A78334   0.342  29.538  19.431  0.0587 -0.1184  0.2127
36029POPC   C4A78335   0.729  29.439  19.176  0.1371 -0.1450 -0.0275
36029POPC   C1B78336   0.359  29.727  20.373  0.0451 -0.0397  0.2114
36029POPC   C2B78337   0.473  29.465  20.046 -0.2583  0.1334 -0.0079
36029POPC   C3B78338   0.896  29.336  20.002 -0.0417  0.0016 -0.1895
36029POPC   C4B78339   1.311  29.520  19.868  0.0736  0.1998  0.2396
36030POPC   NC378340  16.324  31.705  20.301 -0.1857 -0.0286  0.0305
36030POPC   PO478341  15.937  31.588  20.227 -0.3280  0.1520 -0.0756
36030POPC   GL178342  16.044  31.494  19.874 -0.0098 -0.3072 -0.1774
36030POPC   GL278343  16.310  31.570  19.825  0.1622  0.1364 -0.3422
36030POPC   C1A78344  15.925  31.487  19.429  0.3730  0.4689 -0.1914
36030POPC   D2A78345  15.988  31.254  19.037  0.1506 -0.3584  0.0703
36030POPC   C3A78346  16.037  30.807  18.917  0.0120  0.4550 -0.1753
36030POPC   C4A78347  16.178  30.420  19.093 -0.0785  0.0713  0.1501
36030POPC   C1B78348  16.408  31.268  19.551 -0.0156  0.1392 -0.2616
36030POPC   C2B78349  16.396  31.033  19.214  0.1351 -0.0547 -0.2443
36030POPC   C3B78350  16.405  31.084  18.789  0.1339  0.1190  0.1429
36030POPC   C4B78351  16.642  31.041  18.369  0.1047 -0.0160 -0.0521
36031POPC   NC378352  13.033  21.908  17.246 -0.1843  0.1422  0.1103
36031POPC   PO478353  12.976  22.198  17.527 -0.0818 -0.0602 -0.1112
36031POPC   GL178354  13.432  22.327  17.500 -0.0761 -0.2873  0.1511
36031POPC   GL278355  13.566  22.098  17.391 -0.1773 -0.0642  0.0481
36031POPC   C1A78356  13.506  22.528  17.083  0.1870  0.1606  0.0512
36031POPC   D2A78357  13.835  22.776  16.790  0.0278 -0.1139  0.0699
36031POPC   C3A78358  13.749  23.102  16.463  0.1986 -0.0986  0.0950
36031POPC   C4A78359  13.916  23.340  16.076  0.0346 -0.1562  0.3930
36031POPC   C1B78360  13.926  22.209  17.160 -0.0700 -0.1959 -0.1969
36031POPC   C2B78361  14.244  22.507  16.925  0.0495  0.0165 -0.1173
36031POPC   C3B78362  14.410  22.899  16.748 -0.0046  0.0014  0.3269
36031POPC   C4B78363  14.772  23.144  16.670  0.1113  0.0500 -0.0148
36032POPC   NC378364   6.340  21.494  18.732 -0.0710 -0.2301  0.1810
36032POPC   PO478365   6.067  21.315  18.515  0.0519 -0.0479 -0.2849
36032POPC   GL178366   5.897  21.229  18.254  0.6994  0.1249  0.3156
36032POPC   GL278367   6.030  21.205  17.964 -0.0840 -0.2292 -0.0980
36032POPC   C1A78368   5.455  21.086  18.155 -0.0466 -0.0354 -0.1891
36032POPC   D2A78369   5.020  20.938  18.138 -0.3355  0.2997  0.0246
36032POPC   C3A78370   4.974  21.259  17.764  0.2376 -0.2902  0.1862
36032POPC   C4A78371   4.742  21.517  17.484 -0.3203  0.1408 -0.2394
36032POPC   C1B78372   5.713  21.077  17.651  0.0547  0.0981  0.0336
36032POPC   C2B78373   5.438  20.861  17.353  0.1648  0.1338  0.1275
36032POPC   C3B78374   5.242  20.649  16.985 -0.3336 -0.0091 -0.0592
36032POPC   C4B78375   5.272  20.431  16.619 -0.0943 -0.1078  0.3356
36033POPC   NC378376   7.984  22.948  17.161 -0.3394 -0.1108  0.2280
36033POPC   PO478377   7.670  22.801  17.022  0.1099  0.2133  0.0311
36033POPC   GL178378   7.525  23.107  17.031 -0.4130  0.3651 -0.0839
36033POPC   GL278379   7.625  23.307  17.157 -0.0898  0.1597 -0.3482
36033POPC   C1A78380   7.265  23.259  16.666  0.1841 -0.0212 -0.1553
36033POPC   D2A78381   7.093  23.428  16.258 -0.1265  0.1785  0.2433
36033POPC   C3A78382   6.712  23.413  16.022 -0.1287 -0.1167 -0.0619
36033POPC   C4A78383   6.290  23.233  15.965  0.0708 -0.1206  0.0047
36033POPC   C1B78384   7.225  23.537  17.110  0.3518 -0.0205 -0.4423
36033POPC   C2B78385   6.966  23.956  16.988 -0.3502  0.1086 -0.1999
36033POPC   C3B78386   6.627  24.184  16.752 -0.0075 -0.0185 -0.2350
36033POPC   C4B78387   6.281  24.418  16.525  0.1228 -0.1422 -0.0731
36034POPC   NC378388  13.605  14.900  20.335 -0.1521 -0.1835  0.1345
36034POPC   PO478389  13.978  14.778  20.227  0.3704 -0.2860  0.2932
36034POPC   GL178390  13.836  14.724  19.835 -0.0366  0.0971  0.0742
36034POPC   GL278391  13.591  14.614  19.886 -0.1241 -0.4229 -0.0083
36034POPC   C1A78392  14.163  14.735  19.499 -0.0207 -0.1659  0.3905
36034POPC   D2A78393  14.090  15.097  19.201  0.3555  0.0751 -0.4183
36034POPC   C3A78394  13.803  15.431  19.386 -0.0017  0.2732 -0.0411
36034POPC   C4A78395  13.479  15.807  19.302  0.2028 -0.0114  0.1437
36034POPC   C1B78396  13.830  14.344  19.564  0.0647 -0.1169 -0.1007
36034POPC   C2B78397  14.119  14.185  19.226 -0.0855  0.0514 -0.0962
36034POPC   C3B78398  14.095  14.036  18.749 -0.0166  0.0777  0.2206
36034POPC   C4B78399  14.252  13.886  18.346 -0.3146  0.1427 -0.1399
36035POPC   NC378400  11.462  30.357  20.771  0.0231 -0.0633 -0.2869
36035POPC   PO478401  11.497  30.131  20.442 -0.1533 -0.1708  0.2293
36035POPC   GL178402  11.392  30.016  20.039  0.1938  0.3454  0.0777
36035POPC   GL278403  11.070  30.024  20.127 -0.1204 -0.0711  0.1321
36035POPC   C1A78404  11.603  29.979  19.580  0.0875  0.3300  0.0333
36035POPC   D2A78405  11.928  29.931  19.201 -0.1907 -0.2120 -0.0632
36035POPC   C3A78406  11.857  29.970  18.807  0.0251 -0.2192 -0.1759
36035POPC   C4A78407  11.516  30.041  18.556  0.0679  0.1285 -0.0966
36035POPC   C1B78408  11.063  29.995  19.651  0.1960 -0.0520 -0.1167
36035POPC   C2B78409  10.843  30.012  19.243 -0.0273 -0.4206 -0.0288
36035POPC   C3B78410  10.591  29.923  18.873  0.1853 -0.2777 -0.1306
36035POPC   C4B78411  10.121  29.937  18.777 -0.2547  0.2223  0.0844
36036POPC   NC378412   9.992  23.526  14.291  0.1264 -0.0146 -0.2468
36036POPC   PO478413   9.634  23.348  14.435 -0.0031  0.0648  0.0616
36036POPC   GL178414   9.606  23.729  14.496  0.4641  0.0753 -0.1020
36036POPC   GL278415   9.378  23.851  14.513  0.0534  0.1932 -0.0133
36036POPC   C1A78416   9.803  24.150  14.491  0.2641 -0.2982 -0.0330
36036POPC   D2A78417  10.058  24.587  14.581 -0.1692  0.2894  0.0029
36036POPC   C3A78418   9.876  25.037  14.740  0.0099 -0.1594 -0.3089
36036POPC   C4A78419  10.068  25.241  15.009  0.1306  0.0311 -0.4282
36036POPC   C1B78420   9.315  24.091  14.127  0.0343  0.0127 -0.1491
36036POPC   C2B78421   9.034  24.338  13.915  0.1098  0.0787 -0.1504
36036POPC   C3B78422   8.840  24.727  13.980  0.1132 -0.4081 -0.3949
36036POPC   C4B78423   8.871  25.072  14.266  0.0814 -0.1173  0.2027
36037POPC   NC378424   8.421  23.648  17.225  0.0004  0.0920 -0.0194
36037POPC   PO478425   8.733  23.499  17.076  0.0335  0.1164  0.1232
36037POPC   GL178426   8.752  23.800  16.776  0.1319 -0.1184  0.1619
36037POPC   GL278427   8.850  23.771  16.529 -0.0247  0.2402  0.2294
36037POPC   C1A78428   8.609  24.244  16.730 -0.1450 -0.3460  0.1371
36037POPC   D2A78429   8.301  24.503  16.450  0.2567 -0.3696  0.0204
36037POPC   C3A78430   8.021  24.158  16.244 -0.2910  0.3218 -0.0564
36037POPC   C4A78431   7.791  24.013  15.854 -0.2529 -0.2590 -0.2432
36037POPC   C1B78432   9.091  24.147  16.715  0.0722  0.0188  0.1200
36037POPC   C2B78433   9.161  24.604  16.695  0.0658  0.0785  0.2506
36037POPC   C3B78434   9.062  25.057  16.610 -0.0276  0.1210  0.0247
36037POPC   C4B78435   9.023  25.447  16.883 -0.0424  0.0069 -0.2190
36038POPC   NC378436   8.396  16.532  19.220  0.0622  0.2618  0.2926
36038POPC   PO478437   8.545  16.249  19.461 -0.1962  0.1421  0.2167
36038POPC   GL178438   8.693  16.164  19.085 -0.0229 -0.1335  0.0802
36038POPC   GL278439   8.417  16.101  18.968  0.0288  0.0621  0.1135
36038POPC   C1A78440   9.127  16.105  19.038 -0.0570 -0.1239  0.0385
36038POPC   D2A78441   9.446  16.029  18.770 -0.1853 -0.2060  0.0105
36038POPC   C3A78442   9.785  16.324  18.877 -0.1534 -0.0541  0.0892
36038POPC   C4A78443  10.105  16.555  18.712  0.1190 -0.0530 -0.3390
36038POPC   C1B78444   8.191  15.733  18.780 -0.0486  0.1877 -0.1438
36038POPC   C2B78445   8.201  15.344  18.584 -0.0375  0.0931 -0.1001
36038POPC   C3B78446   8.196  14.904  18.346  0.0694 -0.0503 -0.1755
36038POPC   C4B78447   8.284  14.534  18.193 -0.4414 -0.0578  0.1878
36039POPC   NC378448  13.480  21.588  17.833  0.0960  0.3084 -0.0914
36039POPC   PO478449  13.245  21.282  17.793  0.0785  0.1253  0.1951
36039POPC   GL178450  13.506  21.203  17.623  0.1250 -0.0094  0.2453
36039POPC   GL278451  13.586  21.041  17.343 -0.0369 -0.0670  0.0876
36039POPC   C1A78452  13.977  20.984  17.602  0.0802 -0.0266 -0.1288
36039POPC   D2A78453  14.345  20.827  17.272 -0.0691 -0.2734 -0.2807
36039POPC   C3A78454  14.443  20.427  17.149  0.1261  0.1020  0.0760
36039POPC   C4A78455  14.094  20.183  16.918  0.1837 -0.1613 -0.0671
36039POPC   C1B78456  13.908  21.088  17.060  0.0603 -0.2313 -0.1972
36039POPC   C2B78457  14.239  20.832  16.817 -0.0786  0.2019 -0.0803
36039POPC   C3B78458  14.357  20.448  16.585 -0.0479  0.0935 -0.2174
36039POPC   C4B78459  14.097  20.076  16.388 -0.0882  0.3036 -0.1234
36040POPC   NC378460   5.832  18.614  19.460 -0.0751 -0.0370  0.0744
36040POPC   PO478461   6.076  18.550  19.137  0.1110 -0.0451 -0.1465
36040POPC   GL178462   5.800  18.368  18.911  0.1926  0.2343  0.0296
36040POPC   GL278463   5.761  18.468  18.636 -0.0152  0.2489 -0.2358
36040POPC   C1A78464   5.531  17.947  18.821  0.1556 -0.0598  0.0350
36040POPC   D2A78465   5.142  17.588  18.836 -0.2829  0.2054 -0.0621
36040POPC   C3A78466   5.048  17.448  18.476 -0.0674  0.0329  0.3157
36040POPC   C4A78467   5.252  17.333  18.062  0.0617 -0.0713 -0.2289
36040POPC   C1B78468   5.521  18.191  18.344 -0.1434  0.1626  0.2360
36040POPC   C2B78469   5.438  17.762  18.142  0.0932 -0.0310 -0.2058
36040POPC   C3B78470   5.327  17.691  17.707 -0.0034 -0.1252 -0.2849
36040POPC   C4B78471   5.492  17.667  17.264 -0.0226  0.1532 -0.1121
36041POPC   NC378472  11.689  28.677  20.126 -0.0072  0.2291  0.1361
36041POPC   PO478473  11.327  28.551  20.191 -0.0858 -0.3047  0.2472
36041POPC   GL178474  11.039  28.755  19.893 -0.1878  0.3060  0.1594
36041POPC   GL278475  11.158  29.024  19.830  0.1328  0.1988  0.1530
36041POPC   C1A78476  10.988  28.578  19.463  0.1418 -0.0558 -0.0593
36041POPC   D2A78477  10.676  28.503  19.126 -0.1545 -0.0541 -0.2018
36041POPC   C3A78478  10.669  28.278  18.793  0.1361  0.0723  0.3639
36041POPC   C4A78479  10.427  28.206  18.437 -0.0473 -0.1583  0.1114
36041POPC   C1B78480  11.351  29.027  19.412  0.1101 -0.0490  0.1554
36041POPC   C2B78481  11.486  28.952  19.010 -0.1161 -0.0858 -0.0744
36041POPC   C3B78482  11.628  28.660  18.615 -0.0670  0.2202  0.1033
36041POPC   C4B78483  11.834  28.329  18.450  0.1070  0.0714 -0.0896
36042POPC   NC378484   0.904  20.264  20.107 -0.0692 -0.0784 -0.0842
36042POPC   PO478485   0.638  20.382  19.867  0.0081  0.1765 -0.1666
36042POPC   GL178486   0.808  20.437  19.470  0.2995 -0.2461 -0.0812
36042POPC   GL278487   0.568  20.422  19.289  0.1235 -0.4698 -0.2866
36042POPC   C1A78488   1.178  20.494  19.217 -0.0110 -0.1630 -0.1908
36042POPC   D2A78489   1.575  20.642  18.996 -0.1064  0.0466 -0.4814
36042POPC   C3A78490   1.689  20.324  18.678 -0.0163 -0.1354  0.1566
36042POPC   C4A78491   1.629  20.203  18.295  0.1593  0.0105  0.1096
36042POPC   C1B78492   0.360  20.468  18.924  0.4072  0.0587 -0.3832
36042POPC   C2B78493   0.086  20.573  18.613  0.1059  0.2346  0.2870
36042POPC   C3B78494   0.277  20.575  18.193  0.0109  0.1287 -0.0666
36042POPC   C4B78495   0.472  20.365  17.832  0.0767 -0.0110  0.2271
36043POPC   NC378496  14.859  24.338  19.794  0.0702  0.0369  0.0017
36043POPC   PO478497  14.476  24.280  19.669 -0.0489  0.1283 -0.2062
36043POPC   GL178498  14.604  24.366  19.305 -0.0471 -0.1293 -0.0815
36043POPC   GL278499  14.741  24.147  19.089  0.1565  0.1869  0.0792
36043POPC   C1A78500  14.363  24.649  18.970 -0.1021  0.2759  0.1634
36043POPC   D2A78501  14.399  24.591  18.507 -0.1613  0.1916  0.0227
36043POPC   C3A78502  14.692  24.502  18.192  0.0794 -0.0848 -0.1816
36043POPC   C4A78503  15.044  24.529  17.909  0.0898  0.0130  0.0745
36043POPC   C1B78504  15.123  24.245  18.822  0.3193 -0.0756  0.0304
36043POPC   C2B78505  15.488  24.380  18.607  0.1135  0.1012  0.0848
36043POPC   C3B78506  15.815  24.476  18.308 -0.0408 -0.2400  0.0478
36043POPC   C4B78507  16.157  24.270  18.084  0.0687  0.1747 -0.0659
36044POPC   NC378508  14.800  26.673  20.882 -0.1942  0.1429  0.0504
36044POPC   PO478509  15.097  26.710  20.560 -0.1761 -0.1424  0.1052
36044POPC   GL178510  15.173  26.686  20.195  0.2968 -0.1085  0.2411
36044POPC   GL278511  15.234  26.467  20.019  0.0486  0.0156  0.0866
36044POPC   C1A78512  15.300  27.115  20.010  0.0274  0.2565 -0.0907
36044POPC   D2A78513  15.595  27.356  19.744  0.2128  0.1886  0.0163
36044POPC   C3A78514  15.486  27.615  19.346  0.4008 -0.0555  0.3479
36044POPC   C4A78515  15.498  27.987  19.107 -0.0023 -0.2476 -0.1158
36044POPC   C1B78516  14.920  26.598  19.684 -0.0531 -0.2302  0.0748
36044POPC   C2B78517  14.953  26.817  19.237  0.1635  0.1982  0.0629
36044POPC   C3B78518  15.179  27.125  18.881  0.1075 -0.0866 -0.1091
36044POPC   C4B78519  15.568  27.374  18.949 -0.0630 -0.1518 -0.2491
36045POPC   NC378520   7.571  22.995  18.136 -0.0959 -0.2022  0.0692
36045POPC   PO478521   7.263  22.863  17.959  0.2663 -0.0131 -0.2920
36045POPC   GL178522   7.010  22.950  17.672  0.0905  0.2144 -0.1336
36045POPC   GL278523   6.823  22.827  17.523 -0.2791 -0.0213  0.0284
36045POPC   C1A78524   6.962  23.166  17.213  0.0674 -0.0894  0.1844
36045POPC   D2A78525   6.603  23.233  16.943  0.1640 -0.0343  0.0155
36045POPC   C3A78526   6.182  23.090  16.787 -0.1541 -0.1298 -0.0017
36045POPC   C4A78527   5.804  23.205  16.509  0.0392  0.0755  0.1836
36045POPC   C1B78528   6.513  23.215  17.509  0.1841  0.2375  0.3374
36045POPC   C2B78529   6.167  23.447  17.279  0.0414  0.0528 -0.0157
36045POPC   C3B78530   5.907  23.527  16.913  0.2437  0.0357  0.1525
36045POPC   C4B78531   5.602  23.806  16.690 -0.2087 -0.0891  0.1553
36046POPC   NC378532  16.886  20.828  19.858  0.4055 -0.1937 -0.0401
36046POPC   PO478533  16.829  20.442  19.754  0.2388 -0.1981 -0.0314
36046POPC   GL178534  16.943  20.566  19.364  0.0512  0.1133  0.1355
36046POPC   GL278535  17.130  20.742  19.231  0.0343 -0.2570 -0.1773
36046POPC   C1A78536  16.688  20.385  19.057  0.0250 -0.1480  0.1631
36046POPC   D2A78537  16.640  19.979  18.781  0.1003  0.0691  0.2064
36046POPC   C3A78538  16.626  19.902  18.353 -0.1132  0.2043  0.1657
36046POPC   C4A78539  16.448  19.478  18.140 -0.2907 -0.2719  0.1690
36046POPC   C1B78540  17.071  20.748  18.726  0.0651  0.2183  0.1549
36046POPC   C2B78541  17.187  20.767  18.268  0.0762 -0.1210  0.0528
36046POPC   C3B78542  16.987  20.564  17.924 -0.3006 -0.3121 -0.2926
36046POPC   C4B78543  16.692  20.207  17.859  0.1908 -0.0733 -0.1685
36047POPC   NC378544  13.687  27.251  19.665 -0.0270 -0.0004 -0.3588
36047POPC   PO478545  13.687  27.292  20.074 -0.0082  0.0053  0.1241
36047POPC   GL178546  13.979  27.526  19.929  0.2316 -0.1298  0.2582
36047POPC   GL278547  14.170  27.426  20.086  0.1616  0.1642 -0.0500
36047POPC   C1A78548  13.944  27.769  19.515  0.2304  0.0844 -0.0517
36047POPC   D2A78549  13.722  27.811  19.109  0.2115 -0.5042  0.2194
36047POPC   C3A78550  13.724  27.511  18.768  0.2058 -0.1368 -0.0690
36047POPC   C4A78551  13.695  27.115  18.512  0.0925 -0.2008  0.0881
36047POPC   C1B78552  14.423  27.467  19.689  0.0196 -0.2872 -0.0538
36047POPC   C2B78553  14.509  27.854  19.398 -0.0971 -0.2768  0.1555
36047POPC   C3B78554  14.664  27.962  18.929  0.1159 -0.1909  0.1674
36047POPC   C4B78555  14.992  27.890  18.602  0.0510 -0.3558 -0.0802
36048POPC   NC378556  11.503  18.713  18.518 -0.1118 -0.2056 -0.1899
36048POPC   PO478557  11.320  18.419  18.348 -0.1385  0.0098  0.1675
36048POPC   GL178558  11.244  18.208  18.038  0.3069 -0.3443 -0.1901
36048POPC   GL278559  11.396  17.963  18.121 -0.0727  0.2885  0.0450
36048POPC   C1A78560  11.078  17.853  17.736  0.1439  0.1745  0.0488
36048POPC   D2A78561  10.902  17.698  17.336  0.2241 -0.1277 -0.5715
36048POPC   C3A78562  11.065  17.494  17.002  0.2205  0.1904  0.4410
36048POPC   C4A78563  11.368  17.683  16.671 -0.0114 -0.0923  0.2225
36048POPC   C1B78564  11.652  17.780  17.769  0.2249  0.1360 -0.1971
36048POPC   C2B78565  11.836  17.772  17.338 -0.3642 -0.1102 -0.1600
36048POPC   C3B78566  11.811  18.008  16.901  0.0302  0.0115 -0.1128
36048POPC   C4B78567  11.868  18.225  16.501 -0.0158 -0.1210  0.0568
36049POPC   NC378568   4.393  20.449  18.842 -0.1937  0.2161 -0.1119
36049POPC   PO478569   4.266  20.092  19.061 -0.2877  0.0928  0.3208
36049POPC   GL178570   3.894  20.112  18.814  0.0004 -0.0839  0.6483
36049POPC   GL278571   4.092  20.043  18.611 -0.2301  0.0695  0.1088
36049POPC   C1A78572   3.760  19.718  18.590  0.3126  0.0693 -0.0578
36049POPC   D2A78573   3.497  19.380  18.513 -0.0870  0.2695  0.0859
36049POPC   C3A78574   3.675  18.982  18.465 -0.3041 -0.0357  0.4228
36049POPC   C4A78575   3.826  18.707  18.087 -0.1221 -0.0039 -0.1894
36049POPC   C1B78576   4.172  19.800  18.206 -0.3041  0.0184  0.1673
36049POPC   C2B78577   3.977  19.742  17.785 -0.0265 -0.1971 -0.0552
36049POPC   C3B78578   3.770  19.565  17.367  0.2694 -0.5077 -0.1762
36049POPC   C4B78579   3.324  19.365  17.234 -0.2509 -0.3276  0.0849
36050POPC   NC378580   1.805  25.740  20.442 -0.1410  0.2760  0.2823
36050POPC   PO478581   2.138  25.839  20.612  0.1784  0.0324  0.0277
36050POPC   GL178582   2.142  26.059  20.266  0.4137  0.0869 -0.5541
36050POPC   GL278583   2.105  25.917  20.005  0.0075 -0.1547  0.0732
36050POPC   C1A78584   2.208  26.380  19.921 -0.1442  0.3120  0.3631
36050POPC   D2A78585   2.572  26.650  19.706  0.0573  0.0943  0.0619
36050POPC   C3A78586   2.726  26.637  19.251 -0.1955  0.1991 -0.3345
36050POPC   C4A78587   2.841  26.352  18.954 -0.0072 -0.1075  0.0906
36050POPC   C1B78588   2.009  25.981  19.564 -0.1549  0.1831  0.1526
36050POPC   C2B78589   1.973  26.235  19.217 -0.0364  0.1331 -0.1900
36050POPC   C3B78590   1.706  26.399  18.833 -0.1856 -0.1066  0.1313
36050POPC   C4B78591   1.598  26.625  18.424  0.1775  0.2296 -0.1530
36051POPC   NC378592   8.699  22.383  13.126  0.0433  0.0490 -0.3013
36051POPC   PO478593   8.861  22.642  12.918  0.0374 -0.1643  0.0362
36051POPC   GL178594   8.595  22.595  12.713 -0.1529  0.2242 -0.2991
36051POPC   GL278595   8.566  22.333  12.536  0.0297 -0.0781 -0.0343
36051POPC   C1A78596   8.202  22.821  12.724 -0.0067 -0.2269  0.0239
36051POPC   D2A78597   7.898  23.144  12.554 -0.1034  0.1497 -0.2748
36051POPC   C3A78598   7.631  23.244  12.933 -0.3430  0.1261 -0.2006
36051POPC   C4A78599   7.331  23.101  13.340 -0.0472 -0.0267 -0.1046
36051POPC   C1B78600   8.162  22.428  12.464  0.2001  0.0841  0.0159
36051POPC   C2B78601   7.742  22.636  12.637 -0.2994  0.0288  0.0270
36051POPC   C3B78602   7.397  22.942  12.430 -0.0319 -0.2606 -0.1186
36051POPC   C4B78603   7.224  23.224  12.697  0.1954 -0.0574 -0.4373
36052POPS   CNO78604  15.952  22.628   9.895  0.2882  0.4638  0.0418
36052POPS   PO478605  15.657  22.475   9.699  0.2484  0.2787  0.0374
36052POPS   GL178606  15.525  22.420   9.336 -0.1476 -0.3643 -0.1389
36052POPS   GL278607  15.726  22.172   9.279  0.3942 -0.1338  0.3178
36052POPS   C1A78608  15.325  22.297   8.978 -0.1272  0.0908  0.0733
36052POPS   D2A78609  15.106  22.292   8.574 -0.1708  0.1221 -0.0343
36052POPS   C3A78610  14.808  21.952   8.473 -0.2874  0.4754  0.1419
36052POPS   C4A78611  14.642  21.645   8.129  0.2749 -0.0903 -0.0431
36052POPS   C1B78612  15.631  21.853   8.920 -0.2297 -0.2056  0.0180
36052POPS   C2B78613  15.256  21.814   8.658 -0.0798 -0.0530  0.1955
36052POPS   C3B78614  15.232  21.705   8.232  0.0177 -0.2431  0.1014
36052POPS   C4B78615  15.166  21.790   7.796  0.1323  0.0929 -0.0525
36053POPS   CNO78616  13.642  31.155   8.905  0.1769  0.0936  0.1353
36053POPS   PO478617  13.649  31.004   8.563  0.3508 -0.0783  0.0787
36053POPS   GL178618  13.748  31.064   8.131  0.0321 -0.0366 -0.0993
36053POPS   GL278619  14.002  31.037   8.145  0.1296  0.1678 -0.0696
36053POPS   C1A78620  13.668  31.170   7.695 -0.0734  0.1663  0.2234
36053POPS   D2A78621  13.550  31.550   7.505  0.1654 -0.0014 -0.1946
36053POPS   C3A78622  13.685  31.713   7.104 -0.1862  0.2143 -0.1073
36053POPS   C4A78623  13.815  32.016   6.753  0.0917  0.0305  0.1875
36053POPS   C1B78624  14.297  30.743   8.003 -0.0163  0.0481 -0.2505
36053POPS   C2B78625  14.539  30.475   7.665  0.0844 -0.1550 -0.2596
36053POPS   C3B78626  14.527  30.347   7.203 -0.4670  0.2619 -0.1715
36053POPS   C4B78627  14.295  30.397   6.799 -0.0420 -0.2005 -0.0953
36054POPS   CNO78628   4.865  20.415  10.648 -0.1280  0.2062  0.1693
36054POPS   PO478629   4.960  20.709  10.834 -0.1151 -0.0241  0.0822
36054POPS   GL178630   5.128  20.762  10.452 -0.1928  0.0282  0.2738
36054POPS   GL278631   5.422  20.712  10.582 -0.0625 -0.0395 -0.1276
36054POPS   C1A78632   5.203  20.526  10.022 -0.0082  0.0489  0.0770
36054POPS   D2A78633   5.433  20.166   9.795  0.0242 -0.0675  0.2781
36054POPS   C3A78634   5.424  20.044   9.331 -0.0469  0.3434 -0.2411
36054POPS   C4A78635   5.661  19.906   8.887 -0.0586  0.2808  0.3753
36054POPS   C1B78636   5.771  20.918  10.360  0.1144  0.1677  0.1565
36054POPS   C2B78637   6.223  21.055  10.341  0.2323 -0.2000 -0.1058
36054POPS   C3B78638   6.630  20.823  10.250  0.0256 -0.1109 -0.2810
36054POPS   C4B78639   7.047  21.010  10.322 -0.0374 -0.1540 -0.2455
36055POPS   CNO78640   2.547  27.199   8.610  0.0399 -0.3547  0.3820
36055POPS   PO478641   2.317  26.971   8.816 -0.1358  0.0879  0.0941
36055POPS   GL178642   2.295  26.875   8.440  0.0661  0.3930 -0.0920
36055POPS   GL278643   2.058  26.894   8.219 -0.2154 -0.0378 -0.0430
36055POPS   C1A78644   2.332  26.489   8.145 -0.3002  0.5004 -0.1591
36055POPS   D2A78645   2.274  26.100   7.896 -0.0048 -0.2501  0.1047
36055POPS   C3A78646   2.681  26.048   7.701 -0.0230 -0.0202 -0.0880
36055POPS   C4A78647   3.103  26.097   7.556 -0.0686 -0.0686 -0.1225
36055POPS   C1B78648   2.171  26.866   7.823 -0.0251 -0.1175  0.0151
36055POPS   C2B78649   2.119  26.846   7.339 -0.0271 -0.1968  0.0408
36055POPS   C3B78650   2.134  26.856   6.857 -0.3027  0.1740 -0.0423
36055POPS   C4B78651   2.288  26.560   6.561 -0.0845  0.0079 -0.1443
36056POPS   CNO78652  17.033  30.874   8.090  0.0184 -0.0794 -0.2816
36056POPS   PO478653  17.040  30.484   7.983 -0.3641  0.2708 -0.2458
36056POPS   GL178654  16.771  30.217   7.792  0.0195 -0.1900 -0.1160
36056POPS   GL278655  16.562  30.348   7.732 -0.0745  0.2718 -0.0764
36056POPS   C1A78656  16.739  30.039   7.337  0.2907 -0.0847 -0.0323
36056POPS   D2A78657  16.844  29.732   6.961  0.4347  0.0081 -0.0344
36056POPS   C3A78658  16.714  29.496   6.560  0.0900  0.0387  0.0100
36056POPS   C4A78659  16.577  29.239   6.141 -0.2751 -0.2606  0.1133
36056POPS   C1B78660  16.617  30.532   7.353  0.0992  0.2484  0.2753
36056POPS   C2B78661  16.775  30.657   6.877  0.1050  0.1602 -0.0685
36056POPS   C3B78662  16.741  30.505   6.463 -0.1083 -0.4640  0.0300
36056POPS   C4B78663  16.978  30.382   6.093 -0.2053 -0.0887  0.1639
36057POPS   CNO78664  15.976  29.341   8.874  0.0668  0.1863  0.2204
36057POPS   PO478665  16.100  29.073   8.608  0.2328 -0.0131 -0.0229
36057POPS   GL178666  16.024  29.031   8.164  0.4812 -0.0952 -0.3065
36057POPS   GL278667  15.750  28.904   8.173  0.1130 -0.0215  0.6352
36057POPS   C1A78668  16.239  29.029   7.750 -0.4351  0.1182 -0.2033
36057POPS   D2A78669  16.214  28.913   7.269 -0.3141 -0.2236  0.2163
36057POPS   C3A78670  15.926  29.213   7.021  0.3299  0.2141 -0.0919
36057POPS   C4A78671  15.828  29.334   6.603  0.1431 -0.2757  0.0633
36057POPS   C1B78672  15.782  29.201   7.822 -0.3304 -0.0982  0.2421
36057POPS   C2B78673  15.595  29.351   7.416  0.2103  0.2906 -0.0885
36057POPS   C3B78674  15.462  29.427   6.993 -0.2208 -0.0795 -0.0096
36057POPS   C4B78675  15.040  29.479   6.812 -0.1799 -0.2672  0.1130
36058POPS   CNO78676   6.668  32.154   8.992 -0.0546 -0.0053  0.0115
36058POPS   PO478677   6.836  31.927   8.706 -0.3458 -0.1850  0.0550
36058POPS   GL178678   6.719  32.301   8.527  0.3401  0.0143  0.2746
36058POPS   GL278679   6.621  32.575   8.711 -0.1619 -0.3148 -0.2759
36058POPS   C1A78680   6.658  32.498   8.110  0.1362  0.0073 -0.2598
36058POPS   D2A78681   6.429  32.740   7.780  0.2810  0.3597 -0.0575
36058POPS   C3A78682   6.538  32.771   7.332 -0.2275  0.2389  0.0122
36058POPS   C4A78683   6.346  32.811   6.871 -0.1565  0.1379  0.0030
36058POPS   C1B78684   6.941  32.794   8.467  0.0714  0.0595  0.1957
36058POPS   C2B78685   7.280  32.741   8.069 -0.0141 -0.1295 -0.0208
36058POPS   C3B78686   7.578  32.719   7.748  0.1776 -0.0104  0.0323
36058POPS   C4B78687   7.824  32.400   7.599 -0.1012  0.1602 -0.1539
36059POPS   CNO78688  14.986  19.286  14.258 -0.0609 -0.1348  0.1528
36059POPS   PO478689  14.676  19.163  14.391 -0.3137  0.2771 -0.2235
36059POPS   GL178690  14.531  19.408  14.653  0.2329 -0.0436 -0.1435
36059POPS   GL278691  14.452  19.189  14.861 -0.0685  0.0962  0.0321
36059POPS   C1A78692  14.064  19.534  14.648 -0.0327 -0.0932  0.0615
36059POPS   D2A78693  13.644  19.444  14.870 -0.0959 -0.0278  0.1713
36059POPS   C3A78694  13.417  19.680  15.162 -0.0205  0.1663  0.1262
36059POPS   C4A78695  13.106  19.894  15.410  0.2544 -0.2248  0.0439
36059POPS   C1B78696  14.379  19.096  15.367  0.1984 -0.0453  0.2720
36059POPS   C2B78697  14.056  19.030  15.726  0.0341 -0.1866 -0.2833
36059POPS   C3B78698  13.669  19.164  15.960 -0.0571 -0.2528  0.2123
36059POPS   C4B78699  13.404  19.445  16.180  0.0666  0.1458  0.0329
36060POPS   CNO78700   5.080  25.840  10.573 -0.0334 -0.1683 -0.1834
36060POPS   PO478701   4.889  25.575  10.412 -0.2736  0.1565  0.1153
36060POPS   GL178702   4.926  25.226  10.199  0.0673 -0.2754 -0.0541
36060POPS   GL278703   4.974  25.312   9.842 -0.0027  0.2693 -0.1432
36060POPS   C1A78704   5.364  24.972  10.234 -0.1007  0.1858  0.1402
36060POPS   D2A78705   5.606  25.089  10.670 -0.3939 -0.1941  0.2336
36060POPS   C3A78706   5.912  24.759  10.785  0.3428  0.1806  0.0445
36060POPS   C4A78707   6.274  24.504  10.965  0.0234  0.2504  0.0894
36060POPS   C1B78708   5.431  25.160   9.728  0.1085 -0.2928 -0.1823
36060POPS   C2B78709   5.748  25.004   9.427 -0.2867 -0.0765  0.2862
36060POPS   C3B78710   6.170  25.047   9.242  0.3856 -0.2400  0.0171
36060POPS   C4B78711   6.578  25.001   9.006 -0.1413 -0.0673 -0.0870
36061POPS   CNO78712   5.414  27.161   9.553 -0.0557  0.1631  0.2266
36061POPS   PO478713   5.630  27.207   9.284  0.1372  0.0475  0.1886
36061POPS   GL178714   5.774  26.830   9.229  0.0288  0.0715  0.1803
36061POPS   GL278715   5.766  26.571   9.053  0.2113 -0.0624  0.1063
36061POPS   C1A78716   6.048  26.842   8.822 -0.4302 -0.3673  0.0456
36061POPS   D2A78717   6.321  26.841   8.461 -0.0860  0.0254 -0.1306
36061POPS   C3A78718   6.685  26.770   8.222  0.1582 -0.2615  0.0330
36061POPS   C4A78719   7.111  26.663   8.062 -0.1726  0.0723  0.5392
36061POPS   C1B78720   6.027  26.376   8.743 -0.2517 -0.2374  0.0506
36061POPS   C2B78721   6.221  26.384   8.337 -0.0454 -0.0999 -0.2629
36061POPS   C3B78722   6.065  26.261   7.919 -0.0525  0.2066 -0.0898
36061POPS   C4B78723   5.849  26.417   7.543  0.2280  0.0113 -0.1939
36062POPS   CNO78724   7.107  17.739  11.484  0.0811  0.2478  0.4186
36062POPS   PO478725   7.223  18.107  11.484  0.0818 -0.2033  0.1056
36062POPS   GL178726   7.290  18.488  11.259  0.1438  0.2764  0.2283
36062POPS   GL278727   7.514  18.539  11.306 -0.5100  0.2614  0.0737
36062POPS   C1A78728   7.259  18.811  10.892 -0.1608 -0.0636  0.0899
36062POPS   D2A78729   7.051  19.213  10.726  0.0710  0.3690 -0.1013
36062POPS   C3A78730   7.289  19.610  10.670  0.0975 -0.0534 -0.0810
36062POPS   C4A78731   7.705  19.695  10.582 -0.1449 -0.1259  0.3029
36062POPS   C1B78732   7.780  18.805  11.024 -0.1963 -0.4306 -0.1997
36062POPS   C2B78733   7.994  19.203  10.924  0.1097  0.3073  0.0503
36062POPS   C3B78734   7.965  19.649  10.993  0.1028 -0.2326 -0.1468
36062POPS   C4B78735   7.880  20.036  11.288 -0.1044  0.0301 -0.2294
36063POPS   CNO78736  32.151  28.310   8.671 -0.0039 -0.2181 -0.0904
36063POPS   PO478737  32.100  28.606   8.472 -0.0304 -0.2186 -0.0247
36063POPS   GL178738  31.904  28.461   8.216 -0.3278 -0.1450 -0.3099
36063POPS   GL278739  31.759  28.576   7.970 -0.0537  0.1573 -0.2991
36063POPS   C1A78740  31.895  28.054   8.006 -0.2136  0.0850  0.3045
36063POPS   D2A78741  32.111  27.656   8.003  0.1827 -0.1764 -0.2061
36063POPS   C3A78742  31.814  27.434   7.718  0.1735  0.0751  0.2351
36063POPS   C4A78743  31.664  27.317   7.283  0.1100  0.2295  0.2037
36063POPS   C1B78744  31.762  28.513   7.539 -0.1231 -0.3057  0.0037
36063POPS   C2B78745  31.658  28.436   7.127  0.5909  0.0365  0.0553
36063POPS   C3B78746  31.845  28.340   6.761 -0.0664  0.2914  0.0303
36063POPS   C4B78747  31.882  28.222   6.294  0.2993  0.3218 -0.1386
36064POPS   CNO78748   0.170  31.562   8.220  0.0072 -0.2316 -0.0719
36064POPS   PO478749   0.442  31.605   7.974  0.1259  0.1191  0.3010
36064POPS   GL178750   0.427  31.583   7.571  0.3068 -0.0712 -0.3792
36064POPS   GL278751   0.596  31.631   7.350  0.1932  0.0019  0.0566
36064POPS   C1A78752   0.101  31.528   7.228  0.1184  0.2500 -0.1017
36064POPS   D2A78753  -0.072  31.493   6.807  0.0654  0.1039 -0.2282
36064POPS   C3A78754   0.158  31.268   6.523 -0.2437 -0.0892  0.0238
36064POPS   C4A78755   0.228  31.013   6.169  0.1742  0.1479 -0.1065
36064POPS   C1B78756   0.407  31.720   6.938  0.0491  0.1961 -0.3638
36064POPS   C2B78757   0.484  31.710   6.493 -0.0643 -0.2031  0.1148
36064POPS   C3B78758   0.500  31.888   6.107  0.1254  0.0235 -0.1419
36064POPS   C4B78759   0.486  31.734   5.689 -0.1977 -0.1251  0.0077
36065POPS   CNO78760  13.308  19.320  11.455 -0.1549  0.2815  0.1226
36065POPS   PO478761  13.333  19.699  11.464  0.2719  0.1559 -0.2443
36065POPS   GL178762  13.121  19.932  11.283  0.0395  0.0103 -0.1263
36065POPS   GL278763  13.053  20.239  11.323 -0.1258  0.4344 -0.0507
36065POPS   C1A78764  12.697  19.883  11.064  0.0780  0.2261  0.0994
36065POPS   D2A78765  12.254  19.855  11.160 -0.1550 -0.2401 -0.2911
36065POPS   C3A78766  11.952  20.242  11.073 -0.1754 -0.0410  0.1208
36065POPS   C4A78767  11.983  20.560  10.710 -0.0142 -0.1900  0.1129
36065POPS   C1B78768  12.851  20.365  10.910  0.1977  0.1165 -0.0462
36065POPS   C2B78769  12.672  20.557  10.502 -0.1471 -0.0234 -0.2343
36065POPS   C3B78770  12.340  20.866  10.324 -0.1262 -0.0559  0.2328
36065POPS   C4B78771  12.142  21.170  10.056 -0.0796 -0.1596  0.1141
36066POPS   CNO78772   3.437  20.962  10.056 -0.1034  0.0149  0.0254
36066POPS   PO478773   3.575  20.609   9.990  0.0381  0.0531  0.0110
36066POPS   GL178774   3.950  20.550   9.737  0.3295  0.0827  0.2902
36066POPS   GL278775   3.854  20.411   9.487  0.5234  0.2805 -0.1057
36066POPS   C1A78776   4.050  20.810   9.339  0.0358  0.1171 -0.0401
36066POPS   D2A78777   4.069  20.628   8.939  0.0940  0.0972  0.0184
36066POPS   C3A78778   3.975  20.767   8.466  0.0690 -0.1904 -0.0133
36066POPS   C4A78779   3.839  20.627   8.026  0.1143 -0.2549  0.1072
36066POPS   C1B78780   4.266  20.373   9.374 -0.0202 -0.2531 -0.2435
36066POPS   C2B78781   4.471  20.161   9.025 -0.0243  0.6224 -0.2943
36066POPS   C3B78782   4.690  20.291   8.638  0.0103 -0.0630  0.2510
36066POPS   C4B78783   4.867  20.266   8.227  0.1369 -0.2280 -0.0251
36067POPS   CNO78784  14.691  20.030  10.750  0.1715 -0.0010 -0.1288
36067POPS   PO478785  14.435  20.278  10.878 -0.2501 -0.0766  0.1362
36067POPS   GL178786  14.357  20.588  10.683  0.1000 -0.1243 -0.0676
36067POPS   GL278787  14.060  20.483  10.619 -0.0328  0.1935  0.1328
36067POPS   C1A78788  14.085  20.927  10.815 -0.0198 -0.0604 -0.1837
36067POPS   D2A78789  13.594  20.893  10.809  0.0385  0.2019  0.1285
36067POPS   C3A78790  13.429  21.251  10.526  0.2453  0.1967 -0.2296
36067POPS   C4A78791  13.056  21.343  10.261 -0.1673 -0.2035 -0.0334
36067POPS   C1B78792  13.886  20.819  10.383 -0.0008  0.0332 -0.0740
36067POPS   C2B78793  13.519  20.922  10.086 -0.4047 -0.1426 -0.0180
36067POPS   C3B78794  13.464  21.314   9.922 -0.0086 -0.2272  0.1237
36067POPS   C4B78795  13.412  21.753   9.934  0.3346 -0.1278  0.0332
36068POPS   CNO78796  12.621  29.542   9.208 -0.1290  0.2358 -0.0121
36068POPS   PO478797  12.326  29.349   9.160  0.2102 -0.0538  0.1665
36068POPS   GL178798  12.166  29.152   8.835 -0.3113 -0.2842  0.0236
36068POPS   GL278799  11.938  29.187   8.717  0.1029 -0.1138  0.1347
36068POPS   C1A78800  12.395  28.873   8.583  0.0763 -0.0834  0.4046
36068POPS   D2A78801  12.676  28.519   8.412 -0.2253 -0.0595  0.0182
36068POPS   C3A78802  12.512  28.257   8.086 -0.1115  0.0122 -0.0724
36068POPS   C4A78803  12.402  28.002   7.721 -0.5327  0.1154  0.0520
36068POPS   C1B78804  12.013  29.074   8.273  0.2560 -0.4778 -0.0757
36068POPS   C2B78805  11.957  29.002   7.835 -0.1364  0.0091  0.1138
36068POPS   C3B78806  11.870  28.907   7.437 -0.1607 -0.0149 -0.2884
36068POPS   C4B78807  11.748  28.465   7.466 -0.2177 -0.2674 -0.1830
36069POPS   CNO78808   4.317  25.732  10.212  0.0454  0.0413 -0.0880
36069POPS   PO478809   4.462  25.410  10.088  0.2528 -0.1214  0.1258
36069POPS   GL178810   4.546  25.054   9.789  0.0823 -0.2518 -0.0315
36069POPS   GL278811   4.309  24.952   9.873  0.2946 -0.0944  0.2053
36069POPS   C1A78812   4.795  25.037   9.380 -0.1605  0.0476  0.2332
36069POPS   D2A78813   4.974  24.780   9.090 -0.0907  0.2971  0.0809
36069POPS   C3A78814   5.078  24.381   9.139  0.2210  0.1527 -0.0905
36069POPS   C4A78815   5.223  24.222   8.741 -0.1465 -0.1229 -0.0189
36069POPS   C1B78816   4.240  24.782   9.452  0.0396  0.0309 -0.1103
36069POPS   C2B78817   4.414  24.757   9.080 -0.0535  0.0603 -0.0853
36069POPS   C3B78818   4.590  24.694   8.624  0.0601 -0.0901  0.1292
36069POPS   C4B78819   5.006  24.611   8.421  0.1792 -0.0638 -0.0345
36070POPS   CNO78820   8.063  16.664  10.174 -0.2253  0.0798 -0.2167
36070POPS   PO478821   8.152  16.427   9.900  0.3079 -0.0697 -0.0572
36070POPS   GL178822   8.015  16.496   9.436  0.0365  0.2679 -0.1715
36070POPS   GL278823   8.146  16.733   9.410 -0.0426  0.0723  0.2078
36070POPS   C1A78824   7.768  16.771   9.162  0.0811  0.0425 -0.0569
36070POPS   D2A78825   7.408  16.852   8.838 -0.0485  0.3348 -0.0345
36070POPS   C3A78826   7.612  17.223   8.704  0.0424  0.1959 -0.3163
36070POPS   C4A78827   7.504  17.362   8.231  0.0488 -0.4298 -0.1342
36070POPS   C1B78828   8.147  17.052   9.030 -0.0173  0.0878 -0.2110
36070POPS   C2B78829   8.170  17.309   8.658  0.2742  0.2561 -0.0582
36070POPS   C3B78830   8.014  17.606   8.402  0.1188  0.5413  0.3232
36070POPS   C4B78831   7.701  17.783   8.081  0.1374  0.2184 -0.0203
36071POPS   CNO78832  12.971  17.905   9.821 -0.2272  0.0571 -0.2153
36071POPS   PO478833  13.332  17.898   9.734  0.4133  0.0402  0.1083
36071POPS   GL178834  13.072  18.032   9.417  0.2155  0.3992 -0.1667
36071POPS   GL278835  13.314  17.886   9.227 -0.0481 -0.1488 -0.2322
36071POPS   C1A78836  12.684  18.278   9.269  0.0364 -0.0353 -0.0953
36071POPS   D2A78837  12.443  18.481   8.925  0.1049 -0.0364  0.1086
36071POPS   C3A78838  12.621  18.919   8.851  0.1344 -0.0727 -0.2026
36071POPS   C4A78839  12.951  19.202   9.062  0.1443  0.2453  0.0516
36071POPS   C1B78840  13.217  18.361   9.170 -0.2223 -0.0350  0.3421
36071POPS   C2B78841  12.939  18.706   9.204 -0.1152  0.1021  0.0812
36071POPS   C3B78842  12.571  19.039   9.341  0.0332 -0.0114 -0.3142
36071POPS   C4B78843  12.518  19.441   9.212  0.3019  0.0476 -0.1920
36072POPS   CNO78844  12.972  29.981   9.051  0.1833 -0.0435  0.2415
36072POPS   PO478845  12.960  30.009   8.669  0.0127  0.0062 -0.1342
36072POPS   GL178846  12.643  29.737   8.452  0.0266 -0.3556  0.1410
36072POPS   GL278847  12.719  29.971   8.205 -0.0151  0.0266 -0.4661
36072POPS   C1A78848  12.235  29.765   8.181  0.0105 -0.1886  0.0974
36072POPS   D2A78849  11.964  29.499   7.902 -0.0848 -0.1011 -0.2162
36072POPS   C3A78850  12.072  29.528   7.467 -0.2463 -0.0694  0.0051
36072POPS   C4A78851  12.054  29.329   7.042  0.4588 -0.1580  0.2128
36072POPS   C1B78852  13.000  30.046   7.812  0.1226  0.2229  0.0043
36072POPS   C2B78853  13.089  29.916   7.352  0.4407  0.2185  0.1362
36072POPS   C3B78854  13.007  29.840   6.893  0.2221 -0.0224 -0.2364
36072POPS   C4B78855  12.637  29.732   6.644  0.1853  0.2566 -0.1782
36073POPS   CNO78856   1.570  20.305   9.466 -0.0483  0.0058  0.0962
36073POPS   PO478857   1.409  20.070   9.202  0.1198 -0.1713  0.0493
36073POPS   GL178858   1.706  19.953   8.868  0.2620 -0.0977 -0.5030
36073POPS   GL278859   1.743  19.688   8.924 -0.0113  0.0925 -0.1547
36073POPS   C1A78860   1.746  20.147   8.461  0.1353  0.0227 -0.1084
36073POPS   D2A78861   1.875  20.482   8.162  0.1018 -0.3625  0.1671
36073POPS   C3A78862   1.416  20.617   7.944 -0.2233 -0.0604 -0.0390
36073POPS   C4A78863   1.197  20.407   7.630  0.2070  0.3417 -0.0270
36073POPS   C1B78864   2.034  19.558   8.550 -0.0753 -0.2462 -0.0374
36073POPS   C2B78865   2.072  19.796   8.153 -0.2008 -0.0778 -0.0382
36073POPS   C3B78866   2.142  19.970   7.716  0.0003  0.3883  0.1370
36073POPS   C4B78867   2.378  19.971   7.304  0.2026 -0.4297  0.1751
36074POPS   CNO78868   5.058  20.925  13.395 -0.1296 -0.0259  0.2731
36074POPS   PO478869   5.104  21.125  13.051  0.1103 -0.0401 -0.0254
36074POPS   GL178870   5.520  21.277  13.188  0.3300 -0.1103 -0.0741
36074POPS   GL278871   5.614  21.506  13.313  0.1597  0.1029 -0.2423
36074POPS   C1A78872   5.941  21.333  13.002 -0.2515  0.0471 -0.0898
36074POPS   D2A78873   6.410  21.266  12.936 -0.1495  0.0381 -0.3157
36074POPS   C3A78874   6.764  21.218  12.663  0.2155 -0.2320  0.1009
36074POPS   C4A78875   7.086  20.978  12.452 -0.1424 -0.0911 -0.1110
36074POPS   C1B78876   5.947  21.634  13.517 -0.1074 -0.0114  0.4158
36074POPS   C2B78877   6.374  21.713  13.397 -0.0891  0.2077  0.0741
36074POPS   C3B78878   6.755  21.871  13.464  0.1193 -0.3443 -0.3616
36074POPS   C4B78879   7.232  21.897  13.462  0.2347 -0.0053  0.1100
36075POPS   CNO78880  11.253  29.748   9.661  0.0394 -0.1049 -0.2627
36075POPS   PO478881  11.353  29.535   9.339 -0.0005  0.1146  0.1367
36075POPS   GL178882  11.278  29.598   8.969  0.0551  0.2118 -0.1264
36075POPS   GL278883  11.411  29.375   8.860  0.3991 -0.0246  0.1396
36075POPS   C1A78884  11.325  29.785   8.515  0.3623  0.2042  0.4290
36075POPS   D2A78885  11.408  29.801   8.074  0.2849 -0.1600  0.2207
36075POPS   C3A78886  11.144  29.916   7.679 -0.3188 -0.1401 -0.1652
36075POPS   C4A78887  10.877  30.247   7.501 -0.0013  0.0236  0.0540
36075POPS   C1B78888  11.069  29.399   8.514 -0.1276  0.0422 -0.2901
36075POPS   C2B78889  10.876  29.209   8.166 -0.1519  0.1959  0.0976
36075POPS   C3B78890  10.891  29.052   7.698 -0.1965  0.0231  0.0758
36075POPS   C4B78891  10.905  28.748   7.298 -0.2650  0.2114  0.3342
36076POPS   CNO78892  31.075   0.291   8.602  0.1338  0.1661  0.0583
36076POPS   PO478893  31.336   0.391   8.387  0.0913 -0.1808  0.2685
36076POPS   GL178894  31.125   0.383   8.085 -0.1886  0.2059  0.1359
36076POPS   GL278895  31.318   0.161   7.895 -0.0700 -0.0211 -0.2435
36076POPS   C1A78896  31.188   0.585   7.649 -0.2831 -0.0856  0.0866
36076POPS   D2A78897  31.396   0.815   7.270 -0.0524 -0.0512 -0.1397
36076POPS   C3A78898  31.411   0.841   6.770 -0.1629 -0.0940 -0.1030
36076POPS   C4A78899  31.079   0.610   6.497 -0.1581  0.1104  0.0003
36076POPS   C1B78900  31.606   0.200   7.508  0.0397  0.1421 -0.3226
36076POPS   C2B78901  31.612   0.379   7.084 -0.0299 -0.0098  0.1565
36076POPS   C3B78902  31.892   0.573   6.742  0.1339 -0.1465 -0.0017
36076POPS   C4B78903  32.214   0.380   6.502  0.2525 -0.1047  0.1019
36077POPS   CNO78904   5.385  29.410   8.971  0.1603 -0.3572  0.1218
36077POPS   PO478905   5.629  29.234   8.725  0.1835  0.2245  0.1411
36077POPS   GL178906   5.710  28.902   8.468 -0.2409 -0.2782  0.2203
36077POPS   GL278907   5.987  29.032   8.426  0.0068  0.1621 -0.1368
36077POPS   C1A78908   5.651  28.863   8.004  0.2088 -0.0203  0.1088
36077POPS   D2A78909   5.909  28.879   7.686 -0.0143 -0.0978  0.0404
36077POPS   C3A78910   5.853  28.695   7.241 -0.0258 -0.0248  0.0375
36077POPS   C4A78911   5.912  28.453   6.871 -0.3586 -0.3009 -0.1245
36077POPS   C1B78912   6.281  29.090   8.064  0.2865  0.0586  0.1818
36077POPS   C2B78913   6.260  29.224   7.589  0.0440 -0.2611  0.1363
36077POPS   C3B78914   6.295  29.039   7.189 -0.0464 -0.0717 -0.1770
36077POPS   C4B78915   6.097  29.008   6.791 -0.0169 -0.2401 -0.2080
36078POPS   CNO78916  16.939  14.902  16.007  0.2840  0.3187  0.2090
36078POPS   PO478917  16.675  14.781  16.196  0.4126  0.1054  0.0226
36078POPS   GL178918  16.698  14.692  16.590 -0.1616 -0.1372 -0.0818
36078POPS   GL278919  16.504  14.917  16.626 -0.1875  0.0874  0.1563
36078POPS   C1A78920  16.482  14.508  16.947 -0.1895 -0.0284  0.2072
36078POPS   D2A78921  16.157  14.302  17.190 -0.1217 -0.0196  0.0983
36078POPS   C3A78922  15.877  14.452  17.576  0.1255  0.0994  0.1900
36078POPS   C4A78923  15.693  14.647  18.011  0.2274  0.0639 -0.0332
36078POPS   C1B78924  16.396  15.160  17.007  0.0124 -0.0145 -0.1702
36078POPS   C2B78925  16.425  15.300  17.486 -0.3646  0.1355 -0.0821
36078POPS   C3B78926  16.354  15.676  17.751  0.0408  0.0680  0.1454
36078POPS   C4B78927  16.229  16.115  17.876  0.0530  0.0560 -0.1354
36079POPS   CNO78928  16.720  29.020   8.720 -0.1086 -0.2042  0.2648
36079POPS   PO478929  16.848  29.201   8.440  0.0083  0.1762 -0.1688
36079POPS   GL178930  16.866  28.972   8.134 -0.2317 -0.1246 -0.0877
36079POPS   GL278931  16.982  29.024   7.874  0.2051  0.0370 -0.3121
36079POPS   C1A78932  16.632  28.717   7.822  0.0865 -0.2215  0.0778
36079POPS   D2A78933  16.263  28.446   7.632 -0.2324  0.2268  0.2345
36079POPS   C3A78934  16.110  28.435   7.207  0.0337  0.0179 -0.5817
36079POPS   C4A78935  15.845  28.744   6.925  0.0042 -0.0361  0.1689
36079POPS   C1B78936  17.057  28.595   7.609 -0.1249  0.0291  0.1279
36079POPS   C2B78937  17.062  28.341   7.199 -0.2418 -0.2864 -0.3614
36079POPS   C3B78938  17.064  28.119   6.826  0.1112  0.0522  0.1212
36079POPS   C4B78939  17.257  27.882   6.452  0.1281  0.0342 -0.1070
36080POPS   CNO78940  15.392  21.098   9.961  0.0552 -0.1055 -0.1282
36080POPS   PO478941  15.296  21.300   9.668 -0.1619  0.1202  0.0464
36080POPS   GL178942  15.111  21.306   9.323  0.0756 -0.1680 -0.3412
36080POPS   GL278943  15.374  21.384   9.198 -0.0024  0.0066  0.2127
36080POPS   C1A78944  14.957  21.045   8.993  0.0306 -0.3108 -0.1804
36080POPS   D2A78945  15.056  20.915   8.554 -0.0315 -0.1979  0.0490
36080POPS   C3A78946  14.816  20.692   8.238  0.2507 -0.0488  0.2227
36080POPS   C4A78947  14.667  20.272   8.125 -0.1608 -0.2182  0.0012
36080POPS   C1B78948  15.358  21.338   8.752  0.0557  0.3738 -0.1564
36080POPS   C2B78949  15.317  21.184   8.269  0.2354 -0.4698 -0.0949
36080POPS   C3B78950  15.219  21.206   7.833 -0.2831 -0.0462  0.1748
36080POPS   C4B78951  15.302  20.993   7.420 -0.3183  0.0836 -0.1381
36081POPS   CNO78952  11.477  31.117   8.900  0.0890  0.3425 -0.0694
36081POPS   PO478953  11.306  31.057   8.559 -0.0576  0.0680 -0.2103
36081POPS   GL178954  11.226  31.325   8.278 -0.2147  0.1093 -0.1416
36081POPS   GL278955  11.057  31.146   8.141  0.1320  0.2456  0.0975
36081POPS   C1A78956  11.399  31.386   7.873 -0.0341  0.0247 -0.1621
36081POPS   D2A78957  11.252  31.329   7.461  0.3306  0.0739  0.1183
36081POPS   C3A78958  11.511  31.158   7.073  0.4844  0.2956  0.0044
36081POPS   C4A78959  11.933  30.981   6.913  0.1870 -0.0395  0.2177
36081POPS   C1B78960  10.876  31.423   7.839 -0.1077  0.4883  0.1425
36081POPS   C2B78961  10.901  31.704   7.446  0.0287  0.1272  0.1464
36081POPS   C3B78962  10.861  32.018   7.129 -0.2821  0.0651 -0.2573
36081POPS   C4B78963  11.033  32.393   7.070 -0.0453  0.0962  0.2131
36082POPS   CNO78964   2.519  26.510   9.119  0.0355 -0.2427  0.3196
36082POPS   PO478965   2.423  26.247   8.864 -0.0539  0.2127 -0.1626
36082POPS   GL178966   2.417  26.134   8.540 -0.1256  0.1571  0.3029
36082POPS   GL278967   2.158  26.109   8.457  0.3693 -0.1855  0.1871
36082POPS   C1A78968   2.731  26.197   8.221 -0.2049 -0.1915 -0.0862
36082POPS   D2A78969   2.831  26.491   7.876 -0.0349 -0.0714 -0.1656
36082POPS   C3A78970   2.525  26.489   7.531  0.2668 -0.1306 -0.4011
36082POPS   C4A78971   2.375  26.423   7.093 -0.1726  0.0903  0.0060
36082POPS   C1B78972   2.479  25.805   8.245 -0.4466 -0.0320  0.1932
36082POPS   C2B78973   2.460  25.528   7.865 -0.1899  0.2063 -0.2499
36082POPS   C3B78974   2.463  25.384   7.402  0.1453  0.1086  0.1681
36082POPS   C4B78975   2.449  25.475   6.939 -0.1016 -0.1421  0.1755
36083POPS   CNO78976   3.515  16.632  15.682 -0.0665 -0.3231  0.0084
36083POPS   PO478977   3.372  16.985  15.726 -0.3555 -0.0825 -0.1600
36083POPS   GL178978   3.606  16.992  16.036  0.3849  0.0251 -0.1673
36083POPS   GL278979   3.699  16.710  16.133 -0.0519  0.1847  0.1279
36083POPS   C1A78980   3.983  17.068  16.240 -0.0496  0.2645  0.2626
36083POPS   D2A78981   4.228  17.210  16.581 -0.4741  0.1614 -0.2365
36083POPS   C3A78982   4.472  17.355  16.880  0.2361 -0.2298  0.0854
36083POPS   C4A78983   4.635  17.532  17.302  0.0835 -0.1104 -0.0887
36083POPS   C1B78984   3.557  17.067  16.466 -0.2650  0.2459 -0.1927
36083POPS   C2B78985   3.811  17.077  16.855 -0.1399 -0.0307 -0.2518
36083POPS   C3B78986   3.729  17.246  17.293 -0.0831 -0.1993 -0.1055
36083POPS   C4B78987   3.910  17.239  17.747  0.1286 -0.4107  0.0449
36084POPS   CNO78988  14.710  20.014  11.269 -0.4219 -0.0937 -0.2548
36084POPS   PO478989  14.624  20.319  11.469  0.1638 -0.3643  0.2069
36084POPS   GL178990  14.325  20.438  11.385 -0.1628  0.1106 -0.1618
36084POPS   GL278991  14.161  20.466  11.661 -0.0142  0.0727  0.0283
36084POPS   C1A78992  14.080  20.888  11.368  0.2967  0.0031 -0.0273
36084POPS   D2A78993  13.822  21.194  11.161  0.2777  0.0902 -0.0587
36084POPS   C3A78994  13.712  21.653  11.394  0.1658  0.3128  0.0025
36084POPS   C4A78995  13.333  21.870  11.489 -0.0359  0.1203  0.2449
36084POPS   C1B78996  13.757  20.678  11.676 -0.1652 -0.1320 -0.0465
36084POPS   C2B78997  13.472  20.965  11.524  0.1623  0.0976 -0.2139
36084POPS   C3B78998  13.254  21.256  11.144  0.1177 -0.0225 -0.0672
36084POPS   C4B78999  13.022  21.588  11.204 -0.0590  0.0505 -0.1422
36085POPS   CNO79000   6.207  17.921  14.372 -0.1317 -0.0719  0.0513
36085POPS   PO479001   6.456  18.146  14.251 -0.1936 -0.2394 -0.1039
36085POPS   GL179002   6.751  18.429  14.348 -0.0708 -0.0273 -0.1860
36085POPS   GL279003   6.501  18.597  14.467  0.0932 -0.0292  0.4180
36085POPS   C1A79004   6.851  18.740  14.001  0.1878  0.0796  0.2161
36085POPS   D2A79005   6.724  19.072  13.681 -0.1722  0.0767  0.3153
36085POPS   C3A79006   6.866  19.452  13.723  0.0730  0.1437  0.2402
36085POPS   C4A79007   7.171  19.799  13.812 -0.2274  0.1837  0.0093
36085POPS   C1B79008   6.777  18.961  14.533  0.2699 -0.1215  0.1451
36085POPS   C2B79009   6.907  19.306  14.839  0.0929  0.1191 -0.1560
36085POPS   C3B79010   7.104  19.674  15.008  0.0223  0.0908  0.0145
36085POPS   C4B79011   7.245  20.101  14.871  0.0073 -0.0921 -0.0900
36086POPS   CNO79012  15.282  26.491   9.382 -0.0725 -0.1364  0.0737
36086POPS   PO479013  15.504  26.391   9.116  0.1569  0.0115 -0.1450
36086POPS   GL179014  15.106  26.432   8.955 -0.3414 -0.1224 -0.1390
36086POPS   GL279015  14.903  26.596   9.115 -0.2351  0.0006 -0.2364
36086POPS   C1A79016  14.717  26.234   8.852 -0.3672  0.0009  0.0849
36086POPS   D2A79017  14.463  25.971   8.576 -0.1611  0.0473  0.0110
36086POPS   C3A79018  14.270  25.780   8.201 -0.0575 -0.1470 -0.1602
36086POPS   C4A79019  13.908  25.467   8.054 -0.4459  0.0490  0.1411
36086POPS   C1B79020  14.953  26.668   8.620 -0.1833 -0.0984 -0.1432
36086POPS   C2B79021  14.750  26.591   8.187  0.0045  0.0652  0.1106
36086POPS   C3B79022  14.885  26.572   7.744  0.1141  0.0556 -0.1005
36086POPS   C4B79023  14.697  26.300   7.425  0.0934  0.0916 -0.1424
36087POPS   CNO79024  14.559  20.408  10.332 -0.0668 -0.1572 -0.2455
36087POPS   PO479025  14.562  20.775  10.376 -0.0241  0.1108 -0.0887
36087POPS   GL179026  14.363  20.710   9.987  0.1523  0.2945 -0.1720
36087POPS   GL279027  14.600  20.708   9.819 -0.0356 -0.1200 -0.2228
36087POPS   C1A79028  13.892  20.678   9.823  0.0287 -0.0068  0.1297
36087POPS   D2A79029  13.560  20.771   9.493  0.1366  0.0906 -0.2855
36087POPS   C3A79030  13.465  21.083   9.174  0.0291  0.1613  0.0541
36087POPS   C4A79031  13.320  21.411   8.903  0.2898 -0.0416  0.0153
36087POPS   C1B79032  14.289  20.893   9.515  0.1160  0.2365 -0.1790
36087POPS   C2B79033  13.972  21.051   9.211  0.0753  0.0264  0.0300
36087POPS   C3B79034  13.981  21.306   8.786 -0.0276  0.0884 -0.1664
36087POPS   C4B79035  13.658  21.341   8.463  0.1698 -0.1310  0.0885
36088POPS   CNO79036   1.039  16.407   8.827 -0.1804  0.2920 -0.1033
36088POPS   PO479037   1.063  16.470   8.458 -0.2390  0.2510 -0.0399
36088POPS   GL179038   1.031  16.335   8.122  0.3664 -0.1151  0.1741
36088POPS   GL279039   0.944  16.598   7.958  0.2109 -0.1546 -0.3055
36088POPS   C1A79040   1.172  16.030   7.844 -0.0819  0.2648 -0.3467
36088POPS   D2A79041   1.196  15.945   7.395  0.1652  0.0553  0.3235
36088POPS   C3A79042   1.171  15.753   6.964  0.2313 -0.0882 -0.0149
36088POPS   C4A79043   1.471  15.610   6.583 -0.5041 -0.2284 -0.3106
36088POPS   C1B79044   1.223  16.553   7.642  0.1019  0.0696  0.1919
36088POPS   C2B79045   1.278  16.430   7.203 -0.0255 -0.0906  0.2422
36088POPS   C3B79046   1.143  16.525   6.784 -0.0631 -0.0663 -0.2176
36088POPS   C4B79047   1.197  16.400   6.363 -0.1252 -0.1095  0.1038
36089POPS   CNO79048   1.806  26.978   8.685 -0.1881 -0.0968 -0.4361
36089POPS   PO479049   1.513  27.166   8.760  0.2405  0.3412  0.0264
36089POPS   GL179050   1.712  27.228   8.379  0.0225  0.0908 -0.0586
36089POPS   GL279051   1.456  27.376   8.282 -0.1293 -0.1901  0.2129
36089POPS   C1A79052   1.606  26.942   8.008 -0.1952 -0.3426  0.1462
36089POPS   D2A79053   1.393  26.919   7.568  0.0289 -0.3498  0.1897
36089POPS   C3A79054   1.632  26.748   7.188 -0.3038 -0.0648  0.0575
36089POPS   C4A79055   1.834  26.408   6.932 -0.1117 -0.1568 -0.0471
36089POPS   C1B79056   1.424  27.495   7.860  0.0882 -0.1362 -0.0484
36089POPS   C2B79057   1.402  27.463   7.383  0.0679  0.0787  0.0606
36089POPS   C3B79058   1.410  27.123   7.027  0.1667 -0.0589 -0.1174
36089POPS   C4B79059   1.262  27.153   6.566 -0.0155 -0.4382  0.1989
36090POPS   CNO79060  14.979  21.152  10.382 -0.1211 -0.0786  0.1387
36090POPS   PO479061  14.667  21.293  10.322  0.1055 -0.1928  0.6018
36090POPS   GL179062  14.273  21.128  10.262  0.0756  0.0738  0.1777
36090POPS   GL279063  14.157  21.100   9.979  0.0669  0.0463  0.2612
36090POPS   C1A79064  13.892  21.338  10.327 -0.0564  0.0033 -0.2169
36090POPS   D2A79065  13.656  21.757  10.434  0.1098 -0.2429 -0.0438
36090POPS   C3A79066  13.218  21.789  10.515 -0.1881  0.1484  0.1398
36090POPS   C4A79067  12.868  21.512  10.693 -0.1443 -0.1281  0.3391
36090POPS   C1B79068  13.860  21.251   9.622 -0.0074  0.0268 -0.1453
36090POPS   C2B79069  13.518  21.505   9.410 -0.0076  0.0711  0.0846
36090POPS   C3B79070  13.049  21.453   9.319  0.0194  0.2305 -0.0083
36090POPS   C4B79071  12.716  21.742   9.246  0.1964  0.2190 -0.1103
36091POPS   CNO79072   2.792  29.676   8.223 -0.1284 -0.2415  0.2807
36091POPS   PO479073   2.893  29.324   8.249  0.2214  0.0410 -0.0893
36091POPS   GL179074   3.244  29.223   7.969 -0.2738 -0.1896  0.1285
36091POPS   GL279075   3.166  29.492   7.787 -0.0571  0.5280  0.1111
36091POPS   C1A79076   3.484  29.192   7.553  0.0486 -0.3313 -0.2137
36091POPS   D2A79077   3.643  29.345   7.162 -0.0043 -0.0347  0.2816
36091POPS   C3A79078   3.765  29.114   6.732 -0.1119  0.2600  0.0120
36091POPS   C4A79079   3.892  29.273   6.256  0.0360  0.0420  0.3630
36091POPS   C1B79080   3.038  29.190   7.426  0.2382  0.1342 -0.0757
36091POPS   C2B79081   3.099  29.351   6.950  0.1226  0.0118  0.0700
36091POPS   C3B79082   3.262  29.396   6.516  0.0281 -0.0599 -0.3495
36091POPS   C4B79083   3.492  29.535   6.146  0.2243 -0.2638 -0.0787
36092POPS   CNO79084   0.163  22.352   9.458  0.1879 -0.0285 -0.0290
36092POPS   PO479085   0.497  22.525   9.552  0.1621 -0.0300  0.2898
36092POPS   GL179086   0.460  22.879   9.338 -0.2848  0.1008  0.1789
36092POPS   GL279087   0.186  22.734   9.149 -0.0286 -0.1059  0.0992
36092POPS   C1A79088   0.490  22.973   8.881 -0.3434  0.1389 -0.1250
36092POPS   D2A79089   0.332  22.963   8.400  0.0005  0.0792  0.0960
36092POPS   C3A79090   0.376  22.989   7.997  0.1769  0.0937 -0.0183
36092POPS   C4A79091   0.479  23.132   7.640  0.1418  0.0154  0.3037
36092POPS   C1B79092  -0.000  23.018   8.811 -0.0177 -0.0247 -0.3033
36092POPS   C2B79093  -0.238  22.988   8.437  0.0739 -0.1639  0.3235
36092POPS   C3B79094  -0.298  23.183   8.058  0.1902  0.0933  0.0211
36092POPS   C4B79095  -0.204  23.503   7.774 -0.1104  0.0708  0.1917
36093POPS   CNO79096   4.009  27.804   8.951 -0.0029 -0.2264 -0.0603
36093POPS   PO479097   3.832  28.003   8.704  0.1775  0.4077  0.0313
36093POPS   GL179098   3.812  27.873   8.354 -0.0425  0.0854  0.0427
36093POPS   GL279099   3.578  27.906   8.147  0.1103 -0.0050  0.0717
36093POPS   C1A79100   4.068  27.973   7.935 -0.1283  0.0592 -0.2771
36093POPS   D2A79101   4.172  27.715   7.528 -0.1007  0.3296 -0.1031
36093POPS   C3A79102   4.440  27.983   7.188  0.0409 -0.0967  0.0878
36093POPS   C4A79103   4.691  28.058   6.798  0.1362 -0.4037 -0.0141
36093POPS   C1B79104   3.697  27.642   7.759  0.3112 -0.4676  0.0093
36093POPS   C2B79105   3.765  27.520   7.339 -0.3185  0.0232  0.1432
36093POPS   C3B79106   3.618  27.256   6.959 -0.1594  0.2135 -0.1391
36093POPS   C4B79107   3.764  27.057   6.517 -0.0368 -0.0008  0.0544
36094POPS   CNO79108   2.290  16.502   8.749 -0.2588  0.1952  0.1177
36094POPS   PO479109   1.984  16.699   8.889 -0.0620 -0.1622  0.0699
36094POPS   GL179110   2.317  16.958   8.714  0.2127  0.2322  0.1135
36094POPS   GL279111   2.562  16.841   8.512  0.1099 -0.0059 -0.0068
36094POPS   C1A79112   2.341  17.379   8.512 -0.0731 -0.1307 -0.3446
36094POPS   D2A79113   2.131  17.675   8.244  0.3249  0.0859  0.3185
36094POPS   C3A79114   2.024  17.625   7.826  0.1735  0.2255  0.1772
36094POPS   C4A79115   2.272  17.793   7.476 -0.2577 -0.4682 -0.0603
36094POPS   C1B79116   2.557  16.779   8.050  0.0766 -0.0331  0.1128
36094POPS   C2B79117   2.723  16.584   7.745 -0.2896 -0.0098  0.1196
36094POPS   C3B79118   2.807  16.868   7.421  0.0395 -0.0774  0.1937
36094POPS   C4B79119   2.935  17.211   7.107 -0.1948  0.0704  0.0704
36095POPS   CNO79120   5.625  25.741  11.394 -0.0204 -0.0313  0.1784
36095POPS   PO479121   5.400  25.405  11.419  0.0378 -0.0606  0.1516
36095POPS   GL179122   5.814  25.303  11.149 -0.0947  0.2296  0.0323
36095POPS   GL279123   5.933  25.419  10.964  0.4553 -0.0967  0.0356
36095POPS   C1A79124   6.218  25.030  11.122  0.1735 -0.0340 -0.1042
36095POPS   D2A79125   6.583  24.870  10.883  0.0100 -0.0922  0.0768
36095POPS   C3A79126   6.670  24.552  10.612  0.2768  0.1547  0.2774
36095POPS   C4A79127   6.934  24.410  10.243  0.1077 -0.1996  0.2529
36095POPS   C1B79128   6.380  25.474  11.054  0.1670  0.1276  0.0796
36095POPS   C2B79129   6.864  25.367  11.046  0.0083 -0.2067 -0.0179
36095POPS   C3B79130   7.096  25.035  10.842  0.0488 -0.0889  0.0963
36095POPS   C4B79131   7.173  24.618  10.646 -0.1028  0.1955 -0.1088
36096POPS   CNO79132   1.562  22.900   9.596  0.2393 -0.1225  0.1944
36096POPS   PO479133   1.424  22.633   9.376 -0.1861 -0.0829 -0.0841
36096POPS   GL179134   1.359  22.479   9.111  0.4377 -0.1175  0.0990
36096POPS   GL279135   1.481  22.626   8.880 -0.0030  0.0670 -0.2584
36096POPS   C1A79136   1.032  22.304   8.801 -0.1044 -0.0697  0.1667
36096POPS   D2A79137   0.695  22.592   8.570 -0.4247 -0.0304 -0.1011
36096POPS   C3A79138   0.566  22.545   8.129  0.2130  0.1406  0.0692
36096POPS   C4A79139   0.451  22.590   7.641 -0.0422 -0.1857 -0.2441
36096POPS   C1B79140   1.161  22.730   8.552 -0.0319  0.0345  0.1864
36096POPS   C2B79141   1.066  22.509   8.129 -0.3101 -0.2149  0.1584
36096POPS   C3B79142   0.872  22.363   7.729 -0.3770 -0.2553 -0.0015
36096POPS   C4B79143   0.651  22.220   7.313  0.0021  0.2873 -0.0284
36097POPS   CNO79144  17.277  23.252   9.256 -0.1332  0.0493 -0.0714
36097POPS   PO479145  17.081  23.314   8.915  0.1796 -0.1586  0.0974
36097POPS   GL179146  17.020  23.268   8.585 -0.1176 -0.1802 -0.3438
36097POPS   GL279147  16.942  23.508   8.480  0.2656 -0.0403 -0.0315
36097POPS   C1A79148  16.973  23.020   8.206  0.1328  0.0101  0.0729
36097POPS   D2A79149  16.993  22.935   7.734 -0.1486 -0.2296 -0.1536
36097POPS   C3A79150  16.889  23.243   7.411  0.0100 -0.1859 -0.1296
36097POPS   C4A79151  16.818  23.561   7.048 -0.0059  0.1491 -0.2073
36097POPS   C1B79152  16.570  23.327   8.345 -0.2470  0.3289 -0.0279
36097POPS   C2B79153  16.514  23.077   7.940 -0.0898  0.0802 -0.3180
36097POPS   C3B79154  16.491  22.811   7.526 -0.0308  0.0846 -0.2632
36097POPS   C4B79155  16.340  22.542   7.169 -0.4011  0.0783  0.0250
36098POPS   CNO79156  13.397  31.591   9.021 -0.0366 -0.0541  0.1024
36098POPS   PO479157  13.194  31.558   8.721  0.2207 -0.0464 -0.0244
36098POPS   GL179158  13.352  31.706   8.369 -0.1542  0.2514 -0.0542
36098POPS   GL279159  13.440  31.442   8.297 -0.0091  0.1181  0.0615
36098POPS   C1A79160  13.414  31.829   7.926 -0.1204  0.2700  0.1115
36098POPS   D2A79161  13.256  31.924   7.528  0.2436 -0.2233  0.3349
36098POPS   C3A79162  13.076  32.364   7.439  0.0570 -0.2344 -0.3020
36098POPS   C4A79163  13.204  32.622   7.094  0.3234 -0.0820 -0.0279
36098POPS   C1B79164  13.234  31.297   7.861  0.0203  0.0597 -0.0797
36098POPS   C2B79165  13.174  30.953   7.590 -0.0707  0.0645  0.4610
36098POPS   C3B79166  13.141  30.515   7.406  0.0181 -0.2869  0.2807
36098POPS   C4B79167  12.923  30.364   7.003  0.1003 -0.1054  0.3398
36099POPS   CNO79168   2.542  27.902   8.746 -0.0871  0.1133 -0.0207
36099POPS   PO479169   2.429  27.764   8.424 -0.2718  0.1706 -0.2019
36099POPS   GL179170   2.714  27.699   8.140 -0.1767  0.0912 -0.2509
36099POPS   GL279171   2.580  27.466   8.079 -0.1208  0.1684  0.2525
36099POPS   C1A79172   2.733  27.757   7.672  0.2230 -0.0587  0.0704
36099POPS   D2A79173   2.815  27.540   7.341 -0.0153  0.0423  0.1185
36099POPS   C3A79174   2.987  27.555   6.884 -0.3256 -0.2498  0.2449
36099POPS   C4A79175   3.235  27.394   6.535  0.2948 -0.1063  0.1810
36099POPS   C1B79176   2.620  27.202   7.771  0.1621 -0.1895 -0.0223
36099POPS   C2B79177   2.610  26.995   7.315  0.1092  0.1280 -0.1456
36099POPS   C3B79178   2.624  26.887   6.878 -0.0415 -0.0444 -0.2420
36099POPS   C4B79179   2.739  26.779   6.500  0.3036  0.0964 -0.0099
36100POPS   CNO79180   6.336  32.099   8.591 -0.1870 -0.1813  0.0307
36100POPS   PO479181   6.177  31.791   8.733 -0.5369 -0.1683  0.1164
36100POPS   GL179182   6.171  31.705   8.323  0.0575 -0.1259 -0.2090
36100POPS   GL279183   6.165  31.447   8.306  0.2307  0.2251  0.0679
36100POPS   C1A79184   6.475  32.003   8.076  0.0347  0.0501  0.1652
36100POPS   D2A79185   6.528  32.278   7.674 -0.1409 -0.2580 -0.2478
36100POPS   C3A79186   6.930  32.564   7.609  0.2285  0.1516  0.0326
36100POPS   C4A79187   7.291  32.536   7.282 -0.0132 -0.0133  0.0752
36100POPS   C1B79188   6.256  31.610   7.904  0.1971  0.2389  0.1315
36100POPS   C2B79189   6.135  31.965   7.641  0.1649  0.1324 -0.1054
36100POPS   C3B79190   6.008  31.971   7.184  0.1788  0.3099 -0.1540
36100POPS   C4B79191   5.896  31.851   6.726  0.0300 -0.4608 -0.0956
36101POPS   CNO79192   4.059   0.181   9.002  0.0423  0.0316  0.1673
36101POPS   PO479193   4.143   0.105   8.641  0.0367  0.1410 -0.1760
36101POPS   GL179194   4.385  -0.063   8.454  0.0723 -0.1428 -0.5493
36101POPS   GL279195   4.221  -0.242   8.283 -0.2162  0.1524 -0.0763
36101POPS   C1A79196   4.349   0.107   7.976  0.0929  0.1962 -0.2881
36101POPS   D2A79197   4.272   0.322   7.614 -0.1859 -0.0893  0.1417
36101POPS   C3A79198   4.355   0.295   7.212 -0.0210  0.1310  0.3723
36101POPS   C4A79199   4.418   0.381   6.746 -0.1179  0.0736 -0.3117
36101POPS   C1B79200   4.194  -0.388   7.837  0.1969 -0.1019  0.2809
36101POPS   C2B79201   4.298  -0.159   7.461 -0.0795  0.2323  0.0893
36101POPS   C3B79202   4.287  -0.346   7.066 -0.1709 -0.1195  0.0510
36101POPS   C4B79203   4.365  -0.090   6.705 -0.0008  0.0720  0.2309
36102POPS   CNO79204  12.923  17.193  14.070  0.2550  0.3890  0.1145
36102POPS   PO479205  12.548  17.145  14.114  0.0556  0.1632 -0.2579
36102POPS   GL179206  12.674  17.389  14.416 -0.1671 -0.0629  0.1708
36102POPS   GL279207  12.670  17.645  14.269  0.4135 -0.1622 -0.1071
36102POPS   C1A79208  12.506  17.693  14.757  0.0746  0.3915  0.2308
36102POPS   D2A79209  12.370  17.837  15.189 -0.2268  0.0191 -0.1731
36102POPS   C3A79210  12.140  18.038  15.510  0.1548 -0.0564 -0.1705
36102POPS   C4A79211  12.030  18.374  15.791  0.1847 -0.1706  0.4021
36102POPS   C1B79212  12.722  18.038  14.481 -0.1553 -0.1163  0.0467
36102POPS   C2B79213  12.720  18.502  14.560 -0.1235  0.2680 -0.0734
36102POPS   C3B79214  12.606  18.949  14.561 -0.1631  0.0956  0.0368
36102POPS   C4B79215  12.349  19.237  14.783 -0.0272  0.0662  0.2404
36103POPS   CNO79216   7.788  21.201   7.803  0.1475 -0.3089  0.1860
36103POPS   PO479217   7.433  21.102   7.736 -0.4385  0.0887  0.0284
36103POPS   GL179218   7.185  20.928   7.988 -0.0405  0.2502 -0.3988
36103POPS   GL279219   6.980  20.709   7.849  0.0636 -0.1555 -0.0717
36103POPS   C1A79220   6.889  20.847   8.340 -0.2362  0.2230 -0.1625
36103POPS   D2A79221   6.643  20.573   8.608 -0.2806  0.2980 -0.1958
36103POPS   C3A79222   6.218  20.639   8.817 -0.0206 -0.2073  0.1505
36103POPS   C4A79223   6.019  20.858   9.119 -0.0141 -0.2876  0.0559
36103POPS   C1B79224   6.562  20.479   8.034 -0.0933  0.2215 -0.0223
36103POPS   C2B79225   6.234  20.361   8.285  0.0661 -0.2308  0.1356
36103POPS   C3B79226   6.253  20.127   8.725  0.0593 -0.1687  0.1941
36103POPS   C4B79227   6.164  20.213   9.143  0.2913  0.1826 -0.0784
36104POPS   CNO79228  12.655  21.373   6.173  0.0941  0.1338 -0.0803
36104POPS   PO479229  12.413  21.437   6.453  0.2766  0.0892 -0.3396
36104POPS   GL179230  12.701  21.369   6.764  0.3405 -0.0754  0.0427
36104POPS   GL279231  12.831  21.135   6.595 -0.2287 -0.0290 -0.3065
36104POPS   C1A79232  13.073  21.421   7.045  0.0285 -0.1988  0.0786
36104POPS   D2A79233  12.973  21.504   7.519  0.0730 -0.0249 -0.0213
36104POPS   C3A79234  13.049  21.326   7.971 -0.0764 -0.0276  0.2206
36104POPS   C4A79235  13.170  21.308   8.390 -0.2659 -0.0464 -0.1819
36104POPS   C1B79236  12.892  20.916   6.993  0.1196  0.2545  0.0448
36104POPS   C2B79237  13.200  21.038   7.414  0.0705 -0.1869 -0.2489
36104POPS   C3B79238  13.471  21.217   7.773 -0.0239 -0.0940 -0.2826
36104POPS   C4B79239  13.565  21.656   7.954 -0.0328 -0.3381 -0.0486
36105POPS   CNO79240  14.988  18.493   4.369  0.2348 -0.0640  0.2670
36105POPS   PO479241  15.314  18.391   4.493 -0.1012 -0.4273  0.0264
36105POPS   GL179242  15.518  18.264   4.813 -0.1307 -0.0227 -0.4506
36105POPS   GL279243  15.454  18.333   5.110  0.1767 -0.2445 -0.0004
36105POPS   C1A79244  15.961  18.188   5.042 -0.3479 -0.0688 -0.0471
36105POPS   D2A79245  16.050  18.115   5.467  0.3113  0.4220  0.0685
36105POPS   C3A79246  16.371  18.435   5.491 -0.0697  0.0902  0.1936
36105POPS   C4A79247  16.756  18.493   5.261 -0.1731 -0.1101 -0.0170
36105POPS   C1B79248  15.576  18.180   5.514  0.0190 -0.0719  0.0917
36105POPS   C2B79249  15.735  17.828   5.801  0.0870 -0.0704 -0.4229
36105POPS   C3B79250  15.870  17.457   6.071 -0.2300 -0.1734 -0.1166
36105POPS   C4B79251  15.881  17.222   6.502  0.2150 -0.1419 -0.1461
36106POPS   CNO79252   9.446  23.814   9.921 -0.1210  0.0524 -0.1744
36106POPS   PO479253   9.242  23.671   9.665  0.0440  0.0210  0.1909
36106POPS   GL179254   8.943  23.858   9.690  0.4965  0.3362 -0.1602
36106POPS   GL279255   9.047  24.120   9.718  0.1118 -0.3763 -0.0984
36106POPS   C1A79256   8.534  24.033   9.768  0.1602  0.0686 -0.2098
36106POPS   D2A79257   8.280  24.231   9.454 -0.3000 -0.1045  0.0548
36106POPS   C3A79258   8.214  24.685   9.209  0.3765  0.2977 -0.1362
36106POPS   C4A79259   7.761  24.894   9.099 -0.1020  0.0984  0.2274
36106POPS   C1B79260   9.500  24.318   9.709  0.3125 -0.0704  0.2229
36106POPS   C2B79261   9.624  24.763   9.815  0.0821  0.0009  0.0879
36106POPS   C3B79262   9.635  25.002  10.180 -0.0484 -0.0714 -0.2816
36106POPS   C4B79263   9.269  25.067  10.436  0.2073 -0.1060 -0.3502
36107POPS   CNO79264  11.029  21.106   7.556  0.1362 -0.0978 -0.0948
36107POPS   PO479265  11.158  20.752   7.485  0.1292  0.0859 -0.0710
36107POPS   GL179266  11.245  20.394   7.697 -0.1346 -0.2560  0.0336
36107POPS   GL279267  11.455  20.556   7.843  0.0411 -0.0183 -0.1496
36107POPS   C1A79268  11.429  19.966   7.763 -0.0180  0.2115  0.0027
36107POPS   D2A79269  11.637  19.665   8.024 -0.1442 -0.1018 -0.2033
36107POPS   C3A79270  11.757  19.838   8.465 -0.2742 -0.0336  0.1630
36107POPS   C4A79271  12.054  19.950   8.821 -0.0380  0.3628  0.2499
36107POPS   C1B79272  11.655  20.309   8.200 -0.0974 -0.0393  0.0935
36107POPS   C2B79273  12.023  20.388   8.460 -0.1413  0.3151 -0.2500
36107POPS   C3B79274  12.222  20.358   8.869 -0.3573 -0.0877  0.1651
36107POPS   C4B79275  12.638  20.564   9.006  0.0474  0.0275  0.1126
36108POPS   CNO79276  11.683  20.120   6.002 -0.0993 -0.2158  0.0229
36108POPS   PO479277  11.823  19.910   6.259  0.0778  0.0330 -0.1559
36108POPS   GL179278  11.853  19.681   6.530  0.0322 -0.0393  0.0718
36108POPS   GL279279  11.750  19.829   6.743  0.0001 -0.1102  0.2430
36108POPS   C1A79280  12.092  19.358   6.817  0.0426 -0.1306 -0.0197
36108POPS   D2A79281  12.427  19.033   6.821 -0.0957  0.0682 -0.1109
36108POPS   C3A79282  12.704  19.173   6.468 -0.0509 -0.1079 -0.1419
36108POPS   C4A79283  13.088  19.096   6.289  0.0220  0.0230  0.1867
36108POPS   C1B79284  12.065  19.974   7.053  0.0882 -0.1043 -0.1802
36108POPS   C2B79285  12.293  20.123   7.399 -0.0931 -0.0289  0.1448
36108POPS   C3B79286  12.469  19.936   7.802 -0.0422 -0.3411  0.1895
36108POPS   C4B79287  12.653  19.735   8.158 -0.1158  0.1547 -0.1146
36109POPS   CNO79288   9.132  20.341   7.927 -0.0443 -0.3434  0.1125
36109POPS   PO479289   9.253  20.677   8.063  0.3933  0.3439  0.3048
36109POPS   GL179290   9.283  20.319   8.342  0.0631  0.6273 -0.1190
36109POPS   GL279291   9.028  20.149   8.362 -0.1367 -0.1556  0.1391
36109POPS   C1A79292   9.336  20.101   8.760 -0.3172  0.0692 -0.1965
36109POPS   D2A79293   9.284  19.958   9.177 -0.0757  0.2240 -0.0187
36109POPS   C3A79294   9.539  20.125   9.588 -0.1399  0.2317 -0.0833
36109POPS   C4A79295   9.745  20.217   9.936 -0.5083  0.0374 -0.1240
36109POPS   C1B79296   8.738  19.836   8.380  0.0552  0.1595  0.1915
36109POPS   C2B79297   8.570  19.374   8.343  0.1003 -0.0693  0.0696
36109POPS   C3B79298   8.289  18.962   8.303  0.3223 -0.1057  0.0714
36109POPS   C4B79299   7.999  18.613   8.102  0.1720 -0.6531 -0.0628
36110POPS   CNO79300   0.926  30.580   3.918 -0.0200  0.0900  0.1087
36110POPS   PO479301   0.836  30.930   3.810  0.1736 -0.1225  0.0183
36110POPS   GL179302   0.854  30.887   4.223  0.3157 -0.1065  0.2202
36110POPS   GL279303   1.133  30.990   4.262 -0.0379 -0.2611 -0.0175
36110POPS   C1A79304   0.774  31.223   4.588 -0.0620 -0.0895  0.1760
36110POPS   D2A79305   0.581  31.390   5.004  0.0908  0.1218  0.2286
36110POPS   C3A79306   0.669  31.139   5.371 -0.0150  0.1489  0.2035
36110POPS   C4A79307   1.043  30.850   5.368  0.1078 -0.1093  0.0042
36110POPS   C1B79308   1.239  31.440   4.329 -0.2876  0.0948 -0.0920
36110POPS   C2B79309   1.326  31.899   4.475 -0.0089  0.1480 -0.2477
36110POPS   C3B79310   1.121  32.184   4.758 -0.0446  0.1293 -0.0779
36110POPS   C4B79311   0.808  32.168   5.095  0.1543  0.0822  0.2213
36111POPS   CNO79312   5.618  21.618   5.953  0.0575  0.2381 -0.0780
36111POPS   PO479313   5.234  21.751   5.823 -0.0229 -0.2079 -0.1956
36111POPS   GL179314   4.825  21.892   6.159  0.1701  0.0028  0.1761
36111POPS   GL279315   4.822  22.174   6.311 -0.1787 -0.1705 -0.0128
36111POPS   C1A79316   4.731  21.686   6.549  0.3770 -0.0763  0.1293
36111POPS   D2A79317   4.548  21.554   6.926 -0.2946 -0.2582 -0.1039
36111POPS   C3A79318   4.648  21.335   7.343  0.2494 -0.0979  0.0971
36111POPS   C4A79319   4.617  21.232   7.774  0.4218  0.4009 -0.0526
36111POPS   C1B79320   4.488  22.505   6.357  0.1681  0.1136 -0.2710
36111POPS   C2B79321   4.027  22.576   6.460  0.1407  0.3308 -0.1886
36111POPS   C3B79322   3.564  22.614   6.645 -0.2785 -0.5110  0.1383
36111POPS   C4B79323   3.427  22.510   7.042  0.4933  0.3383  0.1013
36112POPS   CNO79324  13.186  28.415   4.660 -0.1896 -0.2402  0.0663
36112POPS   PO479325  13.160  28.663   4.953 -0.2378  0.1786 -0.1305
36112POPS   GL179326  13.108  28.651   5.374 -0.2461  0.1015 -0.2696
36112POPS   GL279327  13.385  28.686   5.471  0.0138 -0.1924  0.4343
36112POPS   C1A79328  12.932  28.926   5.689 -0.0679  0.0473 -0.2440
36112POPS   D2A79329  12.651  29.127   5.944  0.0308  0.1927  0.3068
36112POPS   C3A79330  12.696  29.371   6.302 -0.0882 -0.1668  0.1509
36112POPS   C4A79331  13.016  29.419   6.633  0.2270 -0.0840  0.1022
36112POPS   C1B79332  13.392  29.012   5.848  0.0204 -0.2538  0.2118
36112POPS   C2B79333  13.100  29.057   6.210  0.1808  0.1342  0.1618
36112POPS   C3B79334  12.737  28.913   6.474  0.0092 -0.0533  0.1527
36112POPS   C4B79335  12.457  29.141   6.770 -0.0507 -0.2418  0.0342
36113POPS   CNO79336   1.384  32.701   4.156  0.1015  0.0914  0.0565
36113POPS   PO479337   1.723  32.549   4.024 -0.0721  0.0121  0.3282
36113POPS   GL179338   1.906  32.648   4.368  0.1170  0.2668  0.0488
36113POPS   GL279339   1.975  32.414   4.546  0.0990  0.1448 -0.2866
36113POPS   C1A79340   1.835  32.911   4.799  0.2809 -0.0313  0.0473
36113POPS   D2A79341   2.066  33.098   5.129 -0.1555  0.0219 -0.2322
36113POPS   C3A79342   2.425  33.065   5.455  0.3228  0.1812  0.5184
36113POPS   C4A79343   2.889  33.081   5.380  0.1073  0.0042 -0.0889
36113POPS   C1B79344   1.604  32.420   4.871 -0.1159 -0.2408 -0.0888
36113POPS   C2B79345   1.308  32.406   5.265 -0.4404 -0.1856  0.1118
36113POPS   C3B79346   1.040  32.164   5.560 -0.4084  0.1988  0.3347
36113POPS   C4B79347   0.875  31.963   5.884 -0.0823  0.1077 -0.0620
36114POPS   CNO79348  10.752  29.605   5.051  0.1039  0.0792  0.0673
36114POPS   PO479349  10.598  29.954   5.131  0.1168 -0.1598  0.1767
36114POPS   GL179350  10.456  30.109   5.525 -0.1780 -0.3998 -0.0765
36114POPS   GL279351  10.273  30.047   5.719 -0.1233 -0.1764 -0.1837
36114POPS   C1A79352  10.745  29.908   5.896 -0.0523  0.2960  0.1856
36114POPS   D2A79353  10.969  29.920   6.271  0.2062 -0.0428  0.2500
36114POPS   C3A79354  10.798  29.769   6.722  0.0181 -0.1110  0.0059
36114POPS   C4A79355  10.566  29.924   7.079  0.2561  0.1403  0.0840
36114POPS   C1B79356  10.135  30.317   6.035  0.1293 -0.0403  0.1807
36114POPS   C2B79357   9.905  30.466   6.444  0.1429  0.0142  0.0647
36114POPS   C3B79358   9.524  30.598   6.722 -0.1277 -0.0470 -0.2030
36114POPS   C4B79359   9.216  30.859   6.936  0.3093  0.0561  0.1279
36115POPS   CNO79360   9.206  22.033  10.823  0.1053 -0.0368 -0.1399
36115POPS   PO479361   9.512  21.794  10.816 -0.1539  0.1349 -0.0409
36115POPS   GL179362   9.166  21.613  11.022 -0.2637 -0.0011 -0.1491
36115POPS   GL279363   9.172  21.368  11.231 -0.2708  0.0224 -0.0950
36115POPS   C1A79364   8.790  21.413  10.856 -0.0210  0.1403 -0.2463
36115POPS   D2A79365   8.362  21.244  10.676 -0.0410 -0.1252 -0.0689
36115POPS   C3A79366   8.070  21.309  11.052  0.4869 -0.2075  0.0184
36115POPS   C4A79367   7.894  21.553  11.376  0.2259 -0.1623 -0.3228
36115POPS   C1B79368   9.134  20.922  11.379 -0.4166  0.4254  0.1376
36115POPS   C2B79369   8.901  20.522  11.421 -0.3819 -0.0883 -0.0799
36115POPS   C3B79370   8.583  20.425  11.125 -0.0693 -0.1902 -0.0679
36115POPS   C4B79371   8.155  20.429  11.056 -0.3405  0.0442  0.3499
36116POPS   CNO79372   2.832  26.584   3.979  0.0225  0.1145 -0.0083
36116POPS   PO479373   2.734  26.745   4.292 -0.0106 -0.2134  0.1343
36116POPS   GL179374   2.651  26.940   4.583  0.5113  0.1508 -0.0922
36116POPS   GL279375   2.511  27.190   4.663 -0.0901  0.0327  0.1879
36116POPS   C1A79376   2.418  26.789   4.936  0.0273  0.1404 -0.2511
36116POPS   D2A79377   2.500  26.762   5.351  0.1120 -0.2177 -0.0499
36116POPS   C3A79378   2.437  26.874   5.819 -0.1111 -0.1592 -0.0240
36116POPS   C4A79379   2.271  27.058   6.227 -0.2570 -0.2570  0.1436
36116POPS   C1B79380   2.474  27.485   4.973 -0.1642 -0.1977  0.1636
36116POPS   C2B79381   2.276  27.592   5.361  0.0498  0.0993 -0.5908
36116POPS   C3B79382   2.035  27.955   5.443  0.0053  0.0019 -0.2746
36116POPS   C4B79383   1.973  28.405   5.446 -0.0192 -0.3762  0.1356
36117POPS   CNO79384   0.879   0.632   3.798 -0.1057 -0.0948  0.1243
36117POPS   PO479385   0.742   0.629   4.120  0.0649  0.2288 -0.1256
36117POPS   GL179386   0.633   0.497   4.521 -0.1871  0.0800  0.3967
36117POPS   GL279387   0.342   0.557   4.567  0.2211 -0.2651 -0.1564
36117POPS   C1A79388   0.436   0.111   4.652 -0.0469  0.1369 -0.0376
36117POPS   D2A79389   0.199   0.032   5.013 -0.2819  0.3021 -0.0726
36117POPS   C3A79390  -0.074   0.394   5.248 -0.0722  0.1913  0.2633
36117POPS   C4A79391  -0.063   0.546   5.751 -0.1035 -0.1351 -0.1342
36117POPS   C1B79392   0.399   0.533   4.976 -0.0085 -0.0336 -0.1359
36117POPS   C2B79393   0.426   0.429   5.434 -0.0033  0.2281  0.1475
36117POPS   C3B79394   0.595   0.530   5.862  0.2231 -0.0467  0.1291
36117POPS   C4B79395   0.673   0.738   6.258 -0.1204 -0.2063 -0.0977
36118POPS   CNO79396  12.577  22.294   6.657 -0.1343  0.3205  0.0184
36118POPS   PO479397  12.468  22.614   6.758  0.2770  0.0375  0.2557
36118POPS   GL179398  12.749  22.591   7.061  0.0388  0.4177  0.0797
36118POPS   GL279399  12.841  22.837   7.141  0.3874 -0.3479  0.1274
36118POPS   C1A79400  13.190  22.531   7.245 -0.3081  0.1922 -0.2304
36118POPS   D2A79401  13.439  22.792   7.573  0.0508  0.0541 -0.1875
36118POPS   C3A79402  13.784  23.052   7.731 -0.0896  0.1992  0.1598
36118POPS   C4A79403  14.168  23.202   7.635 -0.3180 -0.0146 -0.0314
36118POPS   C1B79404  12.941  22.835   7.544  0.0737 -0.3584 -0.1292
36118POPS   C2B79405  13.085  22.799   7.994  0.1219  0.1376 -0.2917
36118POPS   C3B79406  13.535  22.803   8.167  0.1668  0.1911 -0.2783
36118POPS   C4B79407  13.841  22.591   8.336 -0.1566  0.5642  0.2153
36119POPS   CNO79408   8.964  22.249  11.303  0.1727  0.1786  0.1554
36119POPS   PO479409   8.937  22.603  11.112  0.0916 -0.1523  0.0939
36119POPS   GL179410   8.651  22.718  11.317  0.2130 -0.2164 -0.0517
36119POPS   GL279411   8.594  22.526  11.509 -0.1195 -0.0139 -0.3126
36119POPS   C1A79412   8.234  22.911  11.327  0.1279 -0.0548  0.4292
36119POPS   D2A79413   7.889  23.119  11.371 -0.2097  0.0084  0.1986
36119POPS   C3A79414   7.437  22.992  11.463 -0.0912 -0.1174 -0.1264
36119POPS   C4A79415   7.122  22.886  11.717  0.2944  0.1732  0.3251
36119POPS   C1B79416   8.444  22.088  11.628 -0.3044 -0.0396  0.2602
36119POPS   C2B79417   8.377  21.693  11.444 -0.1980  0.0337  0.2387
36119POPS   C3B79418   8.514  21.324  11.291 -0.0762  0.0162  0.1279
36119POPS   C4B79419   8.660  20.946  11.098 -0.3614 -0.1300  0.0319
36120POPS   CNO79420  15.030  21.006   5.218  0.1675  0.0224 -0.0427
36120POPS   PO479421  14.823  20.733   5.145  0.2111 -0.0691  0.0089
36120POPS   GL179422  14.775  20.672   5.522 -0.0979  0.1141  0.0657
36120POPS   GL279423  14.826  20.880   5.681  0.1295 -0.2055 -0.2746
36120POPS   C1A79424  15.024  20.494   5.871  0.1577  0.0524 -0.1355
36120POPS   D2A79425  15.493  20.340   5.960  0.1583  0.2180 -0.1744
36120POPS   C3A79426  15.533  20.350   6.399 -0.2233  0.0791 -0.4741
36120POPS   C4A79427  15.627  20.258   6.888  0.0430 -0.1095 -0.0742
36120POPS   C1B79428  14.822  21.116   6.072  0.2542 -0.0420  0.1547
36120POPS   C2B79429  14.725  21.080   6.496 -0.1845  0.2235 -0.1073
36120POPS   C3B79430  14.611  20.864   6.854 -0.1125 -0.1331 -0.1245
36120POPS   C4B79431  14.475  20.786   7.291 -0.4870  0.2451 -0.0439
36121POPS   CNO79432   6.615  19.915   6.714 -0.2596 -0.1403 -0.0488
36121POPS   PO479433   6.651  20.271   6.617  0.1888  0.1006 -0.0414
36121POPS   GL179434   6.382  20.318   6.823  0.3492  0.1407 -0.1641
36121POPS   GL279435   6.126  20.475   6.970 -0.1201  0.1395  0.2319
36121POPS   C1A79436   6.280  19.997   7.173  0.3510 -0.2734 -0.3855
36121POPS   D2A79437   5.913  19.757   7.260  0.1200  0.0731  0.1530
36121POPS   C3A79438   5.869  19.408   7.575 -0.2402  0.2067 -0.0233
36121POPS   C4A79439   5.720  19.103   7.792  0.2936  0.0720  0.0827
36121POPS   C1B79440   5.947  20.329   7.332  0.0534  0.1796 -0.0991
36121POPS   C2B79441   5.660  20.317   7.686 -0.2238  0.0177  0.1480
36121POPS   C3B79442   5.641  20.279   8.171 -0.1803  0.3772  0.3278
36121POPS   C4B79443   5.896  19.990   8.313  0.0485  0.2428 -0.2147
36122POPS   CNO79444   1.279  23.885   4.731 -0.0601 -0.0364 -0.2956
36122POPS   PO479445   1.393  23.886   5.124 -0.2648 -0.2026 -0.1041
36122POPS   GL179446   1.365  24.066   5.525 -0.0623  0.4180 -0.3633
36122POPS   GL279447   1.711  24.080   5.582 -0.3150  0.1390 -0.3807
36122POPS   C1A79448   1.170  24.084   5.969 -0.4477 -0.2599 -0.2131
36122POPS   D2A79449   1.083  23.887   6.403 -0.2890  0.0748 -0.0265
36122POPS   C3A79450   1.015  24.028   6.854 -0.1727 -0.1390 -0.1681
36122POPS   C4A79451   0.765  24.334   7.118  0.0335 -0.1290  0.1241
36122POPS   C1B79452   1.664  24.347   5.956  0.2015  0.3284 -0.0429
36122POPS   C2B79453   1.763  24.581   6.362 -0.0603 -0.1156 -0.1411
36122POPS   C3B79454   2.198  24.779   6.432  0.2329  0.3042  0.1376
36122POPS   C4B79455   2.532  25.070   6.290  0.1626 -0.1498  0.2066
36123POPS   CNO79456  15.905  30.183   4.095  0.0204  0.0118 -0.1325
36123POPS   PO479457  15.507  30.224   4.175 -0.2041  0.0778 -0.1094
36123POPS   GL179458  15.795  30.385   4.473  0.0246  0.0170  0.0862
36123POPS   GL279459  15.614  30.491   4.666  0.3388 -0.4741 -0.0054
36123POPS   C1A79460  16.059  30.404   4.898  0.1621  0.0126 -0.2236
36123POPS   D2A79461  16.059  30.647   5.315 -0.0720  0.1242 -0.2380
36123POPS   C3A79462  16.421  30.479   5.651 -0.2073  0.2957  0.2922
36123POPS   C4A79463  16.867  30.368   5.560  0.3634  0.0288 -0.0389
36123POPS   C1B79464  15.511  30.331   5.116  0.0364  0.2213  0.1119
36123POPS   C2B79465  15.718  30.314   5.536  0.0612  0.0461  0.1752
36123POPS   C3B79466  15.983  30.294   5.908 -0.1369 -0.3127  0.1696
36123POPS   C4B79467  16.242  30.588   6.141 -0.3548  0.0634  0.0550
36124POPS   CNO79468   7.245  22.624   7.763  0.2092 -0.1785  0.1303
36124POPS   PO479469   6.927  22.457   7.889 -0.1626 -0.3200  0.1537
36124POPS   GL179470   6.621  22.665   8.072  0.0355  0.0631  0.0577
36124POPS   GL279471   6.484  22.864   8.089 -0.1291  0.2952 -0.2648
36124POPS   C1A79472   6.271  22.437   8.315  0.0541 -0.0967  0.0624
36124POPS   D2A79473   6.007  22.071   8.416 -0.0507  0.5509  0.0879
36124POPS   C3A79474   5.570  21.935   8.515 -0.0414 -0.1112 -0.0093
36124POPS   C4A79475   5.269  21.609   8.503  0.0741  0.4009  0.0083
36124POPS   C1B79476   6.338  22.886   8.515 -0.1729  0.0556 -0.1295
36124POPS   C2B79477   6.412  22.891   8.968 -0.1982 -0.2308 -0.1751
36124POPS   C3B79478   6.281  23.155   9.325  0.0156  0.0561  0.0940
36124POPS   C4B79479   6.318  23.125   9.785 -0.2010 -0.0627 -0.1180
36125POPS   CNO79480  10.355  26.921   6.033  0.0976 -0.1055 -0.3216
36125POPS   PO479481  10.368  27.279   6.038  0.0098  0.1803 -0.2082
36125POPS   GL179482  10.340  27.533   6.384  0.4274  0.3431 -0.1267
36125POPS   GL279483  10.151  27.763   6.314 -0.0680  0.1549 -0.3095
36125POPS   C1A79484  10.169  27.498   6.816 -0.0876  0.0868  0.0276
36125POPS   D2A79485  10.178  27.271   7.270 -0.0646  0.0342  0.2602
36125POPS   C3A79486  10.060  26.870   7.463  0.1729  0.0521  0.0410
36125POPS   C4A79487   9.730  26.585   7.247  0.0594 -0.0770 -0.0104
36125POPS   C1B79488  10.490  27.990   6.506  0.0353  0.2061  0.0160
36125POPS   C2B79489  10.816  28.291   6.593 -0.3019 -0.0075  0.1546
36125POPS   C3B79490  11.231  28.415   6.840  0.0217 -0.1654 -0.0323
36125POPS   C4B79491  11.640  28.610   6.990 -0.0460  0.6591 -0.1076
36126POPS   CNO79492   5.110  30.857   3.928  0.0492  0.0250 -0.1183
36126POPS   PO479493   5.233  30.973   4.245  0.1309 -0.1515  0.1667
36126POPS   GL179494   5.217  31.054   4.644 -0.4237  0.3137 -0.1003
36126POPS   GL279495   4.948  30.997   4.744  0.0033 -0.0151 -0.2447
36126POPS   C1A79496   5.330  30.819   5.055  0.0078 -0.2147 -0.0625
36126POPS   D2A79497   5.213  31.005   5.464  0.2528 -0.2399  0.3013
36126POPS   C3A79498   4.860  30.942   5.728  0.1339 -0.1365 -0.1340
36126POPS   C4A79499   4.481  30.812   5.893  0.0216  0.1252  0.2497
36126POPS   C1B79500   5.138  31.288   5.004 -0.0606  0.0581 -0.2858
36126POPS   C2B79501   5.349  31.528   5.328 -0.2241 -0.0864  0.0783
36126POPS   C3B79502   5.341  31.719   5.803  0.2055 -0.2022 -0.2211
36126POPS   C4B79503   5.499  31.928   6.195  0.2838  0.1433 -0.3097
36127POPS   CNO79504   8.768  26.793   5.774 -0.1520  0.1451  0.0625
36127POPS   PO479505   8.889  27.110   5.941  0.2041  0.0103 -0.2516
36127POPS   GL179506   8.798  27.436   6.198 -0.1584  0.0067  0.0200
36127POPS   GL279507   9.082  27.556   6.174 -0.0763  0.1346 -0.2168
36127POPS   C1A79508   8.537  27.642   6.517 -0.2519  0.4284 -0.0703
36127POPS   D2A79509   8.230  27.724   6.844  0.1786  0.0808 -0.0181
36127POPS   C3A79510   7.828  27.704   6.584 -0.1773 -0.2423 -0.0335
36127POPS   C4A79511   7.770  27.968   6.109 -0.0397  0.0134 -0.2576
36127POPS   C1B79512   9.092  27.559   6.621 -0.2577  0.2641  0.1503
36127POPS   C2B79513   8.945  27.786   7.013  0.1744 -0.2393  0.0473
36127POPS   C3B79514   9.124  27.886   7.378  0.0126  0.0869 -0.1631
36127POPS   C4B79515   9.441  28.162   7.591  0.2389  0.0785  0.1092
36128POPS   CNO79516  10.791  22.736  10.147 -0.0033  0.2531  0.1769
36128POPS   PO479517  11.057  22.845  10.354  0.0930  0.3544 -0.1328
36128POPS   GL179518  11.436  22.881  10.419 -0.1489  0.0946  0.1602
36128POPS   GL279519  11.527  22.978  10.180  0.5122  0.0940 -0.0679
36128POPS   C1A79520  11.690  22.578  10.742  0.4157  0.1195  0.1596
36128POPS   D2A79521  12.013  22.322  11.046 -0.0449  0.1930  0.1597
36128POPS   C3A79522  12.381  22.054  10.905 -0.1462 -0.1644 -0.0531
36128POPS   C4A79523  12.370  21.601  10.810  0.2855  0.0752  0.3335
36128POPS   C1B79524  11.571  23.421  10.227  0.1575 -0.1927  0.1636
36128POPS   C2B79525  11.520  23.869  10.372 -0.2622  0.2126  0.0812
36128POPS   C3B79526  11.559  24.031  10.817 -0.2730  0.0496 -0.1167
36128POPS   C4B79527  11.916  24.117  11.128 -0.1799 -0.3419  0.1940
36129POPS   CNO79528  32.307  32.560   4.132  0.3248 -0.2536 -0.5770
36129POPS   PO479529  32.620  32.629   3.978 -0.0034 -0.0050 -0.2152
36129POPS   GL179530  32.888  32.439   4.303 -0.0198 -0.0117  0.2206
36129POPS   GL279531  33.090  32.500   4.500 -0.1041  0.2632 -0.0579
36129POPS   C1A79532  32.622  32.582   4.635  0.2096 -0.1306 -0.0363
36129POPS   D2A79533  32.262  32.493   4.952  0.0814  0.2324  0.0575
36129POPS   C3A79534  32.152  32.846   5.251 -0.1265  0.2251 -0.1996
36129POPS   C4A79535  31.961  32.832   5.686  0.2252  0.1586 -0.2780
36129POPS   C1B79536  33.228  32.372   4.985 -0.0805 -0.0893  0.1550
36129POPS   C2B79537  33.173  32.217   5.425 -0.2333 -0.2152 -0.2176
36129POPS   C3B79538  33.289  32.405   5.811  0.0580 -0.2026 -0.4085
36129POPS   C4B79539  33.550  32.821   5.909  0.0706  0.2508 -0.1313
36130POPS   CNO79540  12.092  25.982   5.685  0.2488 -0.0127 -0.0801
36130POPS   PO479541  12.107  26.115   6.052 -0.0199  0.0111 -0.1446
36130POPS   GL179542  12.192  26.317   6.402 -0.0790 -0.0423  0.0546
36130POPS   GL279543  12.343  26.040   6.503 -0.1565  0.2800 -0.2562
36130POPS   C1A79544  12.201  26.429   6.832  0.0937 -0.2700  0.0671
36130POPS   D2A79545  12.507  26.367   7.175 -0.0280 -0.1560  0.0189
36130POPS   C3A79546  12.737  26.810   7.301 -0.0220  0.0514  0.0205
36130POPS   C4A79547  12.985  27.111   7.615  0.1364 -0.2400 -0.2032
36130POPS   C1B79548  12.667  26.285   6.692  0.0446  0.0747 -0.2364
36130POPS   C2B79549  12.933  26.564   6.947  0.0429  0.2722  0.0311
36130POPS   C3B79550  13.350  26.427   7.146 -0.0270  0.0402  0.1016
36130POPS   C4B79551  13.655  26.608   7.465  0.1897 -0.0159  0.1855
36131POPS   CNO79552   4.228  30.387   4.106  0.0395 -0.0630  0.1678
36131POPS   PO479553   4.496  30.347   4.384  0.0801  0.1921  0.2072
36131POPS   GL179554   4.221  30.358   4.691  0.0698 -0.1950  0.0503
36131POPS   GL279555   4.014  30.165   4.718 -0.0282 -0.0349 -0.2039
36131POPS   C1A79556   3.917  30.556   5.001 -0.1841  0.0287 -0.3129
36131POPS   D2A79557   3.696  30.823   5.307  0.1679 -0.2736 -0.0013
36131POPS   C3A79558   3.578  30.520   5.678  0.0074 -0.1144  0.2740
36131POPS   C4A79559   3.306  30.666   6.011 -0.2177  0.3264 -0.1883
36131POPS   C1B79560   3.934  30.088   5.144  0.2605 -0.0848  0.1484
36131POPS   C2B79561   3.829  30.062   5.576  0.4211 -0.1341 -0.1699
36131POPS   C3B79562   3.517  29.970   5.941  0.1238 -0.0200  0.1393
36131POPS   C4B79563   3.620  29.938   6.405  0.0459  0.1990  0.1575
36132POPS   CNO79564   1.798  19.640   4.712 -0.1828  0.0474  0.1310
36132POPS   PO479565   1.947  19.803   4.964 -0.3174  0.1738  0.0357
36132POPS   GL179566   2.100  20.029   5.286  0.3068 -0.1164 -0.2958
36132POPS   GL279567   2.396  19.897   5.241  0.2195  0.2095  0.1365
36132POPS   C1A79568   2.091  20.305   5.648  0.0978  0.0355 -0.1521
36132POPS   D2A79569   1.882  20.645   5.903  0.1418 -0.1967 -0.1325
36132POPS   C3A79570   1.884  20.419   6.356  0.1782 -0.4886  0.2579
36132POPS   C4A79571   1.699  20.431   6.781  0.3415  0.2433  0.1295
36132POPS   C1B79572   2.459  20.000   5.702 -0.0784  0.0811  0.2519
36132POPS   C2B79573   2.216  20.028   6.105 -0.1103  0.1596  0.0131
36132POPS   C3B79574   1.986  19.869   6.445 -0.2305  0.0300 -0.0063
36132POPS   C4B79575   1.840  19.646   6.837  0.0546  0.0641  0.0784
36133POPS   CNO79576   2.947  22.788   4.925 -0.1760  0.2402  0.0668
36133POPS   PO479577   2.644  22.606   5.074  0.1184  0.0989 -0.0396
36133POPS   GL179578   2.733  22.411   5.400  0.0634 -0.5716 -0.3505
36133POPS   GL279579   2.766  22.668   5.539 -0.2609 -0.0945 -0.0115
36133POPS   C1A79580   2.782  21.977   5.669 -0.1166  0.0916 -0.2001
36133POPS   D2A79581   2.854  21.630   5.954 -0.0460 -0.1543  0.1308
36133POPS   C3A79582   2.369  21.560   6.052  0.0453 -0.1019  0.0698
36133POPS   C4A79583   2.103  21.461   5.679  0.0995 -0.0362 -0.0212
36133POPS   C1B79584   2.550  22.351   5.822  0.0087  0.3697 -0.0439
36133POPS   C2B79585   2.432  22.084   6.225 -0.1341 -0.0226  0.3814
36133POPS   C3B79586   2.170  21.891   6.643 -0.3318  0.1406  0.2021
36133POPS   C4B79587   1.938  21.758   6.949 -0.1896 -0.2249  0.1105
36134POPS   CNO79588   5.168  20.449   5.413 -0.3469 -0.0103  0.0263
36134POPS   PO479589   5.023  20.355   5.774 -0.1162 -0.3819 -0.1345
36134POPS   GL179590   4.771  20.368   6.038  0.2194 -0.2484 -0.0300
36134POPS   GL279591   4.790  20.464   6.275  0.1286  0.0012  0.1910
36134POPS   C1A79592   4.492  20.026   6.192  0.0482 -0.0179 -0.2199
36134POPS   D2A79593   4.234  19.721   6.361  0.0163 -0.1673 -0.1824
36134POPS   C3A79594   4.306  19.490   6.748 -0.2580 -0.0017 -0.0965
36134POPS   C4A79595   4.190  19.511   7.201 -0.4686  0.0010  0.0307
36134POPS   C1B79596   4.672  20.188   6.672 -0.2473  0.1843  0.0771
36134POPS   C2B79597   4.601  20.248   7.162  0.1228 -0.3111 -0.1574
36134POPS   C3B79598   4.315  19.973   7.487 -0.2066 -0.0111  0.1736
36134POPS   C4B79599   4.294  19.665   7.840 -0.2702 -0.4978  0.0586
36135POPS   CNO79600  11.155  24.659   7.032  0.1329  0.1859 -0.2451
36135POPS   PO479601  11.499  24.752   7.147  0.0062 -0.4762  0.0582
36135POPS   GL179602  11.675  25.028   7.342  0.1670 -0.0095 -0.3775
36135POPS   GL279603  11.844  24.847   7.498 -0.0090 -0.1567 -0.1939
36135POPS   C1A79604  11.610  25.404   7.592 -0.0984  0.2684  0.0699
36135POPS   D2A79605  11.592  25.750   7.936 -0.1908 -0.3822 -0.3234
36135POPS   C3A79606  11.657  25.684   8.399  0.1403  0.1776  0.2472
36135POPS   C4A79607  11.747  25.845   8.831 -0.3490  0.0614  0.2254
36135POPS   C1B79608  12.221  25.123   7.673  0.5571  0.1026 -0.0735
36135POPS   C2B79609  12.545  25.378   7.904 -0.3269 -0.1019  0.1943
36135POPS   C3B79610  12.907  25.395   8.194 -0.0881  0.2465 -0.2405
36135POPS   C4B79611  12.951  25.360   8.667  0.1008  0.0214  0.1343
36136POPS   CNO79612   7.616  26.591   5.895  0.1028 -0.1323  0.0281
36136POPS   PO479613   7.287  26.413   5.857 -0.0474  0.0343  0.4333
36136POPS   GL179614   7.113  26.654   6.094  0.2275 -0.1550  0.0793
36136POPS   GL279615   6.901  26.433   6.159  0.0895 -0.1803 -0.0253
36136POPS   C1A79616   7.293  27.046   6.331 -0.0577 -0.1427  0.0342
36136POPS   D2A79617   7.522  27.342   6.619 -0.2791 -0.2751 -0.2604
36136POPS   C3A79618   7.377  27.542   6.996  0.2464  0.1682  0.0116
36136POPS   C4A79619   7.056  27.634   7.316 -0.1507 -0.2961  0.2767
36136POPS   C1B79620   6.863  26.759   6.475 -0.1724 -0.1264 -0.0535
36136POPS   C2B79621   6.645  26.793   6.933 -0.2350 -0.5080  0.0586
36136POPS   C3B79622   6.378  26.974   7.165  0.1041  0.1930  0.1792
36136POPS   C4B79623   6.154  27.062   7.564 -0.0187 -0.2051  0.0722
36137POPS   CNO79624   2.556  25.559   4.824 -0.1580  0.2139  0.1577
36137POPS   PO479625   2.348  25.742   5.049  0.2249  0.1779 -0.1337
36137POPS   GL179626   2.071  25.851   5.331  0.1348 -0.2633 -0.0213
36137POPS   GL279627   2.076  25.642   5.544 -0.2455  0.0970 -0.2483
36137POPS   C1A79628   2.069  26.080   5.751 -0.1543  0.0191  0.0041
36137POPS   D2A79629   2.096  26.277   6.150 -0.2724  0.0636 -0.3831
36137POPS   C3A79630   1.743  26.430   6.466 -0.1204  0.0473 -0.1504
36137POPS   C4A79631   1.427  26.705   6.641  0.0693  0.0715 -0.2682
36137POPS   C1B79632   2.260  25.482   5.988  0.2943 -0.2500  0.0307
36137POPS   C2B79633   2.183  25.409   6.447  0.1606  0.0998 -0.0569
36137POPS   C3B79634   1.992  25.563   6.879  0.1019  0.2978  0.0703
36137POPS   C4B79635   1.691  25.877   7.034  0.1295 -0.2470 -0.1811
36138POPS   CNO79636   8.031  25.765   6.155  0.1561  0.0055 -0.1031
36138POPS   PO479637   8.358  25.904   6.252  0.1967  0.2757  0.0509
36138POPS   GL179638   8.074  26.059   6.470 -0.4853 -0.1865  0.0344
36138POPS   GL279639   7.943  26.005   6.796 -0.0089 -0.0023 -0.0232
36138POPS   C1A79640   7.634  26.172   6.410 -0.0419  0.0632  0.0574
36138POPS   D2A79641   7.390  26.556   6.432 -0.0565 -0.2666 -0.1278
36138POPS   C3A79642   7.285  26.777   6.793 -0.2785 -0.3824  0.0894
36138POPS   C4A79643   7.061  27.166   6.841 -0.1177  0.2257 -0.0988
36138POPS   C1B79644   7.691  26.369   6.894  0.2387 -0.2260 -0.0273
36138POPS   C2B79645   7.404  26.491   7.264 -0.2119  0.0425  0.1249
36138POPS   C3B79646   7.090  26.487   7.587  0.3467 -0.1847  0.1129
36138POPS   C4B79647   6.999  26.150   7.914 -0.1098 -0.2140  0.0624
36139POPS   CNO79648   0.638  21.211   4.456 -0.0316  0.0163 -0.3360
36139POPS   PO479649   0.809  21.158   4.812  0.0397  0.4176  0.0439
36139POPS   GL179650   0.905  21.189   5.230 -0.2869  0.0784 -0.2086
36139POPS   GL279651   0.819  20.955   5.302 -0.2687  0.0080 -0.0511
36139POPS   C1A79652   1.083  21.215   5.691 -0.0241 -0.0539 -0.0312
36139POPS   D2A79653   1.046  21.034   6.156 -0.1253  0.1961  0.2292
36139POPS   C3A79654   1.166  21.109   6.616 -0.1038 -0.2482  0.3165
36139POPS   C4A79655   1.279  21.107   7.082  0.0169 -0.2200  0.1867
36139POPS   C1B79656   0.775  20.694   5.740 -0.1792  0.1153  0.3528
36139POPS   C2B79657   0.746  20.621   6.202  0.3549 -0.0825  0.1289
36139POPS   C3B79658   0.733  20.679   6.682 -0.0794 -0.1844 -0.0750
36139POPS   C4B79659   0.455  20.591   6.998 -0.0341  0.0049  0.2280
36140POPS   CNO79660  10.220  22.930  11.396  0.2453 -0.0621  0.1799
36140POPS   PO479661  10.230  23.314  11.471 -0.0965  0.1960 -0.3071
36140POPS   GL179662  10.317  23.727  11.393 -0.1198  0.2597 -0.1944
36140POPS   GL279663  10.440  23.734  11.135 -0.1970  0.0702  0.0068
36140POPS   C1A79664  10.059  24.072  11.427  0.1503  0.1648  0.2778
36140POPS   D2A79665   9.807  24.504  11.401 -0.2189 -0.2534  0.4235
36140POPS   C3A79666   9.987  24.940  11.273  0.0028  0.0482 -0.1199
36140POPS   C4A79667  10.079  25.274  10.931  0.0286  0.0283  0.0962
36140POPS   C1B79668  10.573  24.075  11.412 -0.1170 -0.1500 -0.4232
36140POPS   C2B79669  10.720  24.481  11.618 -0.2342  0.0839 -0.0984
36140POPS   C3B79670  11.131  24.471  11.834  0.1032 -0.1890  0.2020
36140POPS   C4B79671  11.368  24.431  12.283 -0.1557  0.3643  0.0621
36141POPS   CNO79672   3.413  27.570   4.286  0.1611  0.1373 -0.1570
36141POPS   PO479673   3.483  27.179   4.438  0.3436  0.2408 -0.0138
36141POPS   GL179674   3.525  27.273   4.724 -0.2158  0.2069  0.1516
36141POPS   GL279675   3.702  27.385   4.844  0.0556  0.0617  0.1255
36141POPS   C1A79676   3.347  27.312   5.134 -0.2493  0.0075 -0.0008
36141POPS   D2A79677   3.234  27.552   5.479  0.1074 -0.0061  0.3844
36141POPS   C3A79678   3.320  27.372   5.884 -0.2098 -0.0882 -0.0368
36141POPS   C4A79679   3.436  27.014   6.175  0.1268  0.2033  0.1047
36141POPS   C1B79680   3.515  27.776   4.976  0.4210  0.2156  0.0059
36141POPS   C2B79681   3.225  28.084   5.194  0.0604  0.0957 -0.2363
36141POPS   C3B79682   3.358  28.298   5.606  0.2138  0.2223  0.3122
36141POPS   C4B79683   3.546  28.627   5.878  0.0767  0.0589 -0.2415
36142POPS   CNO79684   9.566  23.231  10.702 -0.0216  0.0842 -0.1647
36142POPS   PO479685   9.646  23.607  10.682 -0.1767 -0.2945  0.3545
36142POPS   GL179686   9.476  23.918  10.856 -0.0480 -0.0496 -0.0053
36142POPS   GL279687   9.660  24.136  10.987  0.3854  0.1719  0.0157
36142POPS   C1A79688   9.116  24.205  10.943  0.3360 -0.2995  0.5347
36142POPS   D2A79689   9.201  24.547  11.279 -0.0861 -0.0184 -0.0345
36142POPS   C3A79690   9.376  24.950  11.122 -0.1474 -0.0957  0.2375
36142POPS   C4A79691   9.581  25.287  11.305  0.1831  0.0428  0.1802
36142POPS   C1B79692   9.934  24.489  10.768  0.2399 -0.2060  0.1674
36142POPS   C2B79693  10.309  24.741  10.867  0.0493  0.1061  0.0329
36142POPS   C3B79694  10.540  25.051  11.057  0.0801 -0.0516  0.1593
36142POPS   C4B79695  10.622  25.481  10.970  0.1626  0.2665 -0.1547
36143POPS   CNO79696   5.443  28.141   4.632 -0.2833  0.1188  0.2748
36143POPS   PO479697   5.560  28.412   4.864  0.0461  0.2126  0.1106
36143POPS   GL179698   5.900  28.450   5.079  0.1778 -0.1247 -0.0391
36143POPS   GL279699   5.792  28.749   5.214 -0.0338  0.2556  0.2615
36143POPS   C1A79700   6.134  28.563   5.500 -0.0374  0.3731  0.0614
36143POPS   D2A79701   6.399  28.482   5.795 -0.2955  0.0189 -0.2732
36143POPS   C3A79702   6.369  28.090   6.055 -0.2521 -0.0986 -0.0625
36143POPS   C4A79703   6.475  27.831   6.396 -0.0005 -0.3518 -0.0686
36143POPS   C1B79704   5.666  28.903   5.585  0.1408  0.2243  0.0330
36143POPS   C2B79705   5.748  28.714   5.996  0.1097 -0.0691 -0.0325
36143POPS   C3B79706   5.939  28.363   6.295 -0.1314  0.1742  0.1424
36143POPS   C4B79707   6.280  28.295   6.580 -0.0514 -0.0822 -0.0095
36144POPS   CNO79708   6.057  30.346   4.115  0.3989 -0.1461 -0.0051
36144POPS   PO479709   5.750  30.258   4.300  0.1533  0.1896 -0.0672
36144POPS   GL179710   5.645  30.106   4.673  0.1473 -0.0296 -0.0214
36144POPS   GL279711   5.268  30.191   4.696  0.1412 -0.1372  0.2585
36144POPS   C1A79712   5.646  30.409   5.012 -0.1036 -0.0873 -0.2234
36144POPS   D2A79713   5.687  30.668   5.416  0.0005 -0.0334 -0.0575
36144POPS   C3A79714   5.969  30.716   5.770 -0.0727 -0.2380 -0.0153
36144POPS   C4A79715   6.229  30.463   6.089  0.1689 -0.5125  0.1065
36144POPS   C1B79716   5.189  30.260   5.163  0.1075  0.1281  0.0556
36144POPS   C2B79717   5.173  30.468   5.593 -0.1252 -0.4247  0.1697
36144POPS   C3B79718   5.414  30.771   5.884 -0.2135 -0.4329 -0.0067
36144POPS   C4B79719   5.377  30.917   6.359  0.1806  0.1097 -0.0326
36145POPS   CNO79720  11.919  31.474   4.263  0.1309 -0.0617 -0.1377
36145POPS   PO479721  12.124  31.412   4.534  0.2345  0.2899  0.0129
36145POPS   GL179722  12.131  31.489   4.933  0.2058  0.5281  0.1135
36145POPS   GL279723  12.364  31.484   5.010  0.0515  0.1046 -0.0655
36145POPS   C1A79724  12.137  31.737   5.352  0.2843 -0.1577 -0.1821
36145POPS   D2A79725  12.360  31.658   5.753 -0.2310 -0.0255  0.0729
36145POPS   C3A79726  12.385  31.935   6.065 -0.2992 -0.2942  0.1424
36145POPS   C4A79727  12.350  32.006   6.508 -0.0491  0.0049 -0.4292
36145POPS   C1B79728  12.097  31.244   5.326 -0.1248  0.2613  0.0322
36145POPS   C2B79729  12.105  31.114   5.775 -0.0031  0.0737  0.0389
36145POPS   C3B79730  12.375  31.255   6.127 -0.1488  0.1483  0.0612
36145POPS   C4B79731  12.602  31.083   6.527 -0.0274  0.0769 -0.0282
36146POPS   CNO79732  12.840  28.120   4.879 -0.0330 -0.0470 -0.2644
36146POPS   PO479733  12.613  28.326   5.090  0.0220  0.1217 -0.1083
36146POPS   GL179734  12.782  28.448   5.491  0.0232 -0.1208 -0.1622
36146POPS   GL279735  12.570  28.608   5.582 -0.0659 -0.0317 -0.3145
36146POPS   C1A79736  13.059  28.439   5.808 -0.1332  0.0386 -0.1206
36146POPS   D2A79737  13.184  28.341   6.245  0.2149 -0.1061 -0.3130
36146POPS   C3A79738  13.203  28.638   6.614  0.2975 -0.2679 -0.0703
36146POPS   C4A79739  13.498  28.578   6.992  0.2981  0.0146 -0.3558
36146POPS   C1B79740  12.669  28.604   6.043  0.0914 -0.0688 -0.0237
36146POPS   C2B79741  12.735  28.412   6.491  0.2680  0.0514  0.0868
36146POPS   C3B79742  12.767  28.603   6.913 -0.1365  0.0303  0.0611
36146POPS   C4B79743  13.047  29.007   6.962  0.1138 -0.3464  0.0647
36147POPS   CNO79744  10.703  22.651   9.138 -0.4590  0.2466  0.0179
36147POPS   PO479745  10.768  23.014   9.139  0.0709  0.2009  0.0401
36147POPS   GL179746  11.028  23.135   9.285  0.2710 -0.0652  0.1196
36147POPS   GL279747  10.956  23.455   9.340  0.0937  0.0332 -0.1301
36147POPS   C1A79748  11.403  22.845   9.418  0.3487  0.1035 -0.1700
36147POPS   D2A79749  11.643  22.751   9.767  0.1002 -0.0681 -0.3064
36147POPS   C3A79750  12.136  22.692   9.668  0.0803 -0.2585  0.0296
36147POPS   C4A79751  12.476  22.458   9.448 -0.0714  0.0405 -0.2308
36147POPS   C1B79752  11.301  23.779   9.347 -0.3152 -0.0854 -0.2083
36147POPS   C2B79753  11.533  24.124   9.551 -0.1362  0.1037 -0.2745
36147POPS   C3B79754  11.694  24.509   9.559 -0.0652  0.0968  0.2548
36147POPS   C4B79755  11.698  25.010   9.582  0.0515  0.0006  0.0963
36148POPS   CNO79756   7.487  22.104   7.835  0.3184 -0.2396 -0.2716
36148POPS   PO479757   7.165  22.007   8.073  0.0564 -0.1104  0.0496
36148POPS   GL179758   7.248  22.117   8.451  0.0452  0.3396 -0.0083
36148POPS   GL279759   7.243  21.862   8.552 -0.3371  0.0917 -0.2648
36148POPS   C1A79760   7.001  22.097   8.858  0.0143  0.0118  0.1456
36148POPS   D2A79761   6.718  21.894   9.113  0.0773  0.0058  0.0798
36148POPS   C3A79762   6.486  21.508   8.946 -0.0143 -0.0816  0.0424
36148POPS   C4A79763   6.181  21.273   8.740  0.0044 -0.2989  0.1875
36148POPS   C1B79764   7.111  21.613   8.874  0.0514  0.0597 -0.1673
36148POPS   C2B79765   6.846  21.434   9.288 -0.1468 -0.1778  0.1324
36148POPS   C3B79766   6.451  21.443   9.536  0.0462 -0.1046 -0.0048
36148POPS   C4B79767   6.209  21.045   9.723 -0.2686  0.2193 -0.3971
36149POPS   CNO79768   1.607  16.729   4.333 -0.2157  0.0997  0.0871
36149POPS   PO479769   1.686  16.545   4.657  0.1101 -0.0488 -0.3226
36149POPS   GL179770   1.869  16.145   4.777  0.4829  0.1526 -0.1107
36149POPS   GL279771   2.102  16.295   4.937  0.1587  0.1220  0.1452
36149POPS   C1A79772   1.716  15.810   5.081 -0.0522 -0.1953  0.1199
36149POPS   D2A79773   1.562  15.560   5.437 -0.0557 -0.0823 -0.0916
36149POPS   C3A79774   1.542  15.905   5.717 -0.3558  0.2339 -0.1206
36149POPS   C4A79775   1.500  15.956   6.163 -0.3751  0.2205  0.0792
36149POPS   C1B79776   2.035  16.162   5.395 -0.2077 -0.2508 -0.2366
36149POPS   C2B79777   2.016  15.892   5.863 -0.0798  0.0348  0.0485
36149POPS   C3B79778   1.782  15.520   6.061  0.1724 -0.1764 -0.1474
36149POPS   C4B79779   1.462  15.218   5.934  0.0505  0.1373 -0.3637
36150POPS   CNO79780  14.063  28.861   4.646  0.2008 -0.0581  0.3212
36150POPS   PO479781  13.910  29.195   4.593  0.4434  0.0905  0.3229
36150POPS   GL179782  13.817  29.055   5.019  0.1492 -0.1487  0.2642
36150POPS   GL279783  13.579  29.300   5.095  0.0430  0.2369 -0.1099
36150POPS   C1A79784  13.828  28.926   5.465  0.2102 -0.2159 -0.1311
36150POPS   D2A79785  13.863  29.063   5.891 -0.0984  0.2875 -0.0606
36150POPS   C3A79786  14.154  29.375   6.018  0.0973 -0.1134  0.0098
36150POPS   C4A79787  14.342  29.818   5.907 -0.1141  0.0864  0.0393
36150POPS   C1B79788  13.525  29.408   5.536  0.0244  0.1311  0.1355
36150POPS   C2B79789  13.625  29.480   5.963 -0.1527 -0.3025 -0.0689
36150POPS   C3B79790  13.898  29.781   6.176 -0.3526  0.0010  0.0919
36150POPS   C4B79791  14.113  30.125   6.331 -0.2172 -0.0044 -0.1674
36151POPS   CNO79792  13.747  26.659   4.716  0.1330  0.0573  0.0021
36151POPS   PO479793  13.631  26.832   5.058 -0.1607  0.0348  0.1704
36151POPS   GL179794  13.964  26.958   5.338 -0.1303  0.0360 -0.3489
36151POPS   GL279795  13.745  27.059   5.558  0.0934  0.0575 -0.2006
36151POPS   C1A79796  14.276  26.872   5.658  0.1197 -0.0905  0.3145
36151POPS   D2A79797  14.270  26.820   6.085  0.1038  0.5090  0.1609
36151POPS   C3A79798  14.558  26.496   6.321  0.0359 -0.4583  0.1822
36151POPS   C4A79799  14.783  26.101   6.383  0.0927  0.1174 -0.0710
36151POPS   C1B79800  13.884  27.116   5.998 -0.1813  0.1434 -0.0304
36151POPS   C2B79801  14.123  27.156   6.425  0.2935  0.1930  0.1043
36151POPS   C3B79802  14.202  27.439   6.762 -0.0242 -0.1279  0.1564
36151POPS   C4B79803  14.341  27.807   7.018 -0.1806  0.0149  0.1649
36152POPS   CNO79804   9.117  23.477   8.723  0.0757 -0.0058  0.0426
36152POPS   PO479805   8.789  23.622   8.844  0.3888 -0.1041  0.2732
36152POPS   GL179806   8.441  23.825   9.062  0.1064 -0.0440 -0.0351
36152POPS   GL279807   8.525  24.121   8.994  0.3833 -0.1190 -0.4848
36152POPS   C1A79808   7.955  23.943   9.021 -0.1806  0.4559  0.1636
36152POPS   D2A79809   7.535  23.765   8.953 -0.2678 -0.0063  0.0579
36152POPS   C3A79810   7.247  23.874   9.312 -0.1984 -0.1510  0.1371
36152POPS   C4A79811   6.911  23.950   9.641 -0.1671  0.0377 -0.0322
36152POPS   C1B79812   8.195  24.378   8.814  0.1861  0.0404 -0.3667
36152POPS   C2B79813   7.889  24.679   8.613  0.1491 -0.0897 -0.3290
36152POPS   C3B79814   7.489  24.943   8.555  0.1252 -0.1391  0.2051
36152POPS   C4B79815   7.094  25.152   8.696  0.0206  0.2251 -0.2724
36153POPS   CNO79816   9.863  24.092   8.762  0.1000  0.2405 -0.1040
36153POPS   PO479817   9.919  23.943   9.145 -0.2204 -0.4124 -0.1250
36153POPS   GL179818   9.846  24.270   9.353 -0.0002  0.4184 -0.0518
36153POPS   GL279819  10.071  24.438   9.272  0.0761  0.1631 -0.0621
36153POPS   C1A79820  10.013  24.397   9.764  0.1444 -0.2713 -0.3187
36153POPS   D2A79821   9.890  24.497  10.247 -0.1126 -0.3304  0.0750
36153POPS   C3A79822  10.123  24.853  10.418  0.0741  0.0552  0.1859
36153POPS   C4A79823  10.300  25.297  10.357  0.1537 -0.0921  0.2266
36153POPS   C1B79824  10.196  24.835   9.434 -0.0674 -0.0464 -0.0675
36153POPS   C2B79825  10.207  25.002   9.854 -0.0083  0.0823 -0.0335
36153POPS   C3B79826  10.003  25.384  10.000  0.1746  0.1867  0.0194
36153POPS   C4B79827   9.760  25.761   9.956  0.1616  0.3005 -0.0324
36154POPS   CNO79828   4.960  24.344  12.814  0.1028  0.0935 -0.0448
36154POPS   PO479829   4.972  24.406  13.206  0.0410 -0.1017 -0.0557
36154POPS   GL179830   5.318  24.515  13.486  0.3722 -0.1160  0.0450
36154POPS   GL279831   5.457  24.303  13.479 -0.0513  0.0876  0.4724
36154POPS   C1A79832   5.293  24.521  13.951 -0.3142  0.0455 -0.1936
36154POPS   D2A79833   5.566  24.654  14.338  0.2171 -0.2483 -0.0440
36154POPS   C3A79834   5.947  24.681  14.117  0.0265  0.2159 -0.0019
36154POPS   C4A79835   6.198  24.354  13.841  0.0012 -0.2949 -0.3792
36154POPS   C1B79836   5.884  24.132  13.419  0.2715 -0.0311 -0.2789
36154POPS   C2B79837   6.283  23.962  13.551  0.3437  0.0071 -0.1994
36154POPS   C3B79838   6.629  23.730  13.370 -0.0196 -0.1393 -0.2334
36154POPS   C4B79839   6.893  23.493  13.015 -0.0250  0.0374  0.0047
36155POPS   CNO79840   3.267  18.174  15.050  0.1123  0.2575  0.0559
36155POPS   PO479841   3.613  18.118  15.227  0.0612 -0.1352  0.2912
36155POPS   GL179842   3.805  18.302  15.533 -0.2957 -0.2443  0.0021
36155POPS   GL279843   3.646  18.411  15.753 -0.2856  0.2316  0.5096
36155POPS   C1A79844   4.053  18.641  15.733  0.2164 -0.3249  0.3028
36155POPS   D2A79845   4.202  18.790  16.151  0.1516  0.1583  0.1694
36155POPS   C3A79846   4.135  18.530  16.479  0.1808 -0.2284  0.2236
36155POPS   C4A79847   4.254  18.402  16.878 -0.2081 -0.0730 -0.2345
36155POPS   C1B79848   3.751  18.585  16.190  0.0177  0.0565  0.0093
36155POPS   C2B79849   3.708  18.702  16.647  0.3090 -0.1635  0.0272
36155POPS   C3B79850   3.759  18.567  17.066 -0.0594  0.2486 -0.4194
36155POPS   C4B79851   3.463  18.577  17.415 -0.1647 -0.1102  0.1400
36156POPS   CNO79852  10.037  17.106  13.110  0.0456 -0.0386  0.0163
36156POPS   PO479853  10.222  17.459  13.060 -0.3204 -0.1312 -0.1896
36156POPS   GL179854   9.939  17.606  13.383 -0.3655  0.1129  0.2285
36156POPS   GL279855  10.137  17.627  13.564 -0.2492  0.1053  0.0473
36156POPS   C1A79856   9.796  18.014  13.475  0.1366  0.2010 -0.2656
36156POPS   D2A79857   9.734  18.179  13.909  0.3263  0.0695 -0.0800
36156POPS   C3A79858  10.042  18.401  14.136 -0.3035  0.0420  0.0779
36156POPS   C4A79859  10.429  18.478  14.018  0.0432 -0.0967 -0.1499
36156POPS   C1B79860  10.237  17.980  13.904 -0.0172  0.2357  0.0758
36156POPS   C2B79861  10.426  18.064  14.290  0.3238  0.4192 -0.1689
36156POPS   C3B79862  10.346  18.445  14.539  0.0989 -0.4790  0.2702
36156POPS   C4B79863  10.075  18.674  14.875 -0.0205 -0.0253  0.0050
36157POPS   CNO79864   9.526  30.034  15.878  0.0110 -0.0554  0.1290
36157POPS   PO479865   9.689  29.929  16.176 -0.0582  0.1362  0.2165
36157POPS   GL179866   9.658  29.889  16.565 -0.0867  0.3337  0.0724
36157POPS   GL279867   9.536  30.179  16.647 -0.1218 -0.2836  0.1035
36157POPS   C1A79868   9.855  29.821  16.968  0.0210  0.0833  0.3917
36157POPS   D2A79869   9.646  29.742  17.377 -0.2420  0.1361 -0.2145
36157POPS   C3A79870   9.945  29.831  17.791  0.1427 -0.0956  0.2629
36157POPS   C4A79871  10.217  29.991  18.061  0.0931 -0.4798 -0.0570
36157POPS   C1B79872   9.527  30.222  17.098 -0.2884  0.0031 -0.1180
36157POPS   C2B79873   9.515  30.404  17.472  0.0518  0.1348 -0.1135
36157POPS   C3B79874   9.403  30.207  17.888 -0.3103 -0.0173  0.0628
36157POPS   C4B79875   9.521  29.810  18.022  0.2410  0.2443 -0.1449
36158POPS   CNO79876   2.817  29.639  16.796  0.2476 -0.1521 -0.4041
36158POPS   PO479877   2.913  29.299  16.774  0.0663  0.2745 -0.0633
36158POPS   GL179878   2.915  29.003  17.108 -0.1785  0.1781  0.0912
36158POPS   GL279879   3.160  28.860  17.129 -0.1161 -0.0205 -0.4054
36158POPS   C1A79880   2.831  28.825  17.478 -0.2152  0.1133 -0.0153
36158POPS   D2A79881   2.770  28.518  17.770  0.0909  0.0410 -0.3264
36158POPS   C3A79882   2.937  28.357  18.173  0.0543 -0.0732  0.0577
36158POPS   C4A79883   3.051  28.238  18.629  0.0529 -0.0677  0.0644
36158POPS   C1B79884   3.150  28.468  17.318 -0.0662  0.0143 -0.1385
36158POPS   C2B79885   3.363  28.451  17.724 -0.4633 -0.0535 -0.1427
36158POPS   C3B79886   3.405  28.272  18.109  0.0959 -0.1524 -0.2415
36158POPS   C4B79887   3.663  27.952  18.171 -0.1554 -0.0108 -0.0826
36159POPS   CNO79888   4.443  31.749  15.846  0.1730  0.1446  0.0701
36159POPS   PO479889   4.377  31.996  16.083  0.2147 -0.0196  0.0557
36159POPS   GL179890   4.680  32.005  16.396  0.3502  0.5452  0.0496
36159POPS   GL279891   4.718  32.297  16.487  0.5018  0.0089 -0.0643
36159POPS   C1A79892   4.717  31.997  16.898 -0.1031  0.2238  0.2656
36159POPS   D2A79893   4.807  32.285  17.253  0.0128 -0.2001 -0.0186
36159POPS   C3A79894   5.135  32.396  17.586 -0.1509 -0.2710 -0.1929
36159POPS   C4A79895   5.480  32.129  17.816  0.1439  0.0488  0.0393
36159POPS   C1B79896   4.990  32.407  16.842 -0.2959 -0.0080 -0.0607
36159POPS   C2B79897   5.150  32.829  17.007 -0.2270  0.0378  0.3036
36159POPS   C3B79898   5.211  33.096  17.390 -0.2192  0.0979  0.0323
36159POPS   C4B79899   5.226  33.525  17.539  0.0610 -0.0675  0.1661
36160POPS   CNO79900   6.129  26.364  11.801  0.2586  0.0420 -0.2396
36160POPS   PO479901   6.204  26.390  11.427 -0.0838  0.0802 -0.0133
36160POPS   GL179902   6.446  26.057  11.429  0.2828 -0.0806 -0.1305
36160POPS   GL279903   6.508  25.801  11.511  0.1613  0.0421 -0.0579
36160POPS   C1A79904   6.714  25.904  11.036  0.0826  0.2203  0.0857
36160POPS   D2A79905   6.957  25.722  10.701  0.1508  0.0505  0.0524
36160POPS   C3A79906   7.295  25.447  10.709  0.1646 -0.1429 -0.1155
36160POPS   C4A79907   7.399  25.093  10.444 -0.1193 -0.2053  0.2019
36160POPS   C1B79908   6.921  25.621  11.474  0.0681  0.1740  0.1088
36160POPS   C2B79909   7.209  25.280  11.537  0.2107 -0.2845 -0.0906
36160POPS   C3B79910   7.601  25.079  11.556 -0.0317  0.0346  0.3006
36160POPS   C4B79911   7.833  24.715  11.411 -0.0618  0.2856 -0.4339
36161POPS   CNO79912  14.200  26.086  10.339  0.1220 -0.0637 -0.1038
36161POPS   PO479913  13.870  25.872  10.388 -0.0084  0.3240 -0.4656
36161POPS   GL179914  13.619  25.703  10.086 -0.2655  0.2364 -0.0644
36161POPS   GL279915  13.511  25.425  10.019  0.1375 -0.3913  0.2396
36161POPS   C1A79916  13.488  25.860   9.672  0.2989 -0.3365  0.0709
36161POPS   D2A79917  13.717  25.886   9.223 -0.0630 -0.0205 -0.1423
36161POPS   C3A79918  13.371  25.772   8.869  0.1478 -0.5172  0.3623
36161POPS   C4A79919  13.252  25.695   8.458 -0.0141 -0.0566  0.0699
36161POPS   C1B79920  13.103  25.499   9.795 -0.0754  0.2963 -0.0355
36161POPS   C2B79921  12.734  25.478   9.585  0.1358 -0.2848 -0.0349
36161POPS   C3B79922  12.348  25.584   9.368 -0.2673 -0.3143 -0.1124
36161POPS   C4B79923  12.210  25.787   8.964  0.2461  0.3833 -0.0432
36162POPS   CNO79924  11.216  30.649  15.843 -0.2954  0.0666 -0.0887
36162POPS   PO479925  11.198  30.714  16.220 -0.1908 -0.1092 -0.2355
36162POPS   GL179926  11.026  30.794  16.483  0.5474  0.0091 -0.1488
36162POPS   GL279927  11.082  30.986  16.623 -0.1716 -0.3372  0.2698
36162POPS   C1A79928  10.763  30.705  16.852  0.0070 -0.0861 -0.4807
36162POPS   D2A79929  10.512  30.597  17.237  0.0825 -0.1001  0.2385
36162POPS   C3A79930  10.570  30.460  17.688  0.0138 -0.2225  0.1802
36162POPS   C4A79931  10.686  30.186  18.034  0.0260 -0.3420 -0.0111
36162POPS   C1B79932  11.135  31.122  17.090 -0.3018  0.2308  0.0724
36162POPS   C2B79933  11.210  31.206  17.542  0.1074  0.3494  0.0553
36162POPS   C3B79934  11.099  31.353  17.990 -0.2294 -0.1027 -0.0223
36162POPS   C4B79935  10.796  31.608  18.185 -0.0118 -0.4892 -0.3005
36163POPS   CNO79936   7.717  27.004  15.094  0.2945  0.0656 -0.1336
36163POPS   PO479937   8.021  26.789  15.239  0.3406  0.0768 -0.1105
36163POPS   GL179938   8.219  26.467  15.106  0.0426 -0.2479 -0.3871
36163POPS   GL279939   8.455  26.433  14.897 -0.5777  0.4378 -0.2510
36163POPS   C1A79940   8.377  26.090  15.336  0.2809 -0.0556 -0.0828
36163POPS   D2A79941   8.331  25.681  15.556  0.5435 -0.0632 -0.1618
36163POPS   C3A79942   8.474  25.238  15.695 -0.1675 -0.2223 -0.1899
36163POPS   C4A79943   8.546  24.777  15.815  0.0759 -0.1596  0.0744
36163POPS   C1B79944   8.298  26.009  14.873  0.0867 -0.1686 -0.3768
36163POPS   C2B79945   8.173  25.590  15.032  0.3035  0.0209 -0.1013
36163POPS   C3B79946   8.263  25.166  15.212  0.0217 -0.0515  0.1569
36163POPS   C4B79947   8.338  24.703  15.341 -0.2396  0.0174  0.0604
36164POPS   CNO79948   1.317  18.348  15.647 -0.0334  0.0450  0.0143
36164POPS   PO479949   1.622  18.359  15.886  0.1718 -0.0231 -0.1678
36164POPS   GL179950   1.723  18.331  16.242  0.0470  0.2103  0.0997
36164POPS   GL279951   1.607  18.122  16.325 -0.1229 -0.0946 -0.2790
36164POPS   C1A79952   1.506  18.592  16.556  0.2025  0.0586  0.3521
36164POPS   D2A79953   1.528  18.955  16.908 -0.4872  0.0626  0.0765
36164POPS   C3A79954   1.461  19.124  17.311  0.0795 -0.0208 -0.1508
36164POPS   C4A79955   1.213  19.039  17.688  0.5205 -0.4085 -0.0075
36164POPS   C1B79956   1.916  18.290  16.628 -0.0369 -0.1282 -0.0470
36164POPS   C2B79957   2.151  18.280  17.009  0.0778 -0.2255 -0.0602
36164POPS   C3B79958   2.125  18.453  17.461 -0.2309  0.0903  0.2989
36164POPS   C4B79959   2.008  18.634  17.878 -0.1001 -0.2346  0.0886
36165POPS   CNO79960  15.856  25.745  15.654  0.1130  0.2606  0.2035
36165POPS   PO479961  15.789  25.385  15.603  0.0467 -0.4689  0.0787
36165POPS   GL179962  15.679  25.376  15.991 -0.0482  0.0675 -0.5190
36165POPS   GL279963  15.946  25.410  16.092  0.0338 -0.0935 -0.1402
36165POPS   C1A79964  15.436  25.230  16.371  0.4029  0.1216 -0.1815
36165POPS   D2A79965  15.484  25.165  16.799  0.3191  0.0883  0.0370
36165POPS   C3A79966  15.629  25.009  17.168  0.0373  0.1959  0.0114
36165POPS   C4A79967  15.776  25.063  17.619 -0.1748  0.2065 -0.0480
36165POPS   C1B79968  15.886  25.389  16.558 -0.0812  0.1220  0.0729
36165POPS   C2B79969  15.734  25.633  16.955 -0.0234  0.1395  0.0245
36165POPS   C3B79970  15.713  25.552  17.411  0.1546  0.1364 -0.3048
36165POPS   C4B79971  16.040  25.562  17.718 -0.2691  0.1483 -0.2847
36166POPS   CNO79972   3.746  28.654  16.529 -0.2326  0.0958  0.0794
36166POPS   PO479973   4.059  28.426  16.557 -0.1348 -0.1004 -0.1042
36166POPS   GL179974   4.050  28.488  16.923 -0.2041 -0.0062 -0.1982
36166POPS   GL279975   3.927  28.253  17.011  0.0261  0.0842 -0.1795
36166POPS   C1A79976   4.130  28.802  17.226  0.1448  0.0356 -0.0005
36166POPS   D2A79977   4.226  28.865  17.651 -0.1510 -0.2113  0.3986
36166POPS   C3A79978   4.622  28.708  17.718 -0.0178 -0.1317  0.0452
36166POPS   C4A79979   5.086  28.610  17.735  0.0233  0.1204 -0.1829
36166POPS   C1B79980   3.772  28.426  17.374  0.0787 -0.3082 -0.0812
36166POPS   C2B79981   3.827  28.545  17.873  0.0923 -0.3434 -0.1747
36166POPS   C3B79982   3.883  28.845  18.234  0.4963 -0.0422  0.1672
36166POPS   C4B79983   3.848  29.029  18.702  0.0227  0.2371  0.2243
36167POPS   CNO79984  14.875  24.039  11.062 -0.0297  0.2789 -0.2903
36167POPS   PO479985  14.517  24.213  10.970  0.0988 -0.0112 -0.2057
36167POPS   GL179986  14.123  23.989  10.934  0.0357 -0.2817  0.2131
36167POPS   GL279987  14.142  23.769  10.820 -0.1811 -0.2703  0.1310
36167POPS   C1A79988  13.692  24.041  11.102 -0.1788 -0.2422 -0.2813
36167POPS   D2A79989  13.399  23.707  11.160  0.2576 -0.0783 -0.0610
36167POPS   C3A79990  12.947  23.644  11.076  0.1954 -0.2728 -0.0358
36167POPS   C4A79991  12.621  23.413  10.885  0.2247 -0.0992  0.0311
36167POPS   C1B79992  13.826  23.559  10.765  0.3912 -0.1108 -0.2541
36167POPS   C2B79993  13.375  23.459  10.702  0.1337  0.0754 -0.2004
36167POPS   C3B79994  12.970  23.209  10.667 -0.2116  0.0450  0.0959
36167POPS   C4B79995  12.809  22.968  11.011  0.0783  0.0033 -0.2230
36168POPS   CNO79996   3.030  21.898  15.302  0.0012  0.1056  0.0879
36168POPS   PO479997   3.316  21.785  15.164  0.3644 -0.0808  0.1312
36168POPS   GL179998   3.556  21.716  15.385  0.2496  0.1033  0.5023
36168POPS   GL279999   3.363  21.686  15.652 -0.1048 -0.0273  0.3976
36168POPS   C1A80000   3.978  21.805  15.595  0.1818 -0.0222 -0.1437
36168POPS   D2A80001   3.998  22.048  16.018 -0.2942  0.0369 -0.3729
36168POPS   C3A80002   4.392  21.946  16.267 -0.2107 -0.1456 -0.1138
36168POPS   C4A80003   4.403  21.721  16.648  0.0366 -0.0579  0.0275
36168POPS   C1B80004   3.577  21.763  16.097  0.0463  0.0516  0.0574
36168POPS   C2B80005   3.883  21.892  16.441 -0.2099  0.1190 -0.1173
36168POPS   C3B80006   3.935  21.769  16.916  0.0478 -0.3138  0.0194
36168POPS   C4B80007   4.034  22.002  17.276 -0.0199 -0.0520 -0.4335
36169POPS   CNO80008  13.655  26.026  12.100  0.0218 -0.0824 -0.0165
36169POPS   PO480009  13.535  25.952  11.739 -0.3277  0.1472 -0.2537
36169POPS   GL180010  13.206  25.723  11.664 -0.1714 -0.1448  0.2987
36169POPS   GL280011  13.030  25.857  11.573  0.0870  0.1662  0.1646
36169POPS   C1A80012  12.983  25.318  11.791 -0.0462 -0.0430  0.1324
36169POPS   D2A80013  12.863  24.882  11.948 -0.1786  0.1459 -0.2414
36169POPS   C3A80014  12.475  24.522  11.979  0.0784 -0.0712  0.2590
36169POPS   C4A80015  12.155  24.349  11.656 -0.0850 -0.1364  0.0215
36169POPS   C1B80016  12.624  25.836  11.358  0.0305 -0.3244  0.1607
36169POPS   C2B80017  12.205  25.729  11.090 -0.2061  0.0223 -0.1494
36169POPS   C3B80018  12.016  25.647  10.685  0.3245  0.1248  0.1316
36169POPS   C4B80019  11.950  25.527  10.281 -0.0691  0.0923  0.2437
36170POPS   CNO80020  10.315  28.967   9.917 -0.1268  0.0392  0.0975
36170POPS   PO480021   9.954  28.826   9.921 -0.2093 -0.0019 -0.2893
36170POPS   GL180022  10.063  28.572   9.738 -0.2223 -0.1971  0.2432
36170POPS   GL280023  10.009  28.287   9.758  0.1300 -0.0313 -0.0530
36170POPS   C1A80024  10.102  28.717   9.274 -0.1903 -0.2380  0.2205
36170POPS   D2A80025  10.046  28.517   8.858  0.2198 -0.0348  0.1606
36170POPS   C3A80026  10.187  28.164   8.644 -0.0109 -0.0905  0.1227
36170POPS   C4A80027  10.043  27.726   8.678 -0.2038  0.1080 -0.1345
36170POPS   C1B80028   9.828  28.327   9.342 -0.0246 -0.0672 -0.2322
36170POPS   C2B80029   9.690  28.140   8.964  0.0235  0.0655  0.0957
36170POPS   C3B80030   9.689  28.115   8.530 -0.2577 -0.0257  0.0314
36170POPS   C4B80031   9.608  27.938   8.107 -0.0418  0.3004  0.0579
36171POPS   CNO80032   7.089  26.521  11.955 -0.0290 -0.1428 -0.2943
36171POPS   PO480033   7.067  26.158  11.988  0.0210  0.0965 -0.0260
36171POPS   GL180034   7.210  25.840  11.845 -0.0663 -0.1346 -0.2248
36171POPS   GL280035   7.455  25.944  11.707 -0.1238 -0.2942  0.4195
36171POPS   C1A80036   7.455  25.516  12.006 -0.1989  0.1220 -0.1118
36171POPS   D2A80037   7.952  25.403  12.021 -0.0893 -0.0301  0.0242
36171POPS   C3A80038   8.082  24.959  11.939  0.1028 -0.1673 -0.2448
36171POPS   C4A80039   8.134  24.577  11.787 -0.1915  0.1351 -0.0005
36171POPS   C1B80040   7.683  25.609  11.479  0.2159 -0.0132 -0.3042
36171POPS   C2B80041   7.587  25.333  11.112  0.0338 -0.1337 -0.0004
36171POPS   C3B80042   7.574  24.929  10.876 -0.0544 -0.3052 -0.0604
36171POPS   C4B80043   7.735  24.687  10.526 -0.2670  0.1749 -0.1131
36172POPS   CNO80044  12.005  18.209  12.778 -0.3242  0.1413 -0.1727
36172POPS   PO480045  12.049  18.476  13.037  0.0127 -0.0592  0.0915
36172POPS   GL180046  12.021  18.546  13.442 -0.3475 -0.2774  0.0396
36172POPS   GL280047  11.844  18.363  13.524  0.0160 -0.3576  0.1219
36172POPS   C1A80048  12.036  18.957  13.720 -0.1003  0.3664  0.1850
36172POPS   D2A80049  11.689  19.324  13.736 -0.0294  0.1473 -0.1518
36172POPS   C3A80050  11.510  19.721  13.811 -0.0150  0.4635  0.1703
36172POPS   C4A80051  11.104  19.850  13.657  0.1078 -0.0286 -0.1790
36172POPS   C1B80052  11.571  18.772  13.569  0.2528 -0.1401  0.2281
36172POPS   C2B80053  11.255  19.071  13.802 -0.1404  0.1572  0.1876
36172POPS   C3B80054  11.116  19.462  13.925 -0.0939 -0.0543 -0.4172
36172POPS   C4B80055  11.168  19.785  14.180  0.0582 -0.2946 -0.0499
36173POPS   CNO80056   1.552  29.859  16.845 -0.2993 -0.2185  0.1438
36173POPS   PO480057   1.391  29.555  16.806  0.0007  0.2360 -0.0310
36173POPS   GL180058   1.532  29.593  17.176 -0.1473  0.0365 -0.2253
36173POPS   GL280059   1.805  29.500  17.173 -0.0504  0.2154 -0.1231
36173POPS   C1A80060   1.530  29.232  17.484 -0.1849 -0.1056  0.1775
36173POPS   D2A80061   1.617  29.161  17.942 -0.0614 -0.2515 -0.0154
36173POPS   C3A80062   1.825  29.210  18.318 -0.2791  0.0329  0.3523
36173POPS   C4A80063   1.879  29.326  18.742  0.2605 -0.0994  0.1869
36173POPS   C1B80064   2.068  29.470  17.518 -0.2206  0.3050 -0.2311
36173POPS   C2B80065   2.159  29.257  17.928  0.0554 -0.1426 -0.0741
36173POPS   C3B80066   2.337  28.980  18.285 -0.0631  0.0542  0.2705
36173POPS   C4B80067   2.572  29.035  18.680  0.1949 -0.0900  0.0869
36174POPS   CNO80068   3.276  29.719  16.967  0.1968 -0.2959  0.0476
36174POPS   PO480069   3.446  30.043  16.911  0.1352  0.1038 -0.2901
36174POPS   GL180070   3.657  30.242  17.172  0.0369  0.3293 -0.0255
36174POPS   GL280071   3.534  30.146  17.440  0.2382 -0.0427  0.3663
36174POPS   C1A80072   3.962  30.209  17.545 -0.2356 -0.1374 -0.2058
36174POPS   D2A80073   4.223  30.289  17.883 -0.1441  0.2764  0.2597
36174POPS   C3A80074   4.342  30.502  18.244 -0.0177  0.0289 -0.3149
36174POPS   C4A80075   4.032  30.734  18.515  0.2384 -0.0384  0.1199
36174POPS   C1B80076   3.380  30.206  17.863 -0.2485  0.1979  0.1199
36174POPS   C2B80077   3.134  30.204  18.275  0.0767 -0.0273  0.4738
36174POPS   C3B80078   3.114  30.388  18.700 -0.1504  0.4085 -0.0861
36174POPS   C4B80079   3.075  30.796  18.849 -0.0850  0.2861  0.2140
36175POPS   CNO80080  16.851  20.674  15.597  0.0880  0.1191 -0.0025
36175POPS   PO480081  17.092  20.948  15.708  0.1515  0.1105  0.4048
36175POPS   GL180082  16.856  20.921  16.067 -0.1313  0.0730 -0.3313
36175POPS   GL280083  16.668  21.138  16.092  0.0100 -0.0411 -0.1951
36175POPS   C1A80084  16.863  20.702  16.531  0.2459  0.2616  0.3666
36175POPS   D2A80085  16.908  20.698  17.023  0.1197  0.2147  0.1573
36175POPS   C3A80086  16.709  21.020  17.299  0.1196 -0.1852  0.1125
36175POPS   C4A80087  16.251  21.173  17.313 -0.6243 -0.0027 -0.1581
36175POPS   C1B80088  16.475  21.062  16.536  0.1135 -0.1584  0.1289
36175POPS   C2B80089  16.420  20.817  16.933  0.1695  0.5642 -0.0070
36175POPS   C3B80090  16.365  20.705  17.459 -0.0722 -0.0103  0.1290
36175POPS   C4B80091  16.426  21.044  17.748  0.2012  0.0799 -0.1271
36176POPS   CNO80092  17.428  28.250  16.344 -0.2115  0.0659 -0.0576
36176POPS   PO480093  17.198  28.267  16.656  0.1228 -0.1116  0.3768
36176POPS   GL180094  16.915  28.376  16.924 -0.1646  0.1367 -0.0031
36176POPS   GL280095  16.874  28.030  16.998 -0.1058 -0.1344 -0.1553
36176POPS   C1A80096  16.975  28.453  17.341  0.3329  0.0165  0.0389
36176POPS   D2A80097  17.432  28.471  17.278 -0.2437 -0.1077 -0.0962
36176POPS   C3A80098  17.579  28.573  17.748  0.1650 -0.1629  0.0234
36176POPS   C4A80099  17.774  28.688  18.111 -0.0814  0.1690 -0.1186
36176POPS   C1B80100  17.304  27.997  17.200 -0.3258 -0.0436 -0.0062
36176POPS   C2B80101  17.253  28.108  17.621  0.1744  0.1916 -0.0691
36176POPS   C3B80102  17.093  28.237  18.034  0.3279 -0.1460  0.0356
36176POPS   C4B80103  16.959  28.203  18.483 -0.0862 -0.0860 -0.0543
36177POPS   CNO80104   5.373  25.032  13.966  0.1469 -0.2452 -0.2362
36177POPS   PO480105   5.326  25.183  14.314  0.1566  0.0454 -0.0201
36177POPS   GL180106   5.566  25.051  14.589  0.1223 -0.1416 -0.0647
36177POPS   GL280107   5.550  25.161  14.825  0.3809 -0.0349 -0.0185
36177POPS   C1A80108   5.973  24.811  14.605  0.1738  0.0765 -0.0816
36177POPS   D2A80109   6.363  24.653  14.436  0.0582  0.1589  0.1884
36177POPS   C3A80110   6.860  24.533  14.524  0.0814  0.1420  0.0891
36177POPS   C4A80111   7.305  24.637  14.621  0.1751  0.0596  0.0949
36177POPS   C1B80112   5.754  24.822  15.062 -0.0465 -0.2501  0.1058
36177POPS   C2B80113   6.027  24.606  15.374 -0.0445 -0.4046 -0.0520
36177POPS   C3B80114   6.329  24.453  15.754  0.1386 -0.1735 -0.1609
36177POPS   C4B80115   6.645  24.226  16.028  0.0521 -0.1495  0.0520
36178POPS   CNO80116   4.467  22.282  14.904  0.0637 -0.0068 -0.0870
36178POPS   PO480117   4.205  21.981  14.865  0.2394  0.3293 -0.1207
36178POPS   GL180118   4.345  21.888  15.191  0.1523  0.2094 -0.0171
36178POPS   GL280119   4.370  21.649  15.300  0.0610 -0.2225 -0.2283
36178POPS   C1A80120   4.611  22.108  15.480  0.1299 -0.0643 -0.0906
36178POPS   D2A80121   4.804  22.132  15.869 -0.0278  0.0412 -0.0752
36178POPS   C3A80122   4.901  21.797  16.136  0.0085 -0.0924 -0.0021
36178POPS   C4A80123   4.903  21.668  16.604  0.2134 -0.0264  0.1242
36178POPS   C1B80124   4.544  21.611  15.675 -0.0950  0.0165 -0.0856
36178POPS   C2B80125   4.575  21.345  16.013  0.2445 -0.0049 -0.3813
36178POPS   C3B80126   4.670  21.275  16.445 -0.1053 -0.0130  0.0405
36178POPS   C4B80127   4.641  21.304  16.872 -0.2069  0.0289  0.2027
36179POPS   CNO80128  10.745  29.594   9.732 -0.2671 -0.3069 -0.2876
36179POPS   PO480129  10.434  29.469   9.830  0.5311  0.1920  0.3096
36179POPS   GL180130  10.395  29.229   9.518  0.2300  0.1273 -0.2400
36179POPS   GL280131  10.489  28.965   9.458 -0.0354 -0.0067 -0.0781
36179POPS   C1A80132  10.256  29.293   9.091  0.0760  0.2759 -0.1553
36179POPS   D2A80133  10.272  29.009   8.734 -0.0081 -0.0946  0.3541
36179POPS   C3A80134  10.087  29.073   8.245 -0.2711 -0.2587  0.2773
36179POPS   C4A80135   9.904  29.240   7.881  0.0233  0.0989 -0.1021
36179POPS   C1B80136  10.563  28.796   9.045 -0.1733  0.2132  0.1068
36179POPS   C2B80137  10.584  28.505   8.640 -0.1767 -0.0010 -0.0322
36179POPS   C3B80138  10.620  28.200   8.277 -0.2275 -0.3543  0.0723
36179POPS   C4B80139  10.615  27.773   8.114 -0.1390 -0.2347  0.1814
36180POPS   CNO80140   3.644  29.758  16.548 -0.0563  0.0233  0.0668
36180POPS   PO480141   3.866  29.492  16.638  0.0326 -0.0923 -0.0520
36180POPS   GL180142   3.682  29.533  16.956  0.2349  0.3414  0.0123
36180POPS   GL280143   3.484  29.245  17.025 -0.1170  0.3058 -0.5222
36180POPS   C1A80144   3.740  29.705  17.400 -0.0225 -0.0047  0.1932
36180POPS   D2A80145   3.801  29.827  17.847  0.2399  0.0736  0.0530
36180POPS   C3A80146   3.683  29.828  18.284  0.0884  0.0634  0.0250
36180POPS   C4A80147   3.547  29.712  18.751  0.1972 -0.2825  0.3065
36180POPS   C1B80148   3.361  29.338  17.509 -0.0914 -0.2951  0.0040
36180POPS   C2B80149   3.410  29.527  17.964  0.0191  0.2721 -0.1901
36180POPS   C3B80150   3.063  29.645  18.293  0.0869 -0.0961  0.1157
36180POPS   C4B80151   2.803  29.516  18.703 -0.2308  0.1262  0.0593
36181POPS   CNO80152   0.060  18.067  15.209  0.1635  0.0587 -0.2261
36181POPS   PO480153  -0.227  18.192  15.405  0.1490 -0.1505 -0.0701
36181POPS   GL180154  -0.277  18.227  15.870 -0.2299  0.0785 -0.0824
36181POPS   GL280155  -0.574  18.304  15.818 -0.1211  0.1735  0.0533
36181POPS   C1A80156  -0.239  17.929  16.241 -0.0981  0.0300  0.1276
36181POPS   D2A80157  -0.191  17.828  16.720 -0.0210 -0.2645  0.4169
36181POPS   C3A80158  -0.469  17.876  17.111  0.1547  0.1333  0.1877
36181POPS   C4A80159  -0.720  17.940  17.480  0.1700  0.0415  0.0539
36181POPS   C1B80160  -0.637  18.179  16.265 -0.3915  0.0529  0.2660
36181POPS   C2B80161  -0.605  18.181  16.716 -0.2601 -0.0206  0.2926
36181POPS   C3B80162  -0.633  18.370  17.140  0.3227  0.1202 -0.0191
36181POPS   C4B80163  -0.579  18.776  17.342 -0.0507 -0.4157 -0.1593
36182POPS   CNO80164   2.626  31.164  16.116  0.1451 -0.1725  0.0272
36182POPS   PO480165   2.371  31.198  16.444  0.0130  0.1880  0.0896
36182POPS   GL180166   2.355  31.551  16.754 -0.2200  0.2868 -0.1169
36182POPS   GL280167   2.105  31.529  16.765  0.0850  0.1469  0.2833
36182POPS   C1A80168   2.485  31.649  17.179 -0.0412  0.1474  0.1922
36182POPS   D2A80169   2.596  32.039  17.435 -0.2719  0.2050 -0.0493
36182POPS   C3A80170   2.552  31.920  17.886  0.0505  0.3808 -0.0275
36182POPS   C4A80171   2.643  31.933  18.308  0.0969 -0.0098 -0.1997
36182POPS   C1B80172   1.986  31.623  17.233 -0.1611  0.1080 -0.1037
36182POPS   C2B80173   2.234  31.611  17.647  0.2738 -0.2959  0.2058
36182POPS   C3B80174   2.636  31.402  17.646 -0.0631  0.1388 -0.0544
36182POPS   C4B80175   2.951  31.091  17.743 -0.1134 -0.1147  0.1150
36183POPS   CNO80176  10.167  27.427  15.289 -0.0701 -0.3283  0.2654
36183POPS   PO480177   9.860  27.256  15.245 -0.1544  0.0740  0.0595
36183POPS   GL180178   9.880  26.989  15.692 -0.1375  0.2839  0.1211
36183POPS   GL280179   9.666  26.876  15.524  0.0025  0.0090  0.1536
36183POPS   C1A80180   9.885  26.522  15.903  0.3990 -0.1851 -0.1206
36183POPS   D2A80181   9.907  26.112  16.053  0.3155  0.2579  0.0151
36183POPS   C3A80182  10.305  26.014  16.264 -0.2630  0.0029  0.2208
36183POPS   C4A80183  10.545  26.272  16.506  0.1755 -0.1082 -0.1308
36183POPS   C1B80184   9.363  26.652  15.732  0.0114  0.0680  0.1148
36183POPS   C2B80185   9.384  26.212  15.878 -0.2405 -0.0895 -0.1529
36183POPS   C3B80186   9.500  25.821  16.028  0.3023  0.1469 -0.0387
36183POPS   C4B80187   9.704  25.642  16.377  0.0179  0.0814 -0.1085
36184POPS   CNO80188   7.929  29.093  16.196 -0.2218  0.0603 -0.0942
36184POPS   PO480189   8.218  28.878  16.075  0.2861  0.0520 -0.3292
36184POPS   GL180190   8.241  28.807  16.431 -0.2148 -0.1888 -0.1661
36184POPS   GL280191   8.431  28.920  16.588  0.1399  0.2718  0.1001
36184POPS   C1A80192   7.881  28.953  16.744  0.1798  0.0143 -0.3663
36184POPS   D2A80193   7.507  29.186  16.920 -0.2212 -0.0102  0.2079
36184POPS   C3A80194   7.322  29.055  17.323 -0.1554 -0.1316  0.3619
36184POPS   C4A80195   7.221  28.909  17.726 -0.1691  0.1054 -0.2294
36184POPS   C1B80196   8.302  29.209  16.897  0.0601  0.2903 -0.0219
36184POPS   C2B80197   8.036  29.099  17.203 -0.2459 -0.0398 -0.0717
36184POPS   C3B80198   7.764  29.226  17.515 -0.0561 -0.1366  0.0644
36184POPS   C4B80199   7.712  29.227  17.978  0.2922 -0.0852 -0.0633
36185POPS   CNO80200  11.635  17.989  11.943  0.1667 -0.0682  0.1222
36185POPS   PO480201  11.420  18.212  12.142  0.2768 -0.2427 -0.0249
36185POPS   GL180202  11.143  18.475  12.342  0.0935 -0.3400 -0.2147
36185POPS   GL280203  11.325  18.754  12.202  0.0470 -0.0907 -0.0068
36185POPS   C1A80204  11.210  18.737  12.687 -0.0763 -0.1839  0.1787
36185POPS   D2A80205  11.273  19.143  12.772 -0.2094 -0.0082 -0.2759
36185POPS   C3A80206  10.936  19.451  12.640 -0.0122 -0.2482 -0.4317
36185POPS   C4A80207  10.905  19.911  12.585  0.1750  0.0585  0.0552
36185POPS   C1B80208  11.017  19.094  12.235 -0.0900  0.3466  0.2249
36185POPS   C2B80209  10.830  19.477  12.121 -0.1165  0.3747  0.0435
36185POPS   C3B80210  10.814  19.929  12.066  0.1628  0.4995  0.2319
36185POPS   C4B80211  10.884  20.354  11.846  0.1781 -0.3352  0.1400
36186POPS   CNO80212  17.732  22.850  15.869 -0.0693  0.1444 -0.0634
36186POPS   PO480213  17.972  23.100  15.723  0.0279 -0.0999  0.4434
36186POPS   GL180214  18.154  23.186  16.080  0.0514  0.0894  0.1098
36186POPS   GL280215  18.409  22.972  16.011  0.0842  0.1044 -0.3353
36186POPS   C1A80216  18.221  23.264  16.533 -0.0633  0.0592 -0.0729
36186POPS   D2A80217  18.081  23.281  16.991 -0.0930 -0.2811 -0.3485
36186POPS   C3A80218  18.143  22.944  17.353  0.0936  0.0870  0.0586
36186POPS   C4A80219  18.140  22.648  17.685 -0.2619  0.1079  0.1116
36186POPS   C1B80220  18.299  22.774  16.383 -0.3855 -0.2493  0.0292
36186POPS   C2B80221  18.033  22.781  16.795  0.1003 -0.1849 -0.0692
36186POPS   C3B80222  17.783  22.702  17.209 -0.1249  0.1119  0.1325
36186POPS   C4B80223  17.743  22.344  17.483  0.1506 -0.0128  0.0227
36187POPS   CNO80224  14.165  28.182  16.165 -0.2077 -0.0132 -0.1635
36187POPS   PO480225  13.869  28.177  16.383  0.0141  0.1328 -0.0294
36187POPS   GL180226  13.659  28.216  16.725  0.0194 -0.1931  0.1362
36187POPS   GL280227  13.754  28.449  16.828 -0.0200  0.5371 -0.0113
36187POPS   C1A80228  13.843  28.043  17.113  0.0767  0.2481 -0.2326
36187POPS   D2A80229  13.909  28.236  17.505  0.2994  0.0026  0.1726
36187POPS   C3A80230  14.049  28.064  17.908 -0.0758 -0.1464  0.1800
36187POPS   C4A80231  14.255  27.797  18.149  0.3276  0.0306 -0.2279
36187POPS   C1B80232  13.774  28.792  17.182 -0.1213 -0.0545  0.1436
36187POPS   C2B80233  13.669  28.963  17.598  0.1671 -0.1830 -0.1034
36187POPS   C3B80234  13.445  28.871  17.994  0.0458  0.3680  0.0991
36187POPS   C4B80235  13.212  28.663  18.379  0.3261  0.4343 -0.1915
36188POPS   CNO80236  14.297  25.019  10.327 -0.1216 -0.4503  0.0318
36188POPS   PO480237  13.960  25.251  10.335 -0.0479  0.1689 -0.1233
36188POPS   GL180238  13.697  24.935  10.244  0.0477 -0.3191 -0.2556
36188POPS   GL280239  13.441  25.047  10.350 -0.0568 -0.2181  0.2522
36188POPS   C1A80240  13.533  24.801   9.805 -0.0251 -0.3911  0.0598
36188POPS   D2A80241  13.360  24.966   9.392  0.1337  0.1258  0.0106
36188POPS   C3A80242  12.970  25.245   9.209 -0.0943 -0.1691 -0.0621
36188POPS   C4A80243  12.534  25.284   8.971  0.2364 -0.2235 -0.0500
36188POPS   C1B80244  13.110  25.066  10.076  0.0786  0.0142  0.1613
36188POPS   C2B80245  12.883  24.973   9.650 -0.0834  0.0889 -0.0931
36188POPS   C3B80246  12.489  24.979   9.355 -0.0079 -0.2775 -0.4289
36188POPS   C4B80247  12.107  25.166   9.292  0.1910 -0.1799  0.0242
36189POPS   CNO80248  12.668  30.650  16.381  0.0469  0.2242 -0.1444
36189POPS   PO480249  12.500  30.973  16.275  0.3333  0.0424  0.2596
36189POPS   GL180250  12.408  31.118  16.627 -0.2846 -0.1135  0.1502
36189POPS   GL280251  12.216  31.025  16.830  0.1917 -0.1406  0.3211
36189POPS   C1A80252  12.596  31.369  16.970  0.0477  0.0488  0.0048
36189POPS   D2A80253  12.649  31.530  17.435 -0.1448  0.1755 -0.0307
36189POPS   C3A80254  12.493  31.823  17.782  0.2564 -0.2284  0.0839
36189POPS   C4A80255  12.574  31.813  18.279 -0.0434  0.1788 -0.1577
36189POPS   C1B80256  12.331  31.011  17.299 -0.0378  0.0629 -0.0185
36189POPS   C2B80257  12.145  31.038  17.773  0.0727  0.0099 -0.2737
36189POPS   C3B80258  12.001  31.111  18.182 -0.4073  0.1591  0.1361
36189POPS   C4B80259  12.178  31.557  18.364  0.2044  0.1145  0.1979
36190POPS   CNO80260   0.787  24.034  16.061  0.0204 -0.0148  0.3636
36190POPS   PO480261   1.090  23.904  15.939  0.1856 -0.2667  0.3628
36190POPS   GL180262   1.141  23.771  16.328 -0.1201  0.5279  0.0432
36190POPS   GL280263   0.960  23.892  16.530  0.0281  0.0965  0.1146
36190POPS   C1A80264   1.432  23.730  16.744 -0.0069 -0.1241  0.3028
36190POPS   D2A80265   1.419  23.819  17.244 -0.1544  0.1939  0.0614
36190POPS   C3A80266   1.133  24.040  17.555  0.0268 -0.0764 -0.0144
36190POPS   C4A80267   0.945  24.173  17.992  0.2524  0.3326 -0.1785
36190POPS   C1B80268   1.049  23.971  16.964 -0.1111 -0.0795 -0.3427
36190POPS   C2B80269   0.720  23.958  17.263  0.2785 -0.0320 -0.2418
36190POPS   C3B80270   0.574  23.898  17.646 -0.1350 -0.1896  0.1014
36190POPS   C4B80271   0.459  23.883  18.133 -0.2035 -0.2144  0.0332
36191POPS   CNO80272   9.094  27.835  15.504  0.0565  0.2149 -0.1256
36191POPS   PO480273   8.934  27.540  15.326  0.3859  0.1384 -0.1505
36191POPS   GL180274   8.852  27.317  15.649 -0.0671 -0.0312  0.2571
36191POPS   GL280275   9.075  27.329  15.797  0.0240 -0.1152  0.1765
36191POPS   C1A80276   8.907  26.860  15.743 -0.0755  0.0361  0.2148
36191POPS   D2A80277   9.004  26.566  15.357 -0.0090 -0.0021  0.1288
36191POPS   C3A80278   9.421  26.398  15.302 -0.1153 -0.1188  0.2699
36191POPS   C4A80279   9.772  26.191  15.446  0.2642 -0.2001  0.0634
36191POPS   C1B80280   8.931  27.139  16.155 -0.1131 -0.1314 -0.1201
36191POPS   C2B80281   9.067  26.810  16.414  0.0493 -0.0938  0.2148
36191POPS   C3B80282   9.179  26.495  16.715 -0.0990  0.1368  0.0371
36191POPS   C4B80283   9.085  26.179  17.050  0.1250 -0.1102 -0.0844
36192POPS   CNO80284  13.993  27.309  16.133 -0.1971 -0.0579 -0.0964
36192POPS   PO480285  14.176  27.672  16.128  0.0906  0.0168 -0.1529
36192POPS   GL180286  13.987  27.742  16.497  0.0357  0.0425  0.0287
36192POPS   GL280287  14.106  27.474  16.599 -0.2802 -0.3465  0.0688
36192POPS   C1A80288  13.597  27.719  16.723  0.2516  0.1128 -0.1769
36192POPS   D2A80289  13.229  27.481  16.827  0.0629 -0.0202 -0.0830
36192POPS   C3A80290  13.112  27.269  17.205 -0.0104  0.1340  0.3363
36192POPS   C4A80291  13.058  27.446  17.666  0.1447  0.1363  0.1182
36192POPS   C1B80292  13.923  27.086  16.761  0.1477  0.1930 -0.2406
36192POPS   C2B80293  13.729  26.704  16.883  0.0919 -0.0480  0.0027
36192POPS   C3B80294  13.613  26.418  17.218  0.0347 -0.0577 -0.2804
36192POPS   C4B80295  13.540  25.984  17.429 -0.0113 -0.3424 -0.0998
36193POPS   CNO80296  13.726  32.786  16.281 -0.4608  0.3833  0.3069
36193POPS   PO480297  13.982  33.013  16.122  0.2618  0.0405  0.0812
36193POPS   GL180298  14.017  33.282  16.341 -0.0007  0.3252 -0.2397
36193POPS   GL280299  13.687  33.356  16.400  0.1280  0.1896 -0.0148
36193POPS   C1A80300  13.975  33.337  16.815 -0.0446 -0.1304 -0.1075
36193POPS   D2A80301  13.895  33.273  17.263 -0.4108 -0.1533 -0.1599
36193POPS   C3A80302  13.669  33.513  17.644 -0.0007 -0.2741 -0.0827
36193POPS   C4A80303  13.775  33.537  18.064  0.2826 -0.1015  0.0239
36193POPS   C1B80304  13.275  33.667  16.369 -0.1959  0.1359  0.0821
36193POPS   C2B80305  13.169  33.957  16.687 -0.0765 -0.0916  0.0747
36193POPS   C3B80306  13.225  34.131  17.114 -0.0340 -0.2843 -0.2868
36193POPS   C4B80307  13.234  34.282  17.504 -0.3512  0.1138  0.1013
36194POPS   CNO80308   2.770  30.885  16.501  0.0273 -0.2365  0.1784
36194POPS   PO480309   2.767  30.772  16.826  0.2038 -0.2234  0.2095
36194POPS   GL180310   2.772  30.551  17.229 -0.0273 -0.1555 -0.1962
36194POPS   GL280311   2.449  30.571  17.204 -0.1420 -0.1179  0.1789
36194POPS   C1A80312   2.810  30.573  17.693  0.1513 -0.0390  0.2960
36194POPS   D2A80313   2.741  30.641  18.104  0.0453 -0.0732 -0.0946
36194POPS   C3A80314   3.122  30.715  18.319 -0.2233 -0.0346 -0.4588
36194POPS   C4A80315   3.569  30.789  18.317  0.2849  0.2059  0.4727
36194POPS   C1B80316   2.098  30.464  17.446  0.1469  0.0118 -0.0208
36194POPS   C2B80317   2.141  30.435  17.892 -0.1266  0.3721 -0.3352
36194POPS   C3B80318   2.526  30.230  18.053 -0.1495 -0.0864 -0.0993
36194POPS   C4B80319   2.870  29.974  17.882 -0.0852  0.2656 -0.2804
36195POPS   CNO80320  11.046  27.250  15.031 -0.1174  0.1128  0.1777
36195POPS   PO480321  10.878  26.898  15.011  0.0101 -0.1567  0.0439
36195POPS   GL180322  10.623  26.603  15.000  0.0641 -0.4971 -0.2135
36195POPS   GL280323  10.627  26.409  14.783  0.1173 -0.2715 -0.1698
36195POPS   C1A80324  10.525  26.208  15.237 -0.0792 -0.0651 -0.2415
36195POPS   D2A80325  10.157  25.933  15.295  0.0104  0.1905 -0.0850
36195POPS   C3A80326  10.242  25.502  15.479  0.1133 -0.1600  0.2587
36195POPS   C4A80327  10.266  25.086  15.710 -0.2109  0.2294  0.1956
36195POPS   C1B80328  10.788  26.004  14.841  0.1364  0.1630  0.5201
36195POPS   C2B80329  10.612  25.576  14.996 -0.1790  0.0967 -0.0550
36195POPS   C3B80330  10.574  25.124  14.905 -0.0670  0.2079 -0.2131
36195POPS   C4B80331  10.391  24.699  14.907 -0.0351  0.1206  0.0626
36196POPS   CNO80332   1.720  22.764  16.060  0.0015 -0.3125 -0.0877
36196POPS   PO480333   1.652  23.090  15.936 -0.0461 -0.1106 -0.0397
36196POPS   GL180334   1.551  23.205  16.330 -0.2136  0.3344  0.0263
36196POPS   GL280335   1.306  23.341  16.406  0.2273  0.2024 -0.0244
36196POPS   C1A80336   1.687  22.931  16.689 -0.0943  0.0402  0.1414
36196POPS   D2A80337   1.738  22.734  17.187  0.0186  0.1029 -0.2863
36196POPS   C3A80338   1.742  23.025  17.564  0.0757  0.0931 -0.0540
36196POPS   C4A80339   1.554  23.393  17.734 -0.0567 -0.0080 -0.0945
36196POPS   C1B80340   1.080  23.397  16.816 -0.1578 -0.1723 -0.0751
36196POPS   C2B80341   1.045  23.429  17.279  0.2342 -0.1238 -0.0303
36196POPS   C3B80342   0.678  23.322  17.569 -0.2542  0.0591 -0.1508
36196POPS   C4B80343   0.405  23.435  17.963 -0.2256  0.0082  0.2913
36197POPS   CNO80344  10.274  16.576  13.855 -0.0426  0.1620 -0.0247
36197POPS   PO480345  10.157  16.872  14.010  0.0896  0.2923  0.3219
36197POPS   GL180346  10.254  17.240  14.237  0.0188  0.0237  0.1254
36197POPS   GL280347  10.399  17.309  14.013 -0.5984 -0.1473 -0.0134
36197POPS   C1A80348  10.106  17.675  14.262  0.0386  0.0410  0.0289
36197POPS   D2A80349   9.894  17.966  14.450 -0.0947  0.0553 -0.0808
36197POPS   C3A80350   9.771  18.380  14.555 -0.3632  0.0007  0.1526
36197POPS   C4A80351   9.533  18.806  14.629 -0.2010  0.0135 -0.0901
36197POPS   C1B80352  10.626  17.712  13.946 -0.2633  0.1937  0.0648
36197POPS   C2B80353  10.737  18.121  13.804 -0.1193  0.0727  0.0789
36197POPS   C3B80354  10.933  18.539  13.819 -0.0693  0.1032  0.1872
36197POPS   C4B80355  10.765  18.974  13.820 -0.0003  0.2255  0.0738
36198POPS   CNO80356  14.612  26.338  15.147  0.1616  0.1281 -0.1120
36198POPS   PO480357  14.367  26.201  15.400  0.0753  0.0978  0.0360
36198POPS   GL180358  14.243  25.886  15.592  0.0417  0.0118 -0.0504
36198POPS   GL280359  14.091  25.813  15.379 -0.2812  0.0964 -0.3317
36198POPS   C1A80360  14.327  25.705  16.043 -0.0202  0.0364 -0.0527
36198POPS   D2A80361  14.153  25.408  16.329 -0.2968  0.1757 -0.2180
36198POPS   C3A80362  14.159  25.480  16.809  0.1707 -0.0219  0.0421
36198POPS   C4A80363  14.183  25.406  17.238 -0.0194 -0.1169  0.1253
36198POPS   C1B80364  14.043  25.476  15.699  0.3591  0.1110 -0.0065
36198POPS   C2B80365  13.810  25.140  15.881  0.0471  0.1632 -0.1926
36198POPS   C3B80366  13.555  24.797  16.085  0.0708 -0.1865  0.3027
36198POPS   C4B80367  13.571  24.528  16.398  0.0580  0.0775 -0.0469
36199POPS   CNO80368  15.688  16.802  15.848  0.0952 -0.1922 -0.1842
36199POPS   PO480369  15.486  16.497  15.933 -0.1443 -0.1424  0.1360
36199POPS   GL180370  15.516  16.615  16.295 -0.3958  0.1201  0.1885
36199POPS   GL280371  15.783  16.727  16.289 -0.3775 -0.2830  0.2326
36199POPS   C1A80372  15.324  16.388  16.651 -0.4897 -0.1726 -0.0122
36199POPS   D2A80373  15.056  16.403  17.031  0.1865  0.1236 -0.2084
36199POPS   C3A80374  14.639  16.525  17.036  0.1326 -0.0397  0.1447
36199POPS   C4A80375  14.214  16.532  17.079 -0.1852  0.1624 -0.0590
36199POPS   C1B80376  15.564  16.879  16.674  0.1845  0.2465  0.2066
36199POPS   C2B80377  15.306  16.848  17.074 -0.5821 -0.1413  0.0535
36199POPS   C3B80378  14.896  16.786  17.350  0.2234  0.0785 -0.1232
36199POPS   C4B80379  14.472  16.761  17.494  0.2957  0.0546 -0.0580
36200POPS   CNO80380   0.588  31.299  16.331  0.0173  0.1530 -0.1577
36200POPS   PO480381   0.550  31.593  16.544 -0.0355  0.1673 -0.1588
36200POPS   GL180382   0.478  31.572  16.985  0.0861  0.4936  0.2101
36200POPS   GL280383   0.433  31.848  16.991 -0.1266  0.1600 -0.3219
36200POPS   C1A80384   0.054  31.546  17.206 -0.0791  0.2791 -0.0587
36200POPS   D2A80385  -0.276  31.417  17.526  0.2723 -0.1623 -0.1803
36200POPS   C3A80386  -0.307  31.420  17.976 -0.2786  0.1981 -0.0132
36200POPS   C4A80387  -0.304  31.228  18.364  0.0527 -0.0674  0.1451
36200POPS   C1B80388   0.495  31.908  17.508  0.1409 -0.2236  0.1579
36200POPS   C2B80389   0.556  31.961  17.927 -0.2875 -0.0211 -0.2392
36200POPS   C3B80390   0.764  31.876  18.358  0.1132  0.1576  0.1567
36200POPS   C4B80391   0.967  31.785  18.758 -0.2001  0.1821  0.0577
36201POPS   CNO80392   5.437  26.272  15.479 -0.0058 -0.3219  0.2509
36201POPS   PO480393   5.445  25.923  15.665 -0.0382 -0.0532  0.1555
36201POPS   GL180394   5.535  25.881  16.049 -0.1478 -0.1413 -0.3513
36201POPS   GL280395   5.809  25.889  16.074  0.1373 -0.1538 -0.3003
36201POPS   C1A80396   5.427  25.855  16.522  0.1423  0.2015 -0.0183
36201POPS   D2A80397   5.215  25.575  16.927  0.1991  0.0272 -0.0192
36201POPS   C3A80398   4.972  25.149  17.063 -0.3153 -0.2571  0.4160
36201POPS   C4A80399   4.916  25.008  17.480  0.4603  0.3050  0.2490
36201POPS   C1B80400   6.216  25.739  16.304  0.3343 -0.1014  0.0383
36201POPS   C2B80401   6.366  25.474  16.658 -0.0184  0.2315  0.1961
36201POPS   C3B80402   6.484  25.224  16.958  0.0259  0.0433 -0.1860
36201POPS   C4B80403   6.890  25.065  17.119 -0.1283  0.1425  0.1436
36202POPS   CNO80404  13.297  25.853  14.322  0.2180  0.1009 -0.0978
36202POPS   PO480405  13.671  25.677  14.405  0.1980 -0.0260  0.0327
36202POPS   GL180406  13.443  25.395  14.586 -0.1322 -0.3120  0.1649
36202POPS   GL280407  13.653  25.368  14.804  0.0797 -0.0437  0.0160
36202POPS   C1A80408  13.148  25.057  14.500  0.2056  0.0681  0.1467
36202POPS   D2A80409  12.919  24.749  14.277  0.3079  0.2111 -0.0172
36202POPS   C3A80410  12.953  24.316  14.404 -0.0414 -0.2959  0.1474
36202POPS   C4A80411  12.959  23.873  14.534 -0.2639  0.0058  0.1014
36202POPS   C1B80412  13.280  25.142  15.021 -0.0482 -0.0646  0.0813
36202POPS   C2B80413  13.060  24.932  15.395  0.0786  0.2023 -0.0142
36202POPS   C3B80414  13.011  24.915  15.874 -0.0599  0.0580 -0.1089
36202POPS   C4B80415  12.711  24.824  16.191 -0.2138 -0.2861  0.0477
36203POPS   CNO80416   8.237  26.383  14.484  0.0067  0.1003  0.1121
36203POPS   PO480417   8.330  26.764  14.424 -0.0884 -0.2563 -0.1230
36203POPS   GL180418   8.637  26.644  14.286 -0.0710  0.0300  0.2918
36203POPS   GL280419   8.919  26.722  14.302  0.0875 -0.0778  0.0331
36203POPS   C1A80420   8.650  26.192  14.107 -0.0119  0.0906 -0.3459
36203POPS   D2A80421   8.848  25.819  13.917  0.0338 -0.0964  0.3074
36203POPS   C3A80422   9.262  25.562  14.015 -0.0391 -0.2452  0.3079
36203POPS   C4A80423   9.772  25.545  13.895  0.0151 -0.0747 -0.0516
36203POPS   C1B80424   9.157  26.353  14.158  0.2211 -0.1228  0.5442
36203POPS   C2B80425   9.101  25.990  14.356 -0.0355 -0.1318  0.1478
36203POPS   C3B80426   9.247  25.609  14.552  0.1743  0.1512 -0.0052
36203POPS   C4B80427   9.448  25.306  14.887 -0.2039  0.0303 -0.2002
36204POPS   CNO80428   0.500  19.901  15.315  0.0093 -0.0800  0.0545
36204POPS   PO480429   0.382  19.977  15.640 -0.3058  0.1429  0.1404
36204POPS   GL180430   0.203  19.706  15.963 -0.0071  0.1720  0.2998
36204POPS   GL280431   0.309  19.861  16.276  0.0098 -0.1666 -0.0717
36204POPS   C1A80432  -0.195  19.717  16.175 -0.0364 -0.1449  0.1709
36204POPS   D2A80433  -0.236  19.690  16.630  0.0338  0.0255 -0.1173
36204POPS   C3A80434  -0.372  19.238  16.770  0.0361 -0.0920 -0.0230
36204POPS   C4A80435  -0.733  19.135  17.049  0.1621 -0.0169 -0.1172
36204POPS   C1B80436   0.014  20.099  16.528 -0.5481 -0.0478 -0.1186
36204POPS   C2B80437  -0.192  20.288  16.859  0.0026  0.1732  0.1271
36204POPS   C3B80438  -0.317  20.154  17.244 -0.1981  0.2547 -0.0027
36204POPS   C4B80439  -0.559  20.003  17.620  0.1122 -0.0485 -0.0253
36205POPS   CNO80440   1.719  20.322  19.877 -0.1438 -0.0726  0.3435
36205POPS   PO480441   1.994  20.478  19.695 -0.2291  0.1203 -0.1047
36205POPS   GL180442   1.819  20.253  19.382 -0.0111  0.0393 -0.3083
36205POPS   GL280443   1.513  20.183  19.407 -0.2615 -0.0375  0.1485
36205POPS   C1A80444   2.069  20.146  19.011 -0.3289 -0.1533  0.1037
36205POPS   D2A80445   2.125  20.207  18.581 -0.1454 -0.1176  0.0747
36205POPS   C3A80446   2.132  19.920  18.249 -0.1008 -0.4100 -0.1857
36205POPS   C4A80447   1.822  19.766  17.975  0.3023  0.0553  0.0029
36205POPS   C1B80448   1.594  19.960  19.001  0.0251 -0.3894  0.3624
36205POPS   C2B80449   1.782  19.781  18.661  0.2301 -0.0682  0.3325
36205POPS   C3B80450   1.915  19.395  18.418  0.1051  0.1613 -0.0692
36205POPS   C4B80451   1.967  18.967  18.239 -0.0748  0.0008 -0.4392
36206POPS   CNO80452  14.672  32.590  20.315 -0.0344 -0.0281  0.0053
36206POPS   PO480453  14.974  32.781  20.320 -0.0530 -0.0227  0.0321
36206POPS   GL180454  15.170  32.716  19.980 -0.5382  0.1988 -0.2070
36206POPS   GL280455  15.009  32.953  19.795  0.0968 -0.1591  0.0371
36206POPS   C1A80456  15.190  32.609  19.505  0.0094  0.0937  0.0525
36206POPS   D2A80457  15.236  32.363  19.116  0.0573 -0.1545  0.3086
36206POPS   C3A80458  15.556  32.063  18.864  0.0724  0.2108 -0.1297
36206POPS   C4A80459  15.979  31.827  18.831 -0.1826 -0.1666 -0.2396
36206POPS   C1B80460  14.874  33.113  19.429  0.2397  0.1190 -0.1928
36206POPS   C2B80461  14.877  33.249  18.971 -0.0546  0.0759 -0.1646
36206POPS   C3B80462  14.777  33.281  18.515 -0.1446  0.1160  0.5833
36206POPS   C4B80463  14.702  33.208  18.046  0.0670  0.3127 -0.1133
36207POPS   CNO80464   9.857  19.793  17.742 -0.0577 -0.3309  0.2652
36207POPS   PO480465   9.568  19.963  17.557  0.0714  0.1917  0.1468
36207POPS   GL180466   9.306  19.667  17.241  0.3192  0.0751  0.1222
36207POPS   GL280467   9.130  19.515  17.331  0.0828  0.1885 -0.1303
36207POPS   C1A80468   9.393  19.274  16.949 -0.2220  0.2017 -0.1467
36207POPS   D2A80469   9.090  19.023  16.623 -0.3279 -0.0122 -0.0020
36207POPS   C3A80470   8.652  18.913  16.525 -0.3776 -0.0047 -0.3894
36207POPS   C4A80471   8.389  18.517  16.527 -0.3804 -0.1082  0.1824
36207POPS   C1B80472   8.828  19.328  17.089  0.2340 -0.0856 -0.0996
36207POPS   C2B80473   8.711  18.905  17.013  0.0825  0.2202  0.0620
36207POPS   C3B80474   8.785  18.505  16.867 -0.0903  0.2653 -0.0286
36207POPS   C4B80475   8.803  18.079  17.043  0.1644  0.2527  0.1383
36208POPS   CNO80476   7.212  26.807  20.318 -0.0238 -0.1871  0.3948
36208POPS   PO480477   6.990  26.828  19.985  0.1925 -0.2462 -0.0020
36208POPS   GL180478   6.956  27.003  19.631 -0.3680  0.2421  0.0752
36208POPS   GL280479   7.021  26.795  19.441 -0.1552  0.4917 -0.1025
36208POPS   C1A80480   7.185  27.233  19.241  0.2483  0.1837 -0.2820
36208POPS   D2A80481   7.329  27.265  18.806 -0.0019  0.0011 -0.4281
36208POPS   C3A80482   7.185  27.698  18.639  0.1335 -0.0933 -0.1236
36208POPS   C4A80483   6.944  27.851  18.268  0.1003 -0.2526  0.0452
36208POPS   C1B80484   7.097  26.752  18.951 -0.0670  0.0724  0.1923
36208POPS   C2B80485   7.207  26.843  18.549 -0.2158  0.1601  0.1421
36208POPS   C3B80486   7.150  26.657  18.117  0.0366  0.1767 -0.0763
36208POPS   C4B80487   6.903  26.344  17.856 -0.0007 -0.0903  0.3280
36209POPS   CNO80488  14.696  22.543  19.534 -0.0088  0.1910  0.0696
36209POPS   PO480489  14.510  22.835  19.470 -0.3502 -0.1454  0.1109
36209POPS   GL180490  14.603  23.146  19.173 -0.1156 -0.2570  0.0390
36209POPS   GL280491  14.399  23.234  19.010  0.1635  0.1087 -0.2555
36209POPS   C1A80492  14.905  23.245  18.851  0.1250 -0.1080  0.2669
36209POPS   D2A80493  15.004  23.246  18.393 -0.0374 -0.0108  0.2087
36209POPS   C3A80494  14.876  22.924  18.025  0.0613 -0.1108 -0.0433
36209POPS   C4A80495  14.580  22.913  17.651 -0.0674 -0.0771 -0.0389
36209POPS   C1B80496  14.191  23.420  18.670  0.0691 -0.1149  0.2036
36209POPS   C2B80497  14.347  23.665  18.302 -0.3178  0.3374 -0.0750
36209POPS   C3B80498  14.788  23.764  18.118 -0.1230  0.0006  0.0185
36209POPS   C4B80499  15.210  23.838  17.828  0.2582  0.2986 -0.1565
36210POPS   CNO80500  31.342  19.543  19.607 -0.0432 -0.4492 -0.0316
36210POPS   PO480501  31.587  19.792  19.553  0.1467  0.0196  0.2263
36210POPS   GL180502  31.631  19.633  19.232 -0.0170  0.4492  0.0818
36210POPS   GL280503  31.763  19.396  19.158 -0.0181  0.0188  0.0587
36210POPS   C1A80504  31.720  19.717  18.788  0.1583  0.1851  0.0927
36210POPS   D2A80505  31.595  19.512  18.348  0.0276  0.2075  0.1487
36210POPS   C3A80506  31.805  19.410  17.931 -0.5452 -0.2444  0.1561
36210POPS   C4A80507  31.924  19.153  17.576  0.1071 -0.2826 -0.0734
36210POPS   C1B80508  31.838  19.242  18.731  0.1982 -0.0536  0.0552
36210POPS   C2B80509  31.962  19.215  18.295  0.0432 -0.3790 -0.0329
36210POPS   C3B80510  32.177  18.942  18.044 -0.1114 -0.0084 -0.0310
36210POPS   C4B80511  32.508  18.979  17.719 -0.3333  0.2420  0.2061
36211POPS   CNO80512   1.333  18.418  20.033  0.1804  0.3706 -0.0472
36211POPS   PO480513   1.644  18.475  19.808  0.0012  0.0804  0.1040
36211POPS   GL180514   1.766  18.250  19.516 -0.5605  0.4775  0.0470
36211POPS   GL280515   1.990  18.058  19.677 -0.2718 -0.1901 -0.0157
36211POPS   C1A80516   1.706  17.755  19.452 -0.1082  0.0969 -0.1386
36211POPS   D2A80517   1.828  17.426  19.172 -0.4136  0.2188 -0.2183
36211POPS   C3A80518   1.897  16.952  19.241  0.4071 -0.0192 -0.0405
36211POPS   C4A80519   2.135  16.557  19.071 -0.1201  0.1500 -0.1674
36211POPS   C1B80520   2.111  17.988  19.225  0.0821  0.1200  0.1667
36211POPS   C2B80521   2.264  17.679  18.919 -0.1602 -0.2796  0.0651
36211POPS   C3B80522   2.278  17.487  18.477  0.0964 -0.1980  0.3510
36211POPS   C4B80523   2.507  17.155  18.245 -0.1824 -0.0325  0.1125
36212POPS   CNO80524   2.871  18.226  19.994 -0.2335  0.1159 -0.1700
36212POPS   PO480525   2.958  17.886  20.056  0.4005 -0.0954  0.2923
36212POPS   GL180526   2.904  17.701  19.752 -0.0146  0.2642 -0.2550
36212POPS   GL280527   2.567  17.750  19.744 -0.1603 -0.0883 -0.1297
36212POPS   C1A80528   3.265  17.507  19.610  0.0793  0.0606 -0.0903
36212POPS   D2A80529   3.348  17.433  19.148  0.2117  0.1280  0.2101
36212POPS   C3A80530   3.154  17.233  18.723  0.0965  0.0588 -0.0443
36212POPS   C4A80531   2.857  16.891  18.554 -0.0570  0.0212 -0.3984
36212POPS   C1B80532   2.272  17.534  19.399 -0.0779  0.1059 -0.2366
36212POPS   C2B80533   2.328  17.224  19.129  0.3068  0.1294  0.1404
36212POPS   C3B80534   2.390  17.033  18.694  0.1348 -0.0898 -0.3306
36212POPS   C4B80535   2.372  16.695  18.419 -0.0810 -0.3823  0.0271
36213POPS   CNO80536  13.760  16.947  20.035  0.1129 -0.0745 -0.0553
36213POPS   PO480537  13.929  17.077  19.762 -0.1810 -0.0584  0.2057
36213POPS   GL180538  14.128  16.851  19.485 -0.0275  0.1651 -0.1102
36213POPS   GL280539  14.298  16.906  19.315 -0.0488  0.0078  0.0214
36213POPS   C1A80540  14.463  16.717  19.749 -0.4223 -0.1371  0.0867
36213POPS   D2A80541  14.842  16.499  19.772 -0.1406 -0.0955  0.1535
36213POPS   C3A80542  14.978  16.490  19.338 -0.3632  0.2715  0.0403
36213POPS   C4A80543  14.993  16.226  18.911  0.1739  0.3723  0.0967
36213POPS   C1B80544  14.591  16.695  19.023  0.1239 -0.0497  0.1693
36213POPS   C2B80545  14.672  16.565  18.610  0.0111 -0.0210 -0.4762
36213POPS   C3B80546  14.840  16.331  18.262  0.3510  0.0217 -0.2430
36213POPS   C4B80547  14.883  16.074  17.901  0.3540  0.1456  0.3289
36214POPS   CNO80548   3.909  21.840  19.312 -0.3424 -0.0025 -0.4228
36214POPS   PO480549   3.703  21.501  19.330 -0.0588 -0.1590 -0.2455
36214POPS   GL180550   3.642  21.226  19.055  0.1690 -0.0499 -0.3207
36214POPS   GL280551   3.966  21.153  18.902 -0.2548 -0.2025  0.0517
36214POPS   C1A80552   3.613  20.859  18.770  0.2310 -0.1541  0.1451
36214POPS   D2A80553   3.933  20.649  18.573 -0.1800  0.2607  0.0969
36214POPS   C3A80554   3.803  20.310  18.254  0.1775  0.0310 -0.2608
36214POPS   C4A80555   3.659  19.954  18.120 -0.2664  0.0372 -0.1717
36214POPS   C1B80556   3.765  21.463  18.618 -0.0359  0.1270 -0.3311
36214POPS   C2B80557   3.559  21.775  18.369 -0.1198  0.0460 -0.3075
36214POPS   C3B80558   3.217  22.051  18.152 -0.1418  0.2086 -0.0953
36214POPS   C4B80559   2.930  22.252  17.845 -0.1922  0.5447 -0.0685
36215POPS   CNO80560   9.741  32.036  20.353  0.2789  0.0542  0.1143
36215POPS   PO480561   9.395  31.866  20.258  0.1056  0.1412  0.2023
36215POPS   GL180562   9.431  31.750  19.843  0.2184 -0.1062 -0.3096
36215POPS   GL280563   9.280  31.498  19.774  0.0177 -0.0598 -0.2875
36215POPS   C1A80564   9.736  31.614  19.539 -0.1664 -0.4680  0.3566
36215POPS   D2A80565   9.551  31.321  19.316 -0.0594 -0.1226  0.0093
36215POPS   C3A80566   9.687  30.872  19.389  0.0178  0.1649 -0.0433
36215POPS   C4A80567  10.086  30.634  19.462  0.0866 -0.0212  0.2173
36215POPS   C1B80568   8.981  31.661  19.475  0.0918  0.1790  0.2159
36215POPS   C2B80569   8.684  31.997  19.349  0.0799 -0.0180  0.3437
36215POPS   C3B80570   8.466  32.214  19.008  0.0068 -0.1609 -0.0207
36215POPS   C4B80571   8.445  32.682  19.047  0.0772 -0.0470 -0.0060
36216POPS   CNO80572  11.256  27.804  20.688  0.0733  0.3657 -0.1617
36216POPS   PO480573  11.158  28.096  20.408  0.3726  0.2410 -0.1016
36216POPS   GL180574  11.094  28.116  20.004  0.1046 -0.1654  0.0001
36216POPS   GL280575  10.991  28.322  19.890  0.0264  0.3599 -0.1354
36216POPS   C1A80576  10.851  27.863  19.721  0.2070  0.1987 -0.3108
36216POPS   D2A80577  10.387  27.696  19.587 -0.0252  0.0556 -0.4027
36216POPS   C3A80578  10.386  27.494  19.159  0.1320 -0.1029 -0.2234
36216POPS   C4A80579  10.386  27.387  18.718 -0.0901 -0.0264  0.0225
36216POPS   C1B80580  10.630  28.284  19.653  0.2833 -0.0585 -0.2766
36216POPS   C2B80581  10.501  28.044  19.287  0.1166  0.2748  0.1108
36216POPS   C3B80582  10.404  27.859  18.880  0.0309 -0.2145  0.0242
36216POPS   C4B80583  10.128  27.818  18.553 -0.2993 -0.2604  0.2846
36217POPS   CNO80584   9.460  21.910  13.016 -0.3214  0.2409  0.0456
36217POPS   PO480585   9.799  21.765  12.872  0.3831 -0.1710 -0.0073
36217POPS   GL180586   9.664  21.442  12.983 -0.4635  0.2697  0.0968
36217POPS   GL280587   9.841  21.194  13.090  0.1193 -0.1947  0.2662
36217POPS   C1A80588   9.380  21.104  12.796 -0.1668  0.2979 -0.1808
36217POPS   D2A80589   8.999  20.859  12.781 -0.2569 -0.1686  0.2111
36217POPS   C3A80590   8.903  20.710  12.307 -0.0862 -0.2163  0.3415
36217POPS   C4A80591   8.640  20.569  11.956 -0.1060 -0.0845  0.0871
36217POPS   C1B80592   9.591  20.816  13.078  0.2892 -0.2043 -0.0167
36217POPS   C2B80593   9.331  20.504  12.874  0.3235  0.1959  0.0391
36217POPS   C3B80594   8.949  20.408  12.678 -0.1494  0.2680  0.3210
36217POPS   C4B80595   8.910  20.197  12.291 -0.0537 -0.3021  0.5626
36218POPS   CNO80596  14.533  26.690  20.315 -0.0583  0.1960 -0.0468
36218POPS   PO480597  14.305  26.525  20.069  0.1948 -0.0667 -0.1328
36218POPS   GL180598  14.511  26.710  19.899  0.1404 -0.2328 -0.0234
36218POPS   GL280599  14.449  27.027  19.917  0.1715  0.2185 -0.0635
36218POPS   C1A80600  14.511  26.872  19.446 -0.0712  0.3226  0.5703
36218POPS   D2A80601  14.520  26.780  18.969  0.0513  0.0492 -0.1387
36218POPS   C3A80602  14.890  26.754  18.599 -0.1085  0.0348 -0.0103
36218POPS   C4A80603  15.077  27.011  18.282 -0.0707  0.0822  0.2070
36218POPS   C1B80604  14.824  27.174  19.694 -0.0627  0.0333 -0.0802
36218POPS   C2B80605  14.827  27.357  19.316  0.1114 -0.3274  0.2826
36218POPS   C3B80606  14.671  27.352  18.838  0.0127  0.1462  0.0735
36218POPS   C4B80607  14.556  27.631  18.541 -0.2025 -0.1736 -0.1077
36219POPS   CNO80608   0.116  16.743  20.525 -0.2602  0.1050  0.1620
36219POPS   PO480609   0.164  16.937  20.217  0.3501 -0.0076 -0.0780
36219POPS   GL180610   0.362  16.857  19.935  0.0798 -0.0325 -0.0213
36219POPS   GL280611   0.619  16.918  20.056  0.0308 -0.5500 -0.0019
36219POPS   C1A80612   0.277  16.919  19.469 -0.1056 -0.0443  0.2400
36219POPS   D2A80613   0.268  17.006  18.997 -0.3611 -0.1736  0.1572
36219POPS   C3A80614   0.482  16.647  18.819 -0.0621  0.3540 -0.3324
36219POPS   C4A80615   0.627  16.435  18.465  0.1197 -0.0682 -0.1091
36219POPS   C1B80616   0.722  16.817  19.641 -0.0826  0.0553  0.1077
36219POPS   C2B80617   0.811  16.839  19.212 -0.1306  0.0223  0.3127
36219POPS   C3B80618   0.986  16.638  18.869  0.0165 -0.0819  0.0729
36219POPS   C4B80619   1.187  16.426  18.451  0.5706  0.2755  0.1064
36220POPS   CNO80620   2.956  26.322  20.907 -0.0563 -0.1154  0.1332
36220POPS   PO480621   2.819  26.598  20.664 -0.3207  0.3378 -0.0884
36220POPS   GL180622   2.600  26.873  20.404  0.0569 -0.1060  0.1553
36220POPS   GL280623   2.399  26.800  20.213 -0.1160 -0.1834  0.0228
36220POPS   C1A80624   2.640  27.163  20.005  0.0543  0.0374  0.2561
36220POPS   D2A80625   2.838  27.118  19.538 -0.0273  0.0693 -0.1827
36220POPS   C3A80626   2.774  27.298  19.173  0.0199  0.1978  0.2099
36220POPS   C4A80627   2.825  27.103  18.756 -0.1991 -0.0951 -0.1863
36220POPS   C1B80628   2.198  26.994  19.872  0.1737  0.1691 -0.2264
36220POPS   C2B80629   2.305  27.045  19.423 -0.0880 -0.0357  0.2296
36220POPS   C3B80630   2.334  27.201  18.944 -0.1442 -0.2159  0.3218
36220POPS   C4B80631   2.524  27.439  18.590  0.2087  0.2043  0.3350
36221POPS   CNO80632  10.239  22.039  11.071  0.1522 -0.2479 -0.0797
36221POPS   PO480633  10.272  21.757  11.262  0.0475  0.1100  0.6408
36221POPS   GL180634  10.527  21.523  11.339  0.2005 -0.1070  0.0006
36221POPS   GL280635  10.561  21.382  11.067  0.0108  0.2110 -0.1906
36221POPS   C1A80636  10.509  21.090  11.538 -0.2208 -0.0392 -0.2327
36221POPS   D2A80637  10.554  20.776  11.812  0.0427 -0.3225 -0.0001
36221POPS   C3A80638  10.353  20.399  11.967 -0.1172  0.0686 -0.0382
36221POPS   C4A80639  10.293  19.911  11.899 -0.3483 -0.0087 -0.2155
36221POPS   C1B80640  10.413  20.946  11.082  0.2782  0.2313  0.0714
36221POPS   C2B80641  10.145  20.725  11.422 -0.0836  0.1795  0.3116
36221POPS   C3B80642   9.961  20.451  11.706  0.2268 -0.0297 -0.4682
36221POPS   C4B80643   9.590  20.237  11.669 -0.0061  0.0603 -0.0115
36222POPS   CNO80644   3.256  30.633  20.606 -0.0322  0.0885 -0.5488
36222POPS   PO480645   2.957  30.602  20.779 -0.2543 -0.0924  0.1422
36222POPS   GL180646   2.637  30.563  20.540  0.0232 -0.0773 -0.1812
36222POPS   GL280647   2.712  30.493  20.346 -0.1535 -0.0963  0.0084
36222POPS   C1A80648   2.260  30.564  20.325 -0.0361 -0.1996  0.2392
36222POPS   D2A80649   2.067  30.664  19.929  0.0531 -0.1752  0.0688
36222POPS   C3A80650   2.187  30.399  19.588  0.3050 -0.0907  0.2990
36222POPS   C4A80651   2.069  30.051  19.304 -0.0014 -0.2222  0.1223
36222POPS   C1B80652   2.983  30.630  20.018  0.0868  0.1061 -0.2431
36222POPS   C2B80653   2.886  30.478  19.619  0.0041 -0.1029 -0.3451
36222POPS   C3B80654   3.064  30.282  19.243  0.2810 -0.1158 -0.0319
36222POPS   C4B80655   3.418  30.106  19.002  0.2941 -0.0112  0.1632
36223POPS   CNO80656   8.577  21.085  16.311 -0.1586  0.3325 -0.1649
36223POPS   PO480657   8.454  20.797  16.114 -0.3202 -0.0530 -0.0664
36223POPS   GL180658   8.306  20.532  15.833  0.0224 -0.3344  0.1051
36223POPS   GL280659   8.110  20.744  15.723  0.0539 -0.0967 -0.1124
36223POPS   C1A80660   7.964  20.252  15.761  0.1177  0.0409 -0.0041
36223POPS   D2A80661   7.810  19.821  15.614 -0.1113 -0.1626 -0.0590
36223POPS   C3A80662   7.365  19.733  15.513  0.1862 -0.2423  0.0626
36223POPS   C4A80663   7.142  19.318  15.415  0.0505 -0.1186  0.1050
36223POPS   C1B80664   7.822  20.501  15.389  0.2406 -0.2188 -0.1371
36223POPS   C2B80665   7.356  20.552  15.165 -0.1583 -0.1521  0.1271
36223POPS   C3B80666   6.958  20.616  14.947 -0.3088 -0.1396 -0.0541
36223POPS   C4B80667   6.829  20.288  14.703 -0.1169  0.2196  0.0640
36224POPS   CNO80668  12.104  21.900  16.535  0.1377  0.1774 -0.0363
36224POPS   PO480669  11.839  22.150  16.537  0.2812 -0.0766  0.1326
36224POPS   GL180670  12.110  22.236  16.259  0.2219 -0.2634 -0.0785
36224POPS   GL280671  12.062  22.268  15.993  0.1339  0.2651 -0.2067
36224POPS   C1A80672  12.410  22.585  16.101  0.2971  0.0872  0.0268
36224POPS   D2A80673  12.508  22.942  15.801  0.1537 -0.2517 -0.2639
36224POPS   C3A80674  12.365  22.924  15.308 -0.1846 -0.0753  0.0366
36224POPS   C4A80675  12.355  23.053  14.892  0.1073  0.0928 -0.1536
36224POPS   C1B80676  12.452  22.087  16.052 -0.0421  0.4039 -0.1007
36224POPS   C2B80677  12.771  22.018  15.725 -0.1836 -0.1792  0.1639
36224POPS   C3B80678  13.162  22.089  15.936 -0.0169  0.2328 -0.0274
36224POPS   C4B80679  13.421  22.470  15.903 -0.3996  0.1068 -0.1144
36225POPS   CNO80680   5.404  18.383  19.245  0.3251  0.0680  0.0989
36225POPS   PO480681   5.507  18.734  19.073 -0.1107 -0.0869 -0.0807
36225POPS   GL180682   5.233  18.442  18.760  0.1904 -0.2518  0.1252
36225POPS   GL280683   5.036  18.272  18.851 -0.1056 -0.0591 -0.0860
36225POPS   C1A80684   5.141  18.533  18.298 -0.2434  0.3534 -0.0291
36225POPS   D2A80685   5.069  18.295  17.940  0.0053  0.0427  0.3868
36225POPS   C3A80686   4.700  18.513  17.663 -0.0131 -0.0079 -0.1442
36225POPS   C4A80687   4.419  18.677  17.377  0.2532  0.1376  0.0088
36225POPS   C1B80688   5.018  18.072  18.417 -0.2326 -0.1081 -0.0903
36225POPS   C2B80689   4.897  17.701  18.102  0.2882 -0.2056 -0.0392
36225POPS   C3B80690   4.848  17.317  17.772  0.0225  0.0299 -0.3521
36225POPS   C4B80691   5.129  16.902  17.855  0.0675  0.0764  0.1408
36226POPS   CNO80692   1.948  21.781  19.917 -0.0453 -0.1871 -0.1402
36226POPS   PO480693   2.172  21.906  19.674 -0.1200 -0.0168  0.1181
36226POPS   GL180694   2.351  22.117  19.406  0.1912  0.0045  0.0151
36226POPS   GL280695   2.484  22.373  19.492  0.0912 -0.0761  0.0150
36226POPS   C1A80696   2.067  22.133  19.012  0.1110  0.1295 -0.1100
36226POPS   D2A80697   2.049  22.341  18.570 -0.1494 -0.1901  0.0210
36226POPS   C3A80698   1.961  22.314  18.166  0.2784 -0.1853 -0.3241
36226POPS   C4A80699   1.467  22.207  18.012 -0.3639  0.2558 -0.4845
36226POPS   C1B80700   2.505  22.466  19.083 -0.0739 -0.0830 -0.0710
36226POPS   C2B80701   2.536  22.674  18.687 -0.0940 -0.1801 -0.0598
36226POPS   C3B80702   2.354  22.782  18.290  0.1311 -0.2634 -0.3329
36226POPS   C4B80703   2.437  23.022  17.889 -0.2815  0.1154 -0.0789
36227POPS   CNO80704   9.338  28.321  20.603 -0.1635 -0.0671 -0.4057
36227POPS   PO480705   8.997  28.443  20.509 -0.3673 -0.0184 -0.0015
36227POPS   GL180706   9.055  28.571  20.141 -0.3889  0.0802  0.0522
36227POPS   GL280707   8.827  28.736  20.077  0.0880  0.0060  0.1308
36227POPS   C1A80708   9.112  28.403  19.702  0.4988 -0.0402 -0.1135
36227POPS   D2A80709   9.436  28.216  19.476  0.1451  0.3511  0.3598
36227POPS   C3A80710   9.484  28.104  18.997  0.1548  0.0027 -0.0164
36227POPS   C4A80711   9.580  27.766  18.656  0.1914  0.1830  0.0406
36227POPS   C1B80712   8.825  28.838  19.612 -0.2179 -0.1038  0.0495
36227POPS   C2B80713   8.751  28.880  19.167  0.0768 -0.0056 -0.1483
36227POPS   C3B80714   8.843  28.732  18.771  0.0529  0.0553 -0.0737
36227POPS   C4B80715   8.673  28.881  18.396  0.1728  0.0358  0.2610
36228POPS   CNO80716   1.180  21.657  20.226  0.3312 -0.2649  0.0662
36228POPS   PO480717   1.346  21.888  19.974 -0.1959 -0.1666 -0.2341
36228POPS   GL180718   1.424  22.181  19.617  0.0323  0.3291  0.0914
36228POPS   GL280719   1.123  22.258  19.563 -0.0572  0.0303 -0.1490
36228POPS   C1A80720   1.627  22.159  19.143 -0.0567 -0.0620  0.1375
36228POPS   D2A80721   1.555  22.140  18.683  0.2163  0.1650 -0.6081
36228POPS   C3A80722   1.444  21.797  18.391  0.3554  0.2867  0.1428
36228POPS   C4A80723   1.212  21.543  17.953  0.1586  0.1890 -0.0552
36228POPS   C1B80724   1.178  22.017  19.142 -0.3325 -0.0875 -0.1315
36228POPS   C2B80725   1.055  21.876  18.734  0.2144  0.0543  0.0259
36228POPS   C3B80726   1.077  22.122  18.363  0.0708  0.1741 -0.0263
36228POPS   C4B80727   0.717  22.006  18.034  0.0961  0.2068  0.1977
36229POPS   CNO80728  11.678  25.652  19.518  0.0540 -0.3411 -0.2761
36229POPS   PO480729  11.838  25.949  19.370 -0.0686 -0.0478  0.1865
36229POPS   GL180730  11.852  26.140  19.061 -0.2929  0.3011  0.3092
36229POPS   GL280731  12.105  26.355  19.125  0.1782 -0.2942 -0.0544
36229POPS   C1A80732  11.814  26.304  18.631 -0.1211  0.0412 -0.1332
36229POPS   D2A80733  11.978  26.501  18.244  0.0990 -0.5872 -0.1717
36229POPS   C3A80734  11.700  26.559  17.854  0.0745 -0.0485  0.0975
36229POPS   C4A80735  11.557  26.781  17.440 -0.2263 -0.0707 -0.1720
36229POPS   C1B80736  12.179  26.814  18.975 -0.1572  0.1188 -0.0385
36229POPS   C2B80737  12.416  27.101  18.700  0.1562 -0.3510  0.4692
36229POPS   C3B80738  12.764  27.347  18.532 -0.0956  0.1239 -0.4489
36229POPS   C4B80739  13.051  27.167  18.211  0.1864  0.1331  0.0274
36230POPS   CNO80740  13.382  20.186  19.107 -0.1280 -0.1441 -0.0589
36230POPS   PO480741  13.376  19.913  18.876 -0.3737 -0.1362  0.0351
36230POPS   GL180742  13.730  19.746  18.755  0.0160 -0.2206  0.1621
36230POPS   GL280743  13.682  19.629  18.516  0.0832 -0.1823  0.0330
36230POPS   C1A80744  14.137  19.459  18.674  0.2347  0.2905 -0.2492
36230POPS   D2A80745  14.393  19.296  18.343 -0.0639  0.1476  0.1331
36230POPS   C3A80746  14.886  19.434  18.367  0.0278 -0.1193 -0.2137
36230POPS   C4A80747  15.258  19.575  18.661 -0.0867  0.0105 -0.2587
36230POPS   C1B80748  14.013  19.741  18.264  0.0159 -0.0014  0.2409
36230POPS   C2B80749  14.341  19.643  17.949 -0.1233 -0.0885 -0.2088
36230POPS   C3B80750  14.625  19.296  17.793  0.0714 -0.2033  0.3996
36230POPS   C4B80751  14.888  18.983  17.582 -0.0500 -0.2351  0.0855
36231POPS   CNO80752   1.335  30.641  21.202 -0.1754 -0.1367  0.0579
36231POPS   PO480753   1.105  30.413  20.978 -0.1279  0.0335 -0.1354
36231POPS   GL180754   1.161  30.440  20.565  0.1050 -0.1566 -0.0387
36231POPS   GL280755   1.381  30.445  20.432  0.1024  0.1642  0.0754
36231POPS   C1A80756   1.048  30.788  20.276 -0.3445 -0.1583 -0.0447
36231POPS   D2A80757   0.770  31.063  20.010 -0.2003 -0.1679  0.0246
36231POPS   C3A80758   0.901  31.322  19.692 -0.2255  0.1372 -0.0161
36231POPS   C4A80759   1.006  31.616  19.344 -0.1219  0.2294  0.2522
36231POPS   C1B80760   1.323  30.181  20.101 -0.1310 -0.0652  0.0474
36231POPS   C2B80761   1.305  30.031  19.689  0.3721  0.2577 -0.2552
36231POPS   C3B80762   1.310  29.739  19.390  0.1576  0.1695  0.0984
36231POPS   C4B80763   1.131  29.618  18.993 -0.0601  0.2800 -0.1916
36232POPS   CNO80764   9.314  25.636  19.531  0.0789 -0.0062 -0.0463
36232POPS   PO480765   9.070  25.339  19.480 -0.0592  0.1308 -0.0798
36232POPS   GL180766   9.001  25.449  19.104  0.1538  0.0724 -0.1760
36232POPS   GL280767   8.916  25.221  18.831 -0.3643  0.1369  0.0516
36232POPS   C1A80768   9.092  25.824  18.857  0.2521 -0.1057 -0.2671
36232POPS   D2A80769   9.203  26.045  18.448 -0.1313 -0.1907  0.3324
36232POPS   C3A80770   8.968  26.305  18.162  0.1156  0.1458 -0.2578
36232POPS   C4A80771   8.667  26.586  18.033  0.0569 -0.3926  0.1710
36232POPS   C1B80772   9.076  25.467  18.502  0.4136  0.0427  0.3602
36232POPS   C2B80773   8.929  25.693  18.159  0.1537 -0.0585  0.2418
36232POPS   C3B80774   8.852  26.002  17.789  0.4092  0.2185  0.2109
36232POPS   C4B80775   8.989  26.408  17.545 -0.1569  0.1392  0.0149
36233POPS   CNO80776   8.447  19.849  17.780 -0.2382  0.2621  0.1606
36233POPS   PO480777   8.363  19.521  17.693 -0.2574  0.1540  0.0348
36233POPS   GL180778   8.144  19.636  17.233 -0.1884  0.3302  0.1833
36233POPS   GL280779   8.277  19.558  17.032 -0.0476 -0.1363 -0.0644
36233POPS   C1A80780   7.714  19.604  17.128  0.1399  0.0155  0.0301
36233POPS   D2A80781   7.536  19.939  16.822  0.1956  0.1498 -0.1520
36233POPS   C3A80782   7.403  19.996  16.408 -0.2635 -0.0896  0.0734
36233POPS   C4A80783   7.419  19.901  16.005 -0.2230 -0.2734 -0.0279
36233POPS   C1B80784   8.303  19.206  16.776 -0.0461 -0.0607 -0.0230
36233POPS   C2B80785   8.195  18.794  16.850  0.0350 -0.0241 -0.2623
36233POPS   C3B80786   8.382  18.459  17.078 -0.1877 -0.0037 -0.4034
36233POPS   C4B80787   8.536  18.510  17.450 -0.1072 -0.0738 -0.2274
36234POPS   CNO80788   9.798  20.076  17.106 -0.2029 -0.1479 -0.2220
36234POPS   PO480789   9.462  20.043  16.976 -0.1152 -0.1674  0.1361
36234POPS   GL180790   9.484  19.732  16.780  0.0410 -0.0761 -0.0438
36234POPS   GL280791   9.236  19.755  16.584 -0.1341 -0.3995  0.0311
36234POPS   C1A80792   9.722  19.400  16.598  0.1492 -0.1914 -0.0399
36234POPS   D2A80793   9.623  18.983  16.515 -0.2461 -0.3650 -0.3233
36234POPS   C3A80794   9.587  18.676  16.153  0.2449  0.2758  0.0317
36234POPS   C4A80795   9.372  18.396  15.819 -0.2423  0.1009 -0.1328
36234POPS   C1B80796   9.283  19.350  16.263 -0.0960 -0.1509 -0.1532
36234POPS   C2B80797   9.161  18.959  16.086 -0.3868 -0.1835  0.1625
36234POPS   C3B80798   9.036  18.574  16.296 -0.5246 -0.1294  0.0080
36234POPS   C4B80799   8.820  18.241  16.509  0.0431 -0.1588 -0.3317
36235POPS   CNO80800  11.755  29.272  20.501  0.0579  0.1654 -0.0514
36235POPS   PO480801  11.481  29.081  20.301  0.2688 -0.1438  0.1595
36235POPS   GL180802  11.597  29.105  19.925  0.3984  0.1104 -0.3001
36235POPS   GL280803  11.879  29.203  19.837  0.0075  0.2271 -0.1427
36235POPS   C1A80804  11.703  28.788  19.644 -0.1580  0.1114  0.0778
36235POPS   D2A80805  11.807  28.616  19.252  0.2607  0.0914 -0.2565
36235POPS   C3A80806  11.421  28.476  19.048 -0.0283  0.0005  0.1854
36235POPS   C4A80807  11.119  28.567  18.793 -0.2751 -0.1247 -0.0380
36235POPS   C1B80808  11.682  29.434  19.451  0.0483  0.1897  0.2133
36235POPS   C2B80809  11.682  29.481  18.955 -0.2133 -0.0016 -0.3635
36235POPS   C3B80810  11.407  29.285  18.664 -0.0929  0.1193 -0.1934
36235POPS   C4B80811  11.448  28.981  18.320  0.1763  0.3421 -0.0104
36236POPS   CNO80812  15.528  25.277  20.330 -0.2912 -0.1665 -0.2438
36236POPS   PO480813  15.744  25.577  20.242 -0.2458  0.1425 -0.1138
36236POPS   GL180814  15.872  25.772  19.829  0.4892 -0.1522 -0.3115
36236POPS   GL280815  16.169  25.799  19.730  0.2330 -0.2086 -0.1725
36236POPS   C1A80816  15.770  25.656  19.434  0.0828  0.4149 -0.2118
36236POPS   D2A80817  15.535  25.532  19.059  0.0470 -0.1994  0.0897
36236POPS   C3A80818  15.809  25.626  18.655 -0.3534  0.1450  0.0887
36236POPS   C4A80819  16.240  25.840  18.597 -0.0738 -0.2400 -0.2999
36236POPS   C1B80820  15.949  26.142  19.494  0.0510 -0.2481  0.0523
36236POPS   C2B80821  15.737  26.419  19.219  0.2492  0.1275  0.3248
36236POPS   C3B80822  15.720  26.439  18.753 -0.1956  0.1751  0.0626
36236POPS   C4B80823  16.144  26.326  18.427 -0.1332 -0.1064 -0.2987
36237POPS   CNO80824   0.696  17.832  20.655 -0.2303  0.1395 -0.0326
36237POPS   PO480825   0.795  17.703  20.318 -0.3021  0.0473 -0.1866
36237POPS   GL180826   0.792  17.495  19.950  0.3242 -0.0270 -0.0310
36237POPS   GL280827   0.901  17.312  20.010 -0.1133  0.2071  0.5552
36237POPS   C1A80828   0.499  17.396  19.607 -0.1940  0.1374  0.1344
36237POPS   D2A80829   0.635  17.350  19.118  0.0116  0.0516 -0.1516
36237POPS   C3A80830   0.621  17.218  18.673 -0.0302  0.2619 -0.2306
36237POPS   C4A80831   0.909  16.957  18.420 -0.4400 -0.2263 -0.1451
36237POPS   C1B80832   0.982  17.285  19.519  0.1360 -0.2972  0.0647
36237POPS   C2B80833   1.253  17.486  19.228 -0.1104 -0.2329 -0.1733
36237POPS   C3B80834   1.488  17.466  18.820 -0.0194  0.0905  0.1433
36237POPS   C4B80835   1.719  17.449  18.450 -0.3541 -0.0934  0.0208
36238POPS   CNO80836  13.586  16.358  20.108  0.1632 -0.3763  0.1889
36238POPS   PO480837  13.366  16.615  19.945 -0.2004  0.2416 -0.0028
36238POPS   GL180838  13.480  16.568  19.496  0.2418 -0.2103  0.1213
36238POPS   GL280839  13.710  16.797  19.345  0.1167  0.1021 -0.1487
36238POPS   C1A80840  13.584  16.270  19.195  0.3492  0.3525 -0.1894
36238POPS   D2A80841  13.477  16.088  18.758  0.0321 -0.2042 -0.4007
36238POPS   C3A80842  13.609  16.244  18.334  0.2468  0.3414  0.0760
36238POPS   C4A80843  13.945  16.200  18.058 -0.1475 -0.1492  0.1866
36238POPS   C1B80844  13.597  16.675  18.910  0.2040  0.1855 -0.2424
36238POPS   C2B80845  13.731  16.686  18.484 -0.1768  0.0543  0.0717
36238POPS   C3B80846  14.042  16.700  18.140  0.3817 -0.3433 -0.0269
36238POPS   C4B80847  14.358  16.459  18.002  0.1017 -0.1465  0.1174
36239POPS   CNO80848  10.240  16.972  19.331 -0.1260 -0.1113 -0.2319
36239POPS   PO480849  10.609  16.859  19.431  0.3107 -0.0401  0.2503
36239POPS   GL180850  10.528  16.551  19.169 -0.2423  0.1591 -0.2583
36239POPS   GL280851  10.504  16.717  18.956  0.2877 -0.0062 -0.1863
36239POPS   C1A80852  10.637  16.230  18.787  0.0423 -0.3728 -0.0836
36239POPS   D2A80853  10.744  16.105  18.327  0.0853 -0.1297 -0.0306
36239POPS   C3A80854  10.478  15.964  17.941  0.1714 -0.1859 -0.1750
36239POPS   C4A80855  10.342  15.841  17.530  0.0327  0.0434  0.3516
36239POPS   C1B80856  10.519  16.620  18.459  0.4800 -0.0836 -0.0859
36239POPS   C2B80857  10.238  16.294  18.268  0.1041  0.1061  0.0042
36239POPS   C3B80858   9.907  16.132  18.001 -0.3090 -0.2228 -0.2357
36239POPS   C4B80859   9.831  15.993  17.572  0.2947  0.3381  0.2885
36240POPS   CNO80860   1.642  27.041  20.762  0.3034 -0.2079  0.2835
36240POPS   PO480861   1.375  26.961  20.494  0.0707  0.1315  0.0354
36240POPS   GL180862   1.155  27.185  20.262 -0.1894  0.1418  0.1247
36240POPS   GL280863   1.336  27.194  20.060 -0.1261 -0.1325 -0.0634
36240POPS   C1A80864   1.019  27.638  20.146 -0.3068  0.0180 -0.2076
36240POPS   D2A80865   1.110  28.017  19.984  0.1144  0.0861  0.0804
36240POPS   C3A80866   1.320  27.987  19.567 -0.1111  0.2282 -0.0617
36240POPS   C4A80867   1.273  27.956  19.117  0.2319 -0.2090  0.1142
36240POPS   C1B80868   1.195  27.417  19.649 -0.0956  0.1909  0.0535
36240POPS   C2B80869   1.425  27.495  19.202 -0.0158  0.0154 -0.2116
36240POPS   C3B80870   1.322  27.583  18.764 -0.1307 -0.1028  0.2390
36240POPS   C4B80871   1.136  27.850  18.531  0.1252 -0.1424 -0.2122
36241POPS   CNO80872  14.338  22.464  18.844 -0.0383  0.0143 -0.0512
36241POPS   PO480873  14.627  22.684  19.014  0.1264  0.3106  0.2720
36241POPS   GL180874  14.740  22.855  18.699  0.2881  0.2578 -0.0858
36241POPS   GL280875  14.617  22.697  18.509 -0.3074 -0.3373 -0.2374
36241POPS   C1A80876  15.157  22.802  18.421 -0.0229 -0.2038  0.1203
36241POPS   D2A80877  15.462  22.952  18.176  0.0959  0.0961 -0.2394
36241POPS   C3A80878  15.267  23.181  17.902  0.0846 -0.0800 -0.0451
36241POPS   C4A80879  15.227  23.440  17.543  0.4280 -0.1870  0.1362
36241POPS   C1B80880  14.526  23.149  18.377  0.0599 -0.1134  0.2208
36241POPS   C2B80881  14.474  23.305  17.936  0.0404  0.0597  0.0644
36241POPS   C3B80882  14.752  23.394  17.585  0.0197  0.1021  0.0360
36241POPS   C4B80883  14.845  23.842  17.463 -0.1019  0.2145  0.1915
36242POPS   CNO80884   9.335  23.476  14.803 -0.2034  0.0787  0.2541
36242POPS   PO480885   9.004  23.353  14.737 -0.2657 -0.0129 -0.0604
36242POPS   GL180886   8.866  23.659  14.563 -0.2045  0.1188 -0.4165
36242POPS   GL280887   8.570  23.546  14.456  0.1248  0.0405 -0.0818
36242POPS   C1A80888   9.048  24.070  14.760 -0.1006  0.1220 -0.2614
36242POPS   D2A80889   9.410  24.293  14.890 -0.4516 -0.3172  0.0286
36242POPS   C3A80890   9.824  24.568  15.025 -0.2705  0.1580  0.1702
36242POPS   C4A80891  10.119  24.800  15.276  0.1127 -0.3927  0.0536
36242POPS   C1B80892   8.236  23.456  14.158  0.1205 -0.1076 -0.1333
36242POPS   C2B80893   7.791  23.503  13.987 -0.0413  0.2081  0.1622
36242POPS   C3B80894   7.669  23.557  13.510  0.0618 -0.1658  0.0773
36242POPS   C4B80895   7.723  23.703  13.083  0.2999  0.4588 -0.0452
36243POPS   CNO80896   7.411  27.589  20.427  0.4031 -0.2789 -0.2060
36243POPS   PO480897   7.185  27.322  20.331 -0.0781 -0.1652  0.0117
36243POPS   GL180898   7.031  27.464  19.926 -0.4570 -0.1343  0.2500
36243POPS   GL280899   7.237  27.317  19.823 -0.1457 -0.0256 -0.3053
36243POPS   C1A80900   6.710  27.363  19.595  0.0361  0.1217 -0.0902
36243POPS   D2A80901   6.511  27.414  19.138 -0.0706  0.1570 -0.1650
36243POPS   C3A80902   6.935  27.673  19.087  0.0597  0.0348  0.0387
36243POPS   C4A80903   7.154  28.081  19.009 -0.0676 -0.1311 -0.0316
36243POPS   C1B80904   7.215  27.707  19.490 -0.2103  0.2010 -0.0261
36243POPS   C2B80905   7.448  27.685  19.115 -0.0091  0.0316  0.3885
36243POPS   C3B80906   7.894  27.629  18.945  0.1864 -0.2272 -0.0607
36243POPS   C4B80907   8.059  27.503  18.508 -0.1304  0.1143  0.2505
36244POPS   CNO80908   9.053  24.509  19.239 -0.0404 -0.1764  0.2911
36244POPS   PO480909   8.978  24.717  18.913  0.2936 -0.1385 -0.1720
36244POPS   GL180910   8.771  24.852  18.607  0.0957  0.1398  0.0744
36244POPS   GL280911   8.886  24.996  18.354 -0.1116 -0.0643 -0.2182
36244POPS   C1A80912   8.414  24.869  18.332  0.1710 -0.1143  0.0058
36244POPS   D2A80913   8.061  24.878  18.050  0.4793 -0.2103 -0.0747
36244POPS   C3A80914   7.868  24.452  18.089 -0.2541  0.2003 -0.0120
36244POPS   C4A80915   7.722  24.272  18.488 -0.3143  0.0414 -0.3462
36244POPS   C1B80916   8.557  25.297  18.093  0.1329  0.2094 -0.3152
36244POPS   C2B80917   8.515  25.599  17.720  0.0909 -0.1129  0.0406
36244POPS   C3B80918   8.272  25.913  17.495  0.2150  0.1220  0.0639
36244POPS   C4B80919   7.894  25.955  17.176  0.0957 -0.0064  0.2585
36245POPS   CNO80920  12.840  25.691  19.815 -0.0923  0.2481 -0.0998
36245POPS   PO480921  12.592  25.710  19.506  0.0298 -0.0546  0.0857
36245POPS   GL180922  12.471  25.867  19.169 -0.2887  0.3041  0.0936
36245POPS   GL280923  12.321  25.843  18.988  0.0130  0.3359 -0.1701
36245POPS   C1A80924  12.729  25.960  18.811  0.1580  0.0836 -0.2948
36245POPS   D2A80925  12.782  26.153  18.426 -0.4459 -0.0721 -0.0393
36245POPS   C3A80926  12.472  26.386  18.162  0.0069  0.0137  0.0361
36245POPS   C4A80927  12.312  26.691  17.805 -0.1989 -0.4052 -0.2722
36245POPS   C1B80928  12.309  26.192  18.642 -0.3727  0.2444 -0.0984
36245POPS   C2B80929  12.317  26.631  18.588  0.0481  0.3535  0.2121
36245POPS   C3B80930  12.354  26.879  18.260 -0.0592  0.5287 -0.0374
36245POPS   C4B80931  12.068  27.156  18.019 -0.0212 -0.1311 -0.1065
36246POPS   CNO80932   1.791  19.133  20.255 -0.0293 -0.0423 -0.0848
36246POPS   PO480933   1.800  19.179  19.888 -0.1145 -0.4179 -0.0010
36246POPS   GL180934   1.633  19.220  19.565 -0.1121 -0.0091  0.1186
36246POPS   GL280935   1.542  18.920  19.468  0.4608 -0.0885  0.0752
36246POPS   C1A80936   1.565  19.262  19.116  0.0241 -0.1407 -0.0224
36246POPS   D2A80937   1.706  19.080  18.757 -0.2721  0.0625 -0.1329
36246POPS   C3A80938   1.645  18.641  18.595 -0.1546  0.4215  0.0615
36246POPS   C4A80939   1.864  18.295  18.365  0.0011 -0.1979  0.0084
36246POPS   C1B80940   1.366  18.757  19.064  0.0790  0.1058  0.2511
36246POPS   C2B80941   1.216  18.450  18.739  0.0073 -0.0824 -0.0423
36246POPS   C3B80942   1.328  18.293  18.279  0.0739  0.0953 -0.1108
36246POPS   C4B80943   1.557  18.222  17.899  0.1237  0.0476  0.1861
36247POPS   CNO80944  10.577  20.599  16.831 -0.0797  0.2170  0.0100
36247POPS   PO480945  10.619  20.318  16.596  0.2785 -0.2335  0.0175
36247POPS   GL180946  10.663  20.200  16.174 -0.2000  0.1974 -0.2848
36247POPS   GL280947  10.829  20.382  16.152  0.0543  0.0030  0.3594
36247POPS   C1A80948  10.837  19.798  16.024 -0.3235  0.3667  0.1978
36247POPS   D2A80949  11.024  19.396  15.899 -0.1332  0.0463 -0.3725
36247POPS   C3A80950  10.785  19.232  15.590  0.0484  0.3425 -0.4238
36247POPS   C4A80951  10.779  19.352  15.170  0.0034  0.1364 -0.0626
36247POPS   C1B80952  11.039  20.155  15.739  0.0254 -0.0086  0.0684
36247POPS   C2B80953  11.109  19.740  15.513 -0.2389 -0.1393 -0.2685
36247POPS   C3B80954  11.400  19.509  15.233 -0.3564 -0.0424 -0.0923
36247POPS   C4B80955  11.460  19.137  15.012 -0.0046 -0.1382  0.1718
36248POPS   CNO80956  13.801  29.005  20.406  0.2616  0.0520 -0.1644
36248POPS   PO480957  13.533  29.013  20.627  0.0950  0.2423 -0.1198
36248POPS   GL180958  13.327  28.940  20.258  0.0023 -0.3577 -0.2479
36248POPS   GL280959  13.369  29.255  20.158  0.1855 -0.2131  0.2197
36248POPS   C1A80960  13.330  28.798  19.772  0.0644  0.0923  0.0338
36248POPS   D2A80961  13.117  28.440  19.556 -0.2133  0.1229 -0.2889
36248POPS   C3A80962  13.144  28.452  19.105 -0.2340  0.1480  0.0103
36248POPS   C4A80963  12.966  28.408  18.698  0.0622  0.0462  0.1863
36248POPS   C1B80964  13.679  29.158  19.851 -0.3089  0.1712 -0.1342
36248POPS   C2B80965  13.958  28.969  19.429  0.1554 -0.1783  0.2541
36248POPS   C3B80966  13.992  28.553  19.232 -0.4462  0.2152  0.0889
36248POPS   C4B80967  14.216  28.178  19.110 -0.1713 -0.0553 -0.2045
36249POPS   CNO80968  10.448  19.445  18.091  0.0120 -0.2260  0.1582
36249POPS   PO480969  10.579  19.065  17.982 -0.1882 -0.4031  0.1071
36249POPS   GL180970  10.912  18.831  17.834  0.4106 -0.1961  0.2015
36249POPS   GL280971  11.069  18.710  18.037 -0.0196 -0.0476 -0.0530
36249POPS   C1A80972  10.707  18.674  17.467 -0.0242 -0.0707 -0.0157
36249POPS   D2A80973  10.875  18.751  17.085  0.0328  0.1068  0.1062
36249POPS   C3A80974  10.983  18.374  16.879 -0.1567  0.0334  0.0862
36249POPS   C4A80975  10.812  18.125  16.544 -0.2763  0.3090  0.3809
36249POPS   C1B80976  10.970  18.358  17.746  0.1828  0.1266  0.0380
36249POPS   C2B80977  10.852  18.224  17.319  0.1123  0.2150 -0.2519
36249POPS   C3B80978  10.693  17.908  16.974  0.0750  0.1832  0.0987
36249POPS   C4B80979  10.419  17.535  16.882 -0.1311  0.1399 -0.2445
36250POPS   CNO80980  10.195  21.871  14.480 -0.1510  0.2355 -0.2995
36250POPS   PO480981   9.959  21.610  14.321  0.0990  0.1592 -0.1963
36250POPS   GL180982  10.031  21.358  14.080  0.2394 -0.0345 -0.0621
36250POPS   GL280983  10.302  21.180  14.200 -0.3851 -0.1469  0.0112
36250POPS   C1A80984   9.948  20.898  13.961 -0.1149  0.1099  0.2602
36250POPS   D2A80985   9.712  20.484  14.003  0.0200 -0.0811 -0.1078
36250POPS   C3A80986   9.820  20.215  13.649 -0.0269 -0.0921 -0.6412
36250POPS   C4A80987  10.185  20.102  13.406 -0.0320  0.1098  0.3236
36250POPS   C1B80988  10.578  20.818  14.038 -0.0345 -0.0250 -0.2291
36250POPS   C2B80989  10.789  20.462  13.822 -0.1185 -0.0154 -0.1240
36250POPS   C3B80990  11.176  20.422  13.579 -0.0606  0.1656 -0.3187
36250POPS   C4B80991  11.474  20.202  13.796  0.0350 -0.3223  0.1481
36251POPS   CNO80992   4.493  28.849  21.102 -0.1001  0.1909  0.0959
36251POPS   PO480993   4.581  28.830  20.722  0.2252  0.0007 -0.1427
36251POPS   GL180994   4.472  29.031  20.373 -0.1159  0.3154 -0.2241
36251POPS   GL280995   4.612  29.188  20.244  0.0342  0.1300  0.0325
36251POPS   C1A80996   4.252  28.953  19.942 -0.3768  0.1622 -0.0595
36251POPS   D2A80997   3.983  28.689  19.711  0.0237 -0.1815 -0.0402
36251POPS   C3A80998   4.057  28.268  19.467  0.0388  0.1571 -0.2221
36251POPS   C4A80999   4.133  28.084  19.060 -0.0945  0.0282 -0.0511
36251POPS   C1B81000   4.449  29.414  19.835  0.0021  0.1086  0.1627
36251POPS   C2B81001   4.240  29.546  19.438  0.0061 -0.1556  0.0531
36251POPS   C3B81002   4.356  29.778  18.942  0.1960  0.0888  0.2095
36251POPS   C4B81003   4.613  30.008  18.558  0.0592  0.2962 -0.0881
36252POPS   CNO81004  13.427  31.842  20.456 -0.2123 -0.4375 -0.0667
36252POPS   PO481005  13.570  32.184  20.344 -0.0629 -0.1160 -0.1510
36252POPS   GL181006  13.609  31.824  20.053 -0.0058 -0.3342 -0.1078
36252POPS   GL281007  13.844  31.756  20.128 -0.1380  0.0913 -0.0792
36252POPS   C1A81008  13.715  31.627  19.608 -0.0300  0.0617 -0.2088
36252POPS   D2A81009  13.917  31.533  19.196  0.0408 -0.4190  0.2587
36252POPS   C3A81010  13.896  31.868  18.853 -0.2649  0.0745 -0.1115
36252POPS   C4A81011  14.202  31.936  18.526  0.2383 -0.1388  0.0421
36252POPS   C1B81012  13.928  32.036  19.763  0.1642 -0.0545 -0.3256
36252POPS   C2B81013  13.924  32.115  19.300 -0.1065 -0.0977  0.1217
36252POPS   C3B81014  13.777  32.289  18.937  0.1332 -0.1353  0.4651
36252POPS   C4B81015  13.884  32.478  18.526  0.4252 -0.0485 -0.0435
36253POPS   CNO81016  11.301  24.032  18.581  0.0068 -0.4350  0.0395
36253POPS   PO481017  11.447  23.804  18.299  0.0903 -0.0046 -0.0662
36253POPS   GL181018  11.333  24.151  18.115  0.0600  0.1543  0.2513
36253POPS   GL281019  11.328  24.128  17.812  0.0264 -0.0681 -0.0832
36253POPS   C1A81020  11.310  24.579  17.938 -0.3960 -0.0065 -0.0837
36253POPS   D2A81021  11.656  24.840  17.766  0.2799  0.2837 -0.0107
36253POPS   C3A81022  11.852  25.121  17.495 -0.1597 -0.1061 -0.0946
36253POPS   C4A81023  12.163  25.284  17.165  0.3617 -0.0291  0.2261
36253POPS   C1B81024  11.534  24.403  17.552 -0.0177  0.0274 -0.1185
36253POPS   C2B81025  11.627  24.735  17.258 -0.1088 -0.2050 -0.0962
36253POPS   C3B81026  11.869  24.917  16.846  0.0094 -0.1205  0.4647
36253POPS   C4B81027  11.995  25.057  16.422 -0.1091  0.1799  0.0609
36254POPS   CNO81028   1.919  20.971  19.744 -0.1016  0.1265 -0.1007
36254POPS   PO481029   2.100  21.289  19.654 -0.2022  0.0116  0.0505
36254POPS   GL181030   1.972  21.358  19.288 -0.3247  0.1793 -0.3361
36254POPS   GL281031   2.142  21.626  19.253 -0.0982 -0.0709  0.0029
36254POPS   C1A81032   2.204  21.169  18.949  0.1978 -0.1440 -0.2053
36254POPS   D2A81033   2.546  20.919  18.785 -0.0980 -0.2246  0.3771
36254POPS   C3A81034   2.450  20.660  18.464  0.0989  0.2854  0.1475
36254POPS   C4A81035   2.043  20.501  18.196 -0.1103 -0.0902  0.0831
36254POPS   C1B81036   1.822  21.669  18.927 -0.2254 -0.1921 -0.0748
36254POPS   C2B81037   1.958  21.854  18.516 -0.2558 -0.1439 -0.1736
36254POPS   C3B81038   2.233  21.885  18.180 -0.0395 -0.0659  0.0632
36254POPS   C4B81039   2.564  22.008  17.994  0.1886  0.1367 -0.0654
36255POPS   CNO81040   7.820  23.316  18.450  0.0454  0.2659  0.3167
36255POPS   PO481041   7.457  23.323  18.486  0.1525 -0.3538 -0.2092
36255POPS   GL181042   7.123  23.316  18.293  0.4949  0.2633  0.1747
36255POPS   GL281043   7.233  23.374  18.027 -0.0649 -0.1307 -0.0056
36255POPS   C1A81044   6.730  23.287  18.033 -0.0356  0.0160  0.2663
36255POPS   D2A81045   6.254  23.193  17.972 -0.1139  0.0022 -0.1135
36255POPS   C3A81046   5.915  23.293  17.744 -0.0977  0.2380  0.0464
36255POPS   C4A81047   5.635  23.327  17.375  0.1761  0.1579 -0.1295
36255POPS   C1B81048   7.017  23.411  17.624  0.2875 -0.0330  0.3146
36255POPS   C2B81049   6.760  23.600  17.346  0.0441 -0.5816 -0.2016
36255POPS   C3B81050   6.494  23.736  17.016 -0.1757 -0.0334  0.0963
36255POPS   C4B81051   6.155  23.922  16.716 -0.1163 -0.0419  0.2150
36256SAP2    C181052   5.182  17.527  10.023  0.0440  0.0206  0.0605
36256SAP2    C281053   5.374  17.574  10.217 -0.1566  0.0582  0.2538
36256SAP2    C381054   5.253  17.272  10.134  0.1129  0.0138  0.0023
36256SAP2    C481055   5.270  17.457  10.125 -0.2127 -0.1116 -0.3788
36256SAP2   PO481056   5.211  17.695   9.771 -0.0032  0.1880 -0.2273
36256SAP2    P481057   5.452  17.044  10.272 -0.2827  0.0211  0.1959
36256SAP2    P581058   5.623  17.398  10.396  0.2674 -0.2885 -0.3049
36256SAP2   GL181059   5.425  17.846   9.578  0.0158 -0.1520 -0.0660
36256SAP2   GL281060   5.385  18.111   9.712  0.1133 -0.0246 -0.0752
36256SAP2   D1A81061   5.037  18.031   9.362 -0.3657 -0.2074 -0.0420
36256SAP2   D2A81062   5.223  18.124   8.915 -0.0065  0.0952 -0.0776
36256SAP2   D3A81063   5.639  18.008   8.772 -0.0084  0.1856 -0.0183
36256SAP2   D4A81064   5.651  17.629   8.973 -0.2288  0.1598 -0.0037
36256SAP2   C5A81065   5.547  17.255   8.650  0.1290 -0.1884  0.1945
36256SAP2   C1B81066   5.538  18.278   9.304 -0.0452  0.0234  0.0541
36256SAP2   C2B81067   5.470  18.525   8.971 -0.1856 -0.0085  0.1263
36256SAP2   C3B81068   5.435  18.861   8.633 -0.1536 -0.0900 -0.1866
36256SAP2   C4B81069   5.426  19.152   8.249 -0.0389  0.2288  0.5257
36257SAP2    C181070  15.135  21.791  10.360 -0.2284  0.0663  0.3473
36257SAP2    C281071  15.234  21.545  10.441 -0.0064  0.0750  0.1157
36257SAP2    C381072  15.364  21.844  10.525 -0.0512  0.1004  0.0956
36257SAP2    C481073  15.244  21.726  10.442  0.3891 -0.2791  0.0534
36257SAP2   PO481074  14.814  21.808  10.359  0.2552 -0.0740 -0.1843
36257SAP2    P481075  15.525  21.788  10.827 -0.0478  0.0017 -0.1014
36257SAP2    P581076  15.438  21.334  10.438  0.0896 -0.1718  0.1449
36257SAP2   GL181077  14.637  21.762  10.063 -0.1390  0.1827 -0.1239
36257SAP2   GL281078  14.628  21.569   9.846 -0.3468 -0.5256  0.0321
36257SAP2   D1A81079  14.251  21.702  10.266  0.1916 -0.0683 -0.0716
36257SAP2   D2A81080  13.912  21.619   9.934  0.0723 -0.0940  0.0097
36257SAP2   D3A81081  14.193  21.900   9.743  0.0692 -0.3501  0.1788
36257SAP2   D4A81082  13.918  22.055   9.395 -0.1987 -0.1538 -0.0838
36257SAP2   C5A81083  13.515  22.012   9.523  0.1713  0.1101 -0.1239
36257SAP2   C1B81084  14.341  21.440   9.576 -0.1201 -0.0828  0.0189
36257SAP2   C2B81085  14.009  21.569   9.224 -0.0795  0.0900  0.1538
36257SAP2   C3B81086  13.804  21.892   8.946 -0.0676  0.1768  0.0165
36257SAP2   C4B81087  13.927  22.294   8.708  0.3320  0.0395  0.1004
36258SAP2    C181088  12.264  18.313  11.325  0.1826  0.1243 -0.3578
36258SAP2    C281089  12.390  18.383  11.561  0.1067 -0.1549 -0.2304
36258SAP2    C381090  12.545  18.269  11.286  0.1597 -0.2173 -0.1751
36258SAP2    C481091  12.399  18.322  11.391  0.5051 -0.2533  0.6503
36258SAP2   PO481092  12.025  18.522  11.246  0.1116 -0.0729  0.0821
36258SAP2    P481093  12.860  18.334  11.317  0.1966  0.0092  0.1706
36258SAP2    P581094  12.588  18.173  11.766 -0.1069 -0.0173  0.1054
36258SAP2   GL181095  12.018  18.872  11.199 -0.0035  0.1746 -0.0302
36258SAP2   GL281096  12.151  19.086  11.297 -0.0199 -0.1307  0.0875
36258SAP2   D1A81097  11.705  19.009  11.507  0.0478  0.0289  0.0728
36258SAP2   D2A81098  11.320  19.031  11.753 -0.1221  0.0904  0.0011
36258SAP2   D3A81099  11.105  19.438  11.664 -0.0233 -0.0439  0.0650
36258SAP2   D4A81100  11.207  19.891  11.709 -0.0165 -0.1880  0.2198
36258SAP2   C5A81101  11.045  19.796  11.264  0.1390  0.1716  0.2784
36258SAP2   C1B81102  12.036  19.503  11.439 -0.0535  0.3666 -0.1354
36258SAP2   C2B81103  11.814  19.912  11.507 -0.4300  0.3300 -0.0439
36258SAP2   C3B81104  11.504  20.089  11.290 -0.2485 -0.1987  0.0424
36258SAP2   C4B81105  11.167  20.288  11.404  0.3163  0.0870  0.0337
36259SAP2    C181106   3.999  18.567  10.009  0.1430  0.1592  0.0360
36259SAP2    C281107   3.853  18.377  10.148  0.4654 -0.1516 -0.0356
36259SAP2    C381108   3.776  18.704  10.126 -0.1701 -0.2869 -0.0150
36259SAP2    C481109   3.876  18.550  10.094  0.4670 -0.0891 -0.2893
36259SAP2   PO481110   4.095  18.368   9.760  0.2071  0.1844  0.1225
36259SAP2    P481111   3.506  18.767  10.177 -0.1640 -0.2054  0.1026
36259SAP2    P581112   3.776  18.373  10.455  0.0805 -0.0275  0.3982
36259SAP2   GL181113   4.141  18.531   9.497 -0.0559  0.1113 -0.1700
36259SAP2   GL281114   4.223  18.791   9.605  0.0503 -0.2328 -0.0326
36259SAP2   D1A81115   3.979  18.796   9.140  0.0391  0.0599 -0.1577
36259SAP2   D2A81116   4.263  18.447   9.058  0.1623  0.1241 -0.1566
36259SAP2   D3A81117   4.290  18.261   8.615  0.1961  0.0457  0.0856
36259SAP2   D4A81118   4.219  18.436   8.168  0.0834 -0.2583  0.3246
36259SAP2   C5A81119   4.516  18.334   7.860 -0.0217  0.1836 -0.0886
36259SAP2   C1B81120   4.383  19.172   9.405  0.0785  0.0295 -0.1590
36259SAP2   C2B81121   4.663  19.365   9.093 -0.1066 -0.1160 -0.1201
36259SAP2   C3B81122   4.582  19.287   8.619  0.0432  0.0188  0.2625
36259SAP2   C4B81123   4.649  19.230   8.173  0.3651  0.1081  0.1453
36260SAP2    C181124   2.631  18.009   9.372 -0.0816  0.0292  0.0234
36260SAP2    C281125   2.557  17.744   9.338  0.0920 -0.0179  0.0059
36260SAP2    C381126   2.345  18.000   9.385 -0.0739 -0.1699  0.0978
36260SAP2    C481127   2.511  17.918   9.365 -0.0277  0.0311  0.1848
36260SAP2   PO481128   2.846  18.020   9.131  0.1621  0.0602  0.0372
36260SAP2    P481129   2.072  17.910   9.391 -0.0354 -0.1790  0.2612
36260SAP2    P581130   2.368  17.471   9.386  0.2332  0.0230  0.1041
36260SAP2   GL181131   2.710  17.909   8.860  0.0494 -0.0681  0.1037
36260SAP2   GL281132   2.512  18.177   8.970  0.2114  0.1334 -0.0004
36260SAP2   D1A81133   2.803  17.770   8.393 -0.2539 -0.1687 -0.3681
36260SAP2   D2A81134   3.088  17.464   8.214  0.3565 -0.0711  0.2687
36260SAP2   D3A81135   3.356  17.622   7.879 -0.1427  0.0653  0.2466
36260SAP2   D4A81136   3.487  17.216   7.888  0.2970  0.0629  0.1159
36260SAP2   C5A81137   3.537  16.830   8.181 -0.1218  0.2521  0.1741
36260SAP2   C1B81138   2.320  18.079   8.514 -0.2904  0.0821  0.0021
36260SAP2   C2B81139   2.475  17.988   8.046 -0.1351  0.0585  0.2869
36260SAP2   C3B81140   2.710  17.680   7.859  0.2839  0.0203 -0.1918
36260SAP2   C4B81141   2.817  17.631   7.423  0.2983 -0.0693 -0.2275
36261SAP2    C181142   6.901  17.367  10.489 -0.0231  0.0998  0.1432
36261SAP2    C281143   6.911  17.105  10.579  0.0354 -0.0027 -0.1523
36261SAP2    C381144   6.679  17.331  10.668 -0.1745 -0.2339 -0.1014
36261SAP2    C481145   6.830  17.268  10.579  0.7943  0.1415  0.1774
36261SAP2   PO481146   6.976  17.282  10.187  0.4138  0.1595  0.5757
36261SAP2    P481147   6.510  17.145  10.861  0.1860 -0.0199  0.2599
36261SAP2    P581148   6.986  17.049  10.873 -0.1784  0.0402 -0.2038
36261SAP2   GL181149   6.991  17.559  10.022 -0.1720 -0.1772  0.0380
36261SAP2   GL281150   7.057  17.774  10.257 -0.0187  0.0482 -0.2429
36261SAP2   D1A81151   7.250  17.760   9.699 -0.1401  0.0484 -0.0905
36261SAP2   D2A81152   7.276  18.202   9.563 -0.2742  0.0438 -0.0402
36261SAP2   D3A81153   6.923  18.443   9.394 -0.2651 -0.0866  0.0086
36261SAP2   D4A81154   6.767  18.392   8.993  0.0840 -0.0309  0.1443
36261SAP2   C5A81155   6.406  18.143   8.916  0.2962  0.2745  0.2699
36261SAP2   C1B81156   7.045  18.194  10.054  0.1814  0.1783 -0.0082
36261SAP2   C2B81157   6.988  18.614   9.841  0.5044 -0.2401  0.2550
36261SAP2   C3B81158   7.043  19.061   9.765  0.0666 -0.1351  0.0298
36261SAP2   C4B81159   7.185  19.491   9.796  0.3526  0.0929  0.0107
36262SAP2    C181160   3.673  17.168   9.348 -0.2474 -0.3319  0.1585
36262SAP2    C281161   3.829  16.964   9.452  0.0567 -0.0340  0.3086
36262SAP2    C381162   3.629  17.166   9.631 -0.0451 -0.0337  0.1968
36262SAP2    C481163   3.710  17.100   9.477 -0.2191 -0.6349 -0.0738
36262SAP2   PO481164   3.529  17.084   9.022  0.2286  0.2352  0.1258
36262SAP2    P481165   3.575  16.979   9.879 -0.2192 -0.0740 -0.1189
36262SAP2    P581166   3.918  16.747   9.563 -0.1866 -0.1345 -0.0689
36262SAP2   GL181167   3.563  17.384   8.887 -0.0095  0.0185  0.0774
36262SAP2   GL281168   3.560  17.366   8.523  0.1426  0.1735  0.0409
36262SAP2   D1A81169   3.713  17.779   8.703 -0.2212 -0.1274  0.2740
36262SAP2   D2A81170   3.839  18.176   8.890 -0.1982 -0.0464 -0.3235
36262SAP2   D3A81171   3.907  18.602   8.635 -0.0890  0.0191  0.2300
36262SAP2   D4A81172   4.266  18.905   8.770 -0.3598 -0.0780  0.3587
36262SAP2   C5A81173   4.517  18.672   8.457  0.0331  0.3152 -0.0015
36262SAP2   C1B81174   3.744  17.630   8.177  0.3016  0.3451  0.2005
36262SAP2   C2B81175   3.976  17.541   7.798 -0.0696  0.1825 -0.1300
36262SAP2   C3B81176   4.172  17.692   7.376  0.4053  0.0001 -0.1395
36262SAP2   C4B81177   4.528  17.746   7.098  0.1179 -0.1910  0.3279
36263SAP2    C181178   3.061  28.195   8.688 -0.1826 -0.0217 -0.1276
36263SAP2    C281179   2.875  28.164   8.891 -0.3658  0.1805 -0.2605
36263SAP2    C381180   3.023  28.453   8.805 -0.0116  0.0282 -0.1795
36263SAP2    C481181   2.986  28.271   8.795 -0.0007 -1.4199 -0.5349
36263SAP2   PO481182   2.942  28.016   8.452 -0.4229 -0.1609 -0.1339
36263SAP2    P481183   2.844  28.641   8.965  0.0611  0.0336  0.2413
36263SAP2    P581184   2.763  28.196   9.162  0.0630 -0.2115  0.0553
36263SAP2   GL181185   3.035  28.264   8.081 -0.1450  0.0124  0.1541
36263SAP2   GL281186   3.130  27.966   8.012  0.2425  0.0742 -0.3036
36263SAP2   D1A81187   2.951  28.369   7.674  0.1436  0.0196  0.2444
36263SAP2   D2A81188   2.582  28.184   7.455  0.1103 -0.0961 -0.0899
36263SAP2   D3A81189   2.574  27.956   7.046 -0.2065 -0.1165 -0.1644
36263SAP2   D4A81190   3.000  28.065   7.086 -0.1744  0.0806  0.0689
36263SAP2   C5A81191   3.082  28.478   6.988  0.0271 -0.0581 -0.3418
36263SAP2   C1B81192   3.233  27.836   7.593 -0.1740 -0.0513 -0.3772
36263SAP2   C2B81193   3.327  27.723   7.190  0.0934 -0.2006 -0.0798
36263SAP2   C3B81194   3.581  27.724   6.806  0.2301  0.3010 -0.1625
36263SAP2   C4B81195   3.578  27.683   6.333 -0.0395 -0.1718  0.1984
36264SAP2    C181196   6.284  27.033  10.960 -0.0152  0.0918  0.3741
36264SAP2    C281197   6.182  27.285  10.909  0.1579  0.1090  0.0862
36264SAP2    C381198   6.370  27.201  11.175  0.0242  0.2582  0.2302
36264SAP2    C481199   6.279  27.173  11.015 -0.0392 -0.1943  0.2576
36264SAP2   PO481200   6.379  26.916  10.650 -0.2582 -0.0025  0.0894
36264SAP2    P481201   6.368  27.467  11.260  0.1380 -0.0875  0.2120
36264SAP2    P581202   6.034  27.552  11.063 -0.1475  0.1723 -0.3198
36264SAP2   GL181203   6.475  26.689  10.584 -0.1072  0.0821 -0.4896
36264SAP2   GL281204   6.726  26.521  10.624 -0.0661 -0.0711 -0.1722
36264SAP2   D1A81205   6.338  26.431  10.222 -0.0519 -0.3523 -0.0319
36264SAP2   D2A81206   6.389  25.926  10.162  0.1478 -0.2477  0.0480
36264SAP2   D3A81207   6.012  25.928   9.915  0.1939 -0.2802 -0.1164
36264SAP2   D4A81208   6.283  26.083   9.612 -0.0519  0.0974  0.0096
36264SAP2   C5A81209   6.147  25.691   9.359  0.1112  0.0025 -0.0125
36264SAP2   C1B81210   6.743  26.088  10.505 -0.2435  0.2527 -0.1932
36264SAP2   C2B81211   6.862  25.781  10.183 -0.0131 -0.2636 -0.1645
36264SAP2   C3B81212   7.232  25.535   9.954 -0.2360  0.0395 -0.1080
36264SAP2   C4B81213   7.265  25.167   9.754 -0.3098  0.3588  0.0195
36265SAP2    C181214  12.118  30.697   8.924  0.0059 -0.1218 -0.1815
36265SAP2    C281215  11.938  30.872   9.041 -0.0822 -0.3378  0.0137
36265SAP2    C381216  12.257  30.830   9.137 -0.0590 -0.2803 -0.0379
36265SAP2    C481217  12.104  30.800   9.034  0.9101  0.6711  0.0789
36265SAP2   PO481218  12.174  30.650   8.582  0.1898 -0.1202  0.3163
36265SAP2    P481219  12.276  31.041   9.310 -0.1469  0.1178 -0.4930
36265SAP2    P581220  11.753  30.913   9.369  0.3136 -0.1024  0.4334
36265SAP2   GL181221  11.893  30.656   8.342 -0.0370  0.0452 -0.2039
36265SAP2   GL281222  12.043  30.507   8.080  0.0757  0.0643 -0.1480
36265SAP2   D1A81223  11.537  30.761   8.030 -0.1726 -0.0910  0.0741
36265SAP2   D2A81224  11.901  31.058   7.880  0.1822  0.0199 -0.1116
36265SAP2   D3A81225  11.719  30.970   7.481 -0.0829  0.0136  0.1732
36265SAP2   D4A81226  11.756  31.463   7.577 -0.1243 -0.1459  0.3994
36265SAP2   C5A81227  11.667  31.707   7.191  0.0097 -0.1931  0.0132
36265SAP2   C1B81228  11.908  30.409   7.621 -0.2507  0.0199 -0.1284
36265SAP2   C2B81229  11.774  30.505   7.227 -0.1999 -0.2096 -0.1783
36265SAP2   C3B81230  11.528  30.691   6.925 -0.3642 -0.0694  0.0817
36265SAP2   C4B81231  11.543  30.882   6.514  0.0098 -0.0769  0.1837
36266SAP2    C181232   4.145  18.658  10.394 -0.0090 -0.2341  0.3994
36266SAP2    C281233   4.288  18.801  10.583  0.0779 -0.1563  0.2763
36266SAP2    C381234   4.338  18.478  10.505  0.3949 -0.0516  0.0235
36266SAP2    C481235   4.257  18.645  10.494 -0.6477  0.0119  0.3004
36266SAP2   PO481236   4.219  18.916  10.148  0.1897  0.0352  0.2391
36266SAP2    P481237   4.593  18.408  10.633  0.0999  0.1300  0.2395
36266SAP2    P581238   4.469  18.790  10.824 -0.1247 -0.3035 -0.3810
36266SAP2   GL181239   4.446  19.034   9.983  0.0080 -0.0634  0.2267
36266SAP2   GL281240   4.298  19.339   9.982 -0.1682  0.1896  0.0449
36266SAP2   D1A81241   4.767  18.826   9.720  0.0957  0.1938  0.1376
36266SAP2   D2A81242   5.046  18.505   9.571  0.0180  0.0288  0.1967
36266SAP2   D3A81243   5.356  18.782   9.367 -0.0451 -0.0540 -0.1754
36266SAP2   D4A81244   5.831  18.738   9.305  0.0679  0.0131  0.0742
36266SAP2   C5A81245   5.803  19.055   8.960 -0.0478  0.0454  0.1163
36266SAP2   C1B81246   4.605  19.573   9.720  0.3565  0.3976 -0.0436
36266SAP2   C2B81247   5.076  19.735   9.626  0.0311 -0.2176 -0.1018
36266SAP2   C3B81248   5.442  19.628   9.792 -0.1114 -0.0151  0.0150
36266SAP2   C4B81249   5.818  19.789  10.024  0.1673  0.3123  0.2424
36267SAP2    C181250   4.464  17.749   9.805 -0.0325  0.0973  0.2068
36267SAP2    C281251   4.328  17.517   9.874  0.1017  0.0154  0.1997
36267SAP2    C381252   4.433  17.753  10.090 -0.2775  0.2088  0.1808
36267SAP2    C481253   4.408  17.673   9.923 -0.1616 -0.0546 -0.3829
36267SAP2   PO481254   4.373  17.897   9.512 -0.1333 -0.0498  0.1183
36267SAP2    P481255   4.457  17.588  10.308 -0.4716 -0.3791  0.2081
36267SAP2    P581256   4.294  17.280  10.097 -0.0646  0.0073  0.2171
36267SAP2   GL181257   4.584  18.050   9.325  0.0860 -0.1718 -0.1625
36267SAP2   GL281258   4.570  18.330   9.525 -0.0678 -0.2545  0.1309
36267SAP2   D1A81259   4.757  18.187   8.955  0.1516  0.0000  0.2619
36267SAP2   D2A81260   4.675  17.829   8.633  0.0833  0.2281 -0.1414
36267SAP2   D3A81261   4.711  18.115   8.371 -0.1440 -0.1484 -0.1990
36267SAP2   D4A81262   5.027  18.411   8.568 -0.3951  0.0317 -0.2421
36267SAP2   C5A81263   5.466  18.371   8.481 -0.1321 -0.1071  0.1451
36267SAP2   C1B81264   4.700  18.767   9.218  0.1225  0.0287 -0.0128
36267SAP2   C2B81265   4.983  18.793   8.867  0.0482  0.0731  0.2992
36267SAP2   C3B81266   4.987  18.888   8.375 -0.4423 -0.3392 -0.1272
36267SAP2   C4B81267   4.861  18.509   8.151  0.0005 -0.0182  0.0853
36268SAP2    C181268   4.367  24.308  11.070 -0.0945  0.0538 -0.0756
36268SAP2    C281269   4.120  24.292  11.194  0.0111 -0.2439  0.1074
36268SAP2    C381270   4.293  24.575  11.143 -0.2996 -0.0496  0.1061
36268SAP2    C481271   4.260  24.391  11.136  0.1985  0.2452  1.0892
36268SAP2   PO481272   4.395  24.086  10.800  0.1133  0.1502  0.1970
36268SAP2    P481273   4.157  24.836  11.267 -0.1828  0.3236 -0.5229
36268SAP2    P581274   3.799  24.467  11.278 -0.0321  0.0460  0.0950
36268SAP2   GL181275   4.790  24.041  10.971 -0.1636  0.3439  0.2120
36268SAP2   GL281276   4.785  23.772  10.839 -0.1582 -0.2647  0.1380
36268SAP2   D1A81277   4.807  24.326  10.634 -0.1328 -0.1018  0.5192
36268SAP2   D2A81278   4.861  24.035  10.263 -0.1140 -0.1649 -0.0010
36268SAP2   D3A81279   5.127  23.762   9.964 -0.0327  0.0826 -0.0475
36268SAP2   D4A81280   5.578  23.737   9.929  0.0467  0.0947  0.0379
36268SAP2   C5A81281   5.915  23.945  10.128  0.0189 -0.3064 -0.2333
36268SAP2   C1B81282   5.146  23.955  10.721 -0.0638 -0.1574  0.1198
36268SAP2   C2B81283   5.381  24.022  10.336 -0.1180 -0.0485 -0.0448
36268SAP2   C3B81284   5.546  24.266   9.992 -0.0471  0.4188  0.0073
36268SAP2   C4B81285   5.558  24.678   9.938  0.0482 -0.0882  0.3028
36269SAP2    C181286   6.331  31.268   4.227  0.3090 -0.0352  0.1545
36269SAP2    C281287   6.301  31.496   4.072 -0.1210 -0.0982  0.1346
36269SAP2    C381288   6.304  31.181   3.956  0.0940 -0.1231  0.2025
36269SAP2    C481289   6.312  31.315   4.085  0.5663  0.3318  0.5463
36269SAP2   PO481290   6.114  31.304   4.517 -0.4747 -0.1644 -0.0588
36269SAP2    P481291   6.320  31.220   3.649  0.2357 -0.0166 -0.3898
36269SAP2    P581292   6.486  31.644   3.853  0.2268  0.0802 -0.4121
36269SAP2   GL181293   6.166  31.028   4.592 -0.0610  0.1790  0.0270
36269SAP2   GL281294   6.352  30.860   4.764 -0.0107  0.1420 -0.2351
36269SAP2   D1A81295   5.887  30.926   4.941 -0.1500  0.4701  0.1881
36269SAP2   D2A81296   5.680  31.349   4.964  0.1958  0.0240  0.0259
36269SAP2   D3A81297   5.798  31.155   5.362  0.4153  0.0412  0.2545
36269SAP2   D4A81298   6.197  31.284   5.066 -0.2124  0.1360  0.0003
36269SAP2   C5A81299   6.352  31.040   5.409 -0.1622  0.0536  0.1492
36269SAP2   C1B81300   6.707  30.990   5.024 -0.2711  0.2880  0.3527
36269SAP2   C2B81301   6.832  31.214   5.430 -0.0200 -0.0912  0.0792
36269SAP2   C3B81302   6.790  31.253   5.843  0.0749  0.1457  0.0344
36269SAP2   C4B81303   6.546  31.042   6.178 -0.0439  0.1457  0.0820
36270SAP2    C181304  11.546  28.756   4.815 -0.0166  0.0743 -0.0909
36270SAP2    C281305  11.650  28.692   4.567  0.1650 -0.2023  0.0516
36270SAP2    C381306  11.327  28.667   4.654  0.0445  0.2066 -0.2490
36270SAP2    C481307  11.508  28.705   4.679  0.1032  0.0210  0.2205
36270SAP2   PO481308  11.640  29.077   4.921  0.0051 -0.4968  0.0896
36270SAP2    P481309  11.207  28.570   4.368  0.5979  0.4092 -0.2481
36270SAP2    P581310  11.548  28.678   4.232  0.1265 -0.0874  0.1103
36270SAP2   GL181311  11.706  29.103   5.222 -0.2129  0.1366 -0.0678
36270SAP2   GL281312  11.768  28.846   5.342  0.0353  0.0012  0.3756
36270SAP2   D1A81313  11.825  29.222   5.667 -0.2393 -0.0782  0.0320
36270SAP2   D2A81314  11.598  28.857   5.828 -0.1607 -0.4753  0.0597
36270SAP2   D3A81315  11.799  28.957   6.226  0.1485  0.4135 -0.3971
36270SAP2   D4A81316  11.488  29.152   6.431 -0.2716  0.1625  0.0113
36270SAP2   C5A81317  11.592  29.101   6.960  0.3918 -0.0932  0.2148
36270SAP2   C1B81318  11.942  28.567   5.620 -0.1148 -0.0756 -0.2648
36270SAP2   C2B81319  12.010  28.124   5.777 -0.1373 -0.1064  0.0375
36270SAP2   C3B81320  11.945  27.961   6.192  0.0040 -0.2229 -0.2575
36270SAP2   C4B81321  12.083  27.613   6.410 -0.1863 -0.1657  0.0079
36271SAP2    C181322   6.786  22.003   6.626 -0.1496  0.0146  0.0743
36271SAP2    C281323   7.006  22.171   6.622  0.0796 -0.2766  0.0616
36271SAP2    C381324   6.830  22.075   6.352 -0.0556 -0.0590  0.0696
36271SAP2    C481325   6.874  22.083   6.534 -0.7612  0.7686 -0.2618
36271SAP2   PO481326   6.575  22.153   6.876  0.1614  0.0951 -0.1365
36271SAP2    P481327   6.940  22.344   6.195  0.3061 -0.1341 -0.1610
36271SAP2    P581328   7.190  22.306   6.510  0.5572 -0.0423 -0.2512
36271SAP2   GL181329   6.403  21.866   7.060 -0.0115  0.1680 -0.2264
36271SAP2   GL281330   6.181  21.703   7.043 -0.0893  0.1592  0.0288
36271SAP2   D1A81331   6.312  22.018   7.480  0.3334 -0.3971  0.0648
36271SAP2   D2A81332   5.919  22.289   7.491 -0.1129  0.0038  0.1252
36271SAP2   D3A81333   5.483  22.144   7.576  0.0235 -0.0147 -0.0973
36271SAP2   D4A81334   5.081  22.024   7.833  0.1000  0.1485  0.1980
36271SAP2   C5A81335   5.434  21.736   7.994 -0.1952  0.3915  0.1879
36271SAP2   C1B81336   5.766  21.821   7.306 -0.2912 -0.0363 -0.1569
36271SAP2   C2B81337   5.331  21.677   7.526  0.0305 -0.3044  0.0596
36271SAP2   C3B81338   4.959  21.534   7.790  0.1235  0.1026  0.3185
36271SAP2   C4B81339   4.831  21.398   8.181 -0.2322 -0.0057 -0.0299
36272SAP2    C181340   8.136  26.634   5.779  0.0822 -0.2001 -0.1263
36272SAP2    C281341   8.048  26.377   5.728  0.0187 -0.1348 -0.3530
36272SAP2    C381342   8.267  26.548   5.540  0.2108 -0.0927 -0.0958
36272SAP2    C481343   8.150  26.520   5.682  0.3554  0.1972  0.3476
36272SAP2   PO481344   8.221  26.687   6.096 -0.0213  0.0818  0.1163
36272SAP2    P481345   8.358  26.420   5.325 -0.0629 -0.0381 -0.1742
36272SAP2    P581346   7.876  26.275   5.552 -0.1125 -0.0246  0.0175
36272SAP2   GL181347   8.288  26.548   6.344 -0.3003  0.2568  0.1824
36272SAP2   GL281348   7.963  26.536   6.348 -0.1349 -0.0497  0.1596
36272SAP2   D1A81349   8.352  26.855   6.657 -0.0010 -0.0869  0.0234
36272SAP2   D2A81350   8.712  27.160   6.572 -0.0155 -0.0779  0.4259
36272SAP2   D3A81351   8.613  27.394   6.931 -0.1619 -0.0381  0.1284
36272SAP2   D4A81352   8.871  27.327   7.312 -0.1741 -0.2064 -0.1710
36272SAP2   C5A81353   8.843  27.624   7.695 -0.2461 -0.3473 -0.2591
36272SAP2   C1B81354   7.883  26.814   6.747  0.2302  0.1031  0.2372
36272SAP2   C2B81355   7.634  26.894   7.123 -0.2211 -0.0458 -0.2301
36272SAP2   C3B81356   7.717  27.262   7.360  0.0083 -0.0117 -0.0956
36272SAP2   C4B81357   7.797  27.702   7.231  0.2280 -0.1177 -0.0296
36273SAP2    C181358   9.003  24.762   6.843 -0.0993  0.2527 -0.3221
36273SAP2    C281359   9.198  24.824   6.656  0.2724 -0.1260 -0.0790
36273SAP2    C381360   9.019  24.540   6.662 -0.0042  0.0450 -0.0657
36273SAP2    C481361   9.073  24.708   6.720 -0.0955 -0.4505  0.7676
36273SAP2   PO481362   8.909  25.100   6.954  0.0075  0.0443 -0.0746
36273SAP2    P481363   9.065  24.303   6.461 -0.1328 -0.0231 -0.1155
36273SAP2    P581364   9.351  24.744   6.381  0.1671  0.1325  0.1073
36273SAP2   GL181365   8.742  25.285   7.189 -0.0635  0.1114 -0.0057
36273SAP2   GL281366   8.549  25.148   7.329 -0.0430  0.1603  0.1369
36273SAP2   D1A81367   8.777  25.642   7.459  0.3340  0.2199  0.0911
36273SAP2   D2A81368   8.678  25.755   7.865  0.1106 -0.1730  0.1355
36273SAP2   D3A81369   9.020  25.446   7.938 -0.1232 -0.1473 -0.1706
36273SAP2   D4A81370   8.693  25.142   7.863 -0.3038  0.3272  0.0845
36273SAP2   C5A81371   8.570  25.287   8.267  0.2317  0.1459  0.0050
36273SAP2   C1B81372   8.306  25.352   7.649  0.0012  0.2970  0.1146
36273SAP2   C2B81373   8.191  25.585   8.020 -0.2412  0.0604 -0.0726
36273SAP2   C3B81374   7.984  25.719   8.400  0.1751 -0.2583  0.1108
36273SAP2   C4B81375   7.642  25.793   8.693  0.1881 -0.1677  0.3586
36274SAP2    C181376  11.185  22.598   7.873  0.1113 -0.0269  0.3496
36274SAP2    C281377  10.995  22.396   7.886  0.1643 -0.0986  0.0710
36274SAP2    C381378  11.037  22.606   7.627  0.2345  0.1485  0.2797
36274SAP2    C481379  11.072  22.533   7.795 -0.7673  0.0050 -0.6809
36274SAP2   PO481380  11.471  22.468   7.963 -0.4421 -0.4922 -0.5427
36274SAP2    P481381  10.874  22.501   7.389 -0.0406 -0.0064 -0.2468
36274SAP2    P581382  10.752  22.249   7.766 -0.0053 -0.1450  0.0049
36274SAP2   GL181383  11.749  22.611   8.138  0.2577 -0.3151  0.1967
36274SAP2   GL281384  11.904  22.358   8.127  0.1699 -0.0612  0.0960
36274SAP2   D1A81385  12.087  22.949   8.123 -0.4242  0.1855 -0.0815
36274SAP2   D2A81386  12.138  23.375   8.311 -0.5765  0.1358 -0.0203
36274SAP2   D3A81387  12.540  23.604   8.331 -0.0293 -0.1667  0.0868
36274SAP2   D4A81388  12.461  23.796   8.741 -0.1802 -0.0152 -0.0257
36274SAP2   C5A81389  12.091  23.815   8.499 -0.1845 -0.1355 -0.1724
36274SAP2   C1B81390  12.281  22.441   8.295  0.2281 -0.2141 -0.0094
36274SAP2   C2B81391  12.614  22.742   8.266 -0.0366  0.5067 -0.1282
36274SAP2   C3B81392  13.059  22.831   8.510  0.0051  0.1374  0.0172
36274SAP2   C4B81393  13.494  22.750   8.678 -0.1769  0.1792 -0.2738
36275SAP2    C181394   9.697  17.631   5.069 -0.2935 -0.1341  0.0837
36275SAP2    C281395   9.741  17.622   4.796  0.1219 -0.1035  0.1428
36275SAP2    C381396   9.805  17.885   4.994  0.0428 -0.2046  0.3044
36275SAP2    C481397   9.748  17.713   4.953 -0.2073 -0.2134  0.0541
36275SAP2   PO481398   9.818  17.346   5.161 -0.0182  0.0710 -0.0523
36275SAP2    P481399   9.926  18.045   4.740 -0.0456  0.3412  0.0531
36275SAP2    P581400   9.625  17.771   4.578 -0.1260  0.3446 -0.0352
36275SAP2   GL181401  10.019  17.372   5.425 -0.2144  0.6119 -0.0565
36275SAP2   GL281402   9.848  17.421   5.674 -0.1592  0.1466 -0.2949
36275SAP2   D1A81403  10.266  17.353   5.871  0.1841  0.0957  0.1064
36275SAP2   D2A81404   9.951  17.641   6.173  0.1118  0.1418  0.1418
36275SAP2   D3A81405  10.218  17.393   6.414 -0.0528  0.3296  0.2374
36275SAP2   D4A81406   9.882  17.314   6.669 -0.0260  0.1655  0.0041
36275SAP2   C5A81407  10.071  17.220   7.099 -0.0264 -0.1558  0.2362
36275SAP2   C1B81408   9.901  17.115   6.116  0.3077  0.1180  0.1649
36275SAP2   C2B81409   9.925  16.759   6.445  0.0098 -0.2462 -0.1061
36275SAP2   C3B81410   9.927  16.748   6.909 -0.0556  0.1311  0.2040
36275SAP2   C4B81411  10.193  16.437   7.122 -0.1385 -0.0797 -0.1407
36276SAP2    C181412   9.938  21.929  10.722  0.2825 -0.1170 -0.3410
36276SAP2    C281413  10.065  22.152  10.618 -0.1172  0.1578 -0.2622
36276SAP2    C381414   9.840  22.155  10.868 -0.0181 -0.3584 -0.1553
36276SAP2    C481415   9.948  22.079  10.736  0.2453 -0.6567  0.4366
36276SAP2   PO481416  10.145  21.633  10.740 -0.1118 -0.0685 -0.2784
36276SAP2    P481417   9.915  22.435  10.976  0.1666 -0.0833 -0.1245
36276SAP2    P581418  10.092  22.397  10.482  0.0446 -0.0494 -0.0275
36276SAP2   GL181419   9.855  21.396  10.789  0.3158 -0.1458 -0.0585
36276SAP2   GL281420   9.998  21.124  10.755 -0.0986 -0.0543 -0.1348
36276SAP2   D1A81421   9.527  21.198  10.518  0.2529  0.0887 -0.0165
36276SAP2   D2A81422   9.566  20.721  10.763  0.0395  0.0920 -0.1086
36276SAP2   D3A81423  10.005  20.586  10.936 -0.0877 -0.0679 -0.4453
36276SAP2   D4A81424  10.082  20.307  10.624 -0.1305  0.1591 -0.0093
36276SAP2   C5A81425  10.147  20.433  10.176  0.2477  0.2748  0.0074
36276SAP2   C1B81426   9.594  21.143  11.027  0.0540 -0.2143 -0.0137
36276SAP2   C2B81427   9.164  21.043  10.865  0.1872  0.3037 -0.0815
36276SAP2   C3B81428   8.872  21.068  10.512  0.1992 -0.2398  0.0715
36276SAP2   C4B81429   8.563  21.211  10.220 -0.0346 -0.4364  0.0186
36277SAP2    C181430   2.807  29.344   3.794 -0.0934  0.0393  0.0122
36277SAP2    C281431   2.984  29.321   3.583  0.0260  0.0689  0.1078
36277SAP2    C381432   2.662  29.413   3.557  0.0217  0.0080 -0.0680
36277SAP2    C481433   2.817  29.360   3.645 -0.3362  0.2430  0.3082
36277SAP2   PO481434   3.015  29.357   4.064  0.1296 -0.0875 -0.0546
36277SAP2    P481435   2.721  29.494   3.240  0.2054 -0.0235  0.1029
36277SAP2    P581436   3.052  29.184   3.312  0.2804  0.2621 -0.1337
36277SAP2   GL181437   2.774  29.383   4.399 -0.0513  0.5776  0.3248
36277SAP2   GL281438   3.040  29.258   4.487 -0.0861 -0.2494  0.2977
36277SAP2   D1A81439   2.860  29.807   4.470 -0.0004 -0.2595 -0.1462
36277SAP2   D2A81440   2.402  29.872   4.507 -0.0427 -0.0718  0.1459
36277SAP2   D3A81441   2.049  29.785   4.763  0.2367 -0.1986  0.3535
36277SAP2   D4A81442   2.122  29.400   5.033 -0.3953 -0.0107  0.2792
36277SAP2   C5A81443   1.691  29.342   5.118 -0.0470  0.1815  0.0464
36277SAP2   C1B81444   2.975  29.140   4.940 -0.0049  0.2185 -0.1939
36277SAP2   C2B81445   3.122  29.101   5.431 -0.0198 -0.1098 -0.1818
36277SAP2   C3B81446   2.998  28.751   5.726 -0.0753  0.1968 -0.0211
36277SAP2   C4B81447   2.536  28.685   5.725  0.2077 -0.0390 -0.3154
36278SAP2    C181448   5.110  24.644   4.981  0.0723 -0.3958  0.4061
36278SAP2    C281449   5.165  24.760   4.736 -0.2990 -0.2683  0.3761
36278SAP2    C381450   5.190  24.433   4.806 -0.0383 -0.2850  0.2180
36278SAP2    C481451   5.155  24.612   4.841  0.4459  0.0725  0.6588
36278SAP2   PO481452   4.848  24.803   5.106 -0.0495 -0.3619 -0.1416
36278SAP2    P481453   5.310  24.369   4.498 -0.0618 -0.1243  0.0896
36278SAP2    P581454   5.476  24.788   4.589 -0.0293 -0.1869 -0.3649
36278SAP2   GL181455   5.006  25.000   5.382  0.1873  0.1349  0.0418
36278SAP2   GL281456   4.701  24.963   5.575  0.3906 -0.1018  0.0432
36278SAP2   D1A81457   5.165  24.965   5.792 -0.3700 -0.0487 -0.0225
36278SAP2   D2A81458   5.090  25.258   6.090 -0.3209 -0.0978  0.2513
36278SAP2   D3A81459   5.143  25.534   5.714 -0.3073 -0.1753  0.2519
36278SAP2   D4A81460   5.374  25.870   5.501  0.2147 -0.3135 -0.1227
36278SAP2   C5A81461   5.271  26.052   5.986  0.0140 -0.0738 -0.0223
36278SAP2   C1B81462   4.531  25.019   5.990  0.1234  0.0361  0.0823
36278SAP2   C2B81463   4.240  24.954   6.352  0.2148 -0.1166 -0.2675
36278SAP2   C3B81464   3.909  25.067   6.668  0.0953  0.0673 -0.2713
36278SAP2   C4B81465   3.852  25.180   7.117 -0.1125  0.3336 -0.2180
36279SAP2    C181466  11.370  27.903   5.020  0.1719  0.0149 -0.0524
36279SAP2    C281467  11.413  27.801   4.766 -0.0387 -0.0739 -0.0546
36279SAP2    C381468  11.621  28.007   4.931  0.0562  0.0604 -0.3359
36279SAP2    C481469  11.468  27.904   4.905  0.2427  0.3023 -0.3597
36279SAP2   PO481470  11.365  27.726   5.255 -0.1028  0.1118  0.4873
36279SAP2    P481471  11.886  28.035   4.729 -0.0873 -0.0234 -0.0084
36279SAP2    P581472  11.651  27.641   4.643 -0.1437 -0.1355  0.2737
36279SAP2   GL181473  11.337  27.939   5.645 -0.1867 -0.0328 -0.0888
36279SAP2   GL281474  11.634  27.800   5.662  0.0351  0.1344 -0.1176
36279SAP2   D1A81475  11.274  28.370   5.755 -0.1309 -0.0669  0.0672
36279SAP2   D2A81476  10.989  28.738   5.719  0.0316 -0.0119  0.0938
36279SAP2   D3A81477  11.004  29.028   6.079 -0.0827  0.1969 -0.0140
36279SAP2   D4A81478  10.878  28.787   6.514  0.1247  0.1648 -0.2096
36279SAP2   C5A81479  11.170  28.879   6.854 -0.1314 -0.0570 -0.1818
36279SAP2   C1B81480  11.443  27.926   6.126 -0.2513 -0.0119  0.3763
36279SAP2   C2B81481  11.510  28.248   6.469  0.0707  0.6122  0.1618
36279SAP2   C3B81482  11.888  28.566   6.543  0.0020  0.1062  0.0638
36279SAP2   C4B81483  11.972  29.004   6.668  0.1593  0.2359  0.0008
36280SAP2    C181484   6.120  21.780   6.167 -0.2737  0.1402 -0.1411
36280SAP2    C281485   6.106  21.646   5.925  0.1298  0.2378 -0.2255
36280SAP2    C381486   6.306  21.563   6.181 -0.3771  0.0655  0.1306
36280SAP2    C481487   6.177  21.663   6.091 -0.9186 -1.1220 -0.6244
36280SAP2   PO481488   5.873  21.912   6.321  0.1411  0.0748  0.2932
36280SAP2    P481489   6.386  21.301   6.022 -0.2127  0.0378  0.0123
36280SAP2    P581490   6.388  21.712   5.748 -0.1441 -0.1422  0.1140
36280SAP2   GL181491   5.586  21.644   6.448 -0.0326 -0.1724  0.2102
36280SAP2   GL281492   5.290  21.736   6.463  0.1353 -0.2069  0.1227
36280SAP2   D1A81493   5.689  21.946   6.753  0.3264  0.1164 -0.1855
36280SAP2   D2A81494   5.476  21.580   6.963  0.4344 -0.2079  0.0550
36280SAP2   D3A81495   5.046  21.423   7.022  0.0150 -0.2852 -0.0608
36280SAP2   D4A81496   5.203  20.975   7.066  0.0031  0.0052  0.1379
36280SAP2   C5A81497   4.890  20.702   7.263 -0.1552  0.0089 -0.0109
36280SAP2   C1B81498   5.069  21.936   6.761 -0.0668  0.3895  0.2590
36280SAP2   C2B81499   4.631  22.041   6.855  0.0105 -0.1871 -0.2351
36280SAP2   C3B81500   4.306  22.149   7.171  0.0618 -0.1328 -0.0201
36280SAP2   C4B81501   4.226  22.196   7.599 -0.0376  0.0737  0.0233
36281SAP2    C181502  11.717  22.035   7.334 -0.0069  0.0721  0.1260
36281SAP2    C281503  11.585  22.107   7.101  0.0589 -0.0710  0.0438
36281SAP2    C381504  11.457  21.916   7.346  0.1472 -0.3051 -0.0881
36281SAP2    C481505  11.586  22.019   7.260  0.4700 -0.0778 -0.6992
36281SAP2   PO481506  11.938  22.284   7.358 -0.1128  0.0504 -0.2635
36281SAP2    P481507  11.244  21.755   7.207  0.1962  0.0636 -0.2080
36281SAP2    P581508  11.520  22.022   6.820 -0.0858 -0.2552 -0.1385
36281SAP2   GL181509  12.240  22.083   7.521  0.0915  0.1655 -0.0999
36281SAP2   GL281510  12.259  22.221   7.819 -0.0448 -0.1687  0.4470
36281SAP2   D1A81511  12.662  22.212   7.496 -0.3441 -0.0471  0.1434
36281SAP2   D2A81512  13.130  22.319   7.672  0.2379 -0.0594 -0.3702
36281SAP2   D3A81513  13.460  22.176   7.973 -0.2559  0.0499 -0.3584
36281SAP2   D4A81514  13.781  22.457   7.844 -0.0661  0.2626 -0.1940
36281SAP2   C5A81515  13.955  22.084   8.041  0.0788  0.1498 -0.1025
36281SAP2   C1B81516  12.191  21.789   7.948  0.3775  0.0627 -0.1566
36281SAP2   C2B81517  12.234  21.442   8.223  0.0027 -0.0023 -0.2533
36281SAP2   C3B81518  12.434  21.257   8.635 -0.1243 -0.2711 -0.0163
36281SAP2   C4B81519  12.481  21.329   9.068 -0.2391  0.0030  0.1893
36282SAP2    C181520  15.228  31.951  15.914 -0.1813 -0.3173  0.0703
36282SAP2    C281521  15.171  32.086  15.679  0.0820  0.2184  0.2973
36282SAP2    C381522  15.174  31.752  15.715  0.0484  0.1192 -0.4551
36282SAP2    C481523  15.191  31.929  15.769 -0.0421  0.5933 -0.4688
36282SAP2   PO481524  15.153  32.134  16.208  0.0747 -0.1313  0.0564
36282SAP2    P481525  15.080  31.650  15.440  0.0806 -0.1960 -0.0295
36282SAP2    P581526  15.328  32.091  15.440 -0.1763  0.1885 -0.1479
36282SAP2   GL181527  14.907  32.070  16.425  0.3487 -0.2933 -0.3454
36282SAP2   GL281528  14.681  32.167  16.564 -0.0781  0.0820 -0.0793
36282SAP2   D1A81529  15.065  32.104  16.846 -0.0456  0.3272  0.0440
36282SAP2   D2A81530  15.426  32.358  16.950 -0.2425  0.1238 -0.0104
36282SAP2   D3A81531  15.698  32.449  17.289 -0.1825 -0.0321 -0.2066
36282SAP2   D4A81532  15.594  32.527  17.760  0.0710  0.2925 -0.0766
36282SAP2   C5A81533  15.354  32.740  17.441 -0.0797 -0.0264 -0.2539
36282SAP2   C1B81534  14.616  32.243  17.028 -0.0345  0.0470 -0.1619
36282SAP2   C2B81535  14.701  32.381  17.426  0.2599  0.3447 -0.0535
36282SAP2   C3B81536  14.788  32.297  17.890 -0.0653 -0.0200  0.1158
36282SAP2   C4B81537  14.760  32.003  18.278 -0.0666  0.0537  0.0385
36283SAP2    C181538  15.263  21.095  11.337  0.0727 -0.0782  0.0841
36283SAP2    C281539  15.387  20.853  11.391  0.0597 -0.1059 -0.0087
36283SAP2    C381540  15.523  21.107  11.219  0.0011 -0.1228 -0.0806
36283SAP2    C481541  15.391  21.019  11.316  0.2208 -0.6268 -0.0893
36283SAP2   PO481542  15.021  21.145  11.580 -0.1948 -0.1288 -0.0999
36283SAP2    P481543  15.832  20.937  11.259  0.0072 -0.0291 -0.0604
36283SAP2    P581544  15.518  20.596  11.307  0.0582  0.4242 -0.0351
36283SAP2   GL181545  14.758  21.086  11.331  0.0292 -0.0823 -0.0321
36283SAP2   GL281546  14.572  20.891  11.502 -0.1964  0.1269 -0.4132
36283SAP2   D1A81547  14.329  21.243  11.180  0.0252  0.0959 -0.1085
36283SAP2   D2A81548  14.186  21.521  11.447  0.1649  0.0862 -0.2684
36283SAP2   D3A81549  14.279  21.873  11.217 -0.0390 -0.0874 -0.1270
36283SAP2   D4A81550  14.294  22.201  11.556  0.2979 -0.1175 -0.1082
36283SAP2   C5A81551  13.948  21.906  11.697  0.1429 -0.1216 -0.2643
36283SAP2   C1B81552  14.318  21.142  11.782 -0.0131  0.0627 -0.1202
36283SAP2   C2B81553  14.012  21.038  12.096 -0.0588  0.1951  0.1492
36283SAP2   C3B81554  13.763  21.366  12.281  0.0730  0.0996 -0.1165
36283SAP2   C4B81555  13.455  21.677  12.415 -0.0594 -0.0450  0.1447
36284SAP2    C181556   2.374  21.895  15.494  0.0822  0.0157  0.1246
36284SAP2    C281557   2.166  21.712  15.498  0.3075 -0.2572 -0.1510
36284SAP2    C381558   2.176  21.991  15.311  0.0640 -0.0804  0.0932
36284SAP2    C481559   2.239  21.866  15.434  0.4464 -0.8591  0.2311
36284SAP2   PO481560   2.612  21.700  15.548  0.3696  0.1992  0.0692
36284SAP2    P481561   2.030  21.935  15.084  0.2544  0.2541  0.1030
36284SAP2    P581562   1.906  21.587  15.358  0.0418 -0.0913 -0.4836
36284SAP2   GL181563   2.623  21.496  15.857  0.2173  0.0492 -0.1260
36284SAP2   GL281564   2.864  21.692  15.887 -0.0104 -0.2286  0.2589
36284SAP2   D1A81565   2.543  21.694  16.256 -0.0344 -0.1761 -0.0260
36284SAP2   D2A81566   2.679  21.314  16.425  0.2358  0.0405 -0.3353
36284SAP2   D3A81567   2.879  21.570  16.694  0.2243 -0.1159 -0.2364
36284SAP2   D4A81568   2.607  21.979  16.643  0.1275  0.0221 -0.0287
36284SAP2   C5A81569   2.377  21.560  16.816  0.1603  0.0079  0.1530
36284SAP2   C1B81570   3.105  21.763  16.238  0.3303 -0.0212 -0.1391
36284SAP2   C2B81571   3.412  21.588  16.577  0.0055  0.2610 -0.0216
36284SAP2   C3B81572   3.673  21.374  16.871 -0.1517  0.2424  0.2280
36284SAP2   C4B81573   3.536  21.030  17.227 -0.1269 -0.2608  0.0723
36285SAP2    C181574   4.795  26.784   9.887 -0.2020 -0.2327  0.0366
36285SAP2    C281575   4.761  27.056   9.850 -0.1117 -0.2238  0.0176
36285SAP2    C381576   4.725  26.894  10.142  0.0311 -0.1603  0.0716
36285SAP2    C481577   4.760  26.911   9.960  0.3207  0.1127 -0.4598
36285SAP2   PO481578   5.051  26.652   9.694  0.0887 -0.0530  0.0461
36285SAP2    P481579   4.605  27.146  10.300 -0.2809  0.1202 -0.0390
36285SAP2    P581580   4.515  27.240   9.883  0.1425 -0.3545  0.1642
36285SAP2   GL181581   4.991  26.506   9.451  0.1126 -0.1034 -0.1620
36285SAP2   GL281582   4.840  26.416   9.243 -0.2460 -0.0740 -0.2837
36285SAP2   D1A81583   5.206  26.773   9.187 -0.0037 -0.1412  0.1790
36285SAP2   D2A81584   4.868  26.826   8.864 -0.1195 -0.1425  0.1124
36285SAP2   D3A81585   4.963  26.709   8.413  0.1342  0.1075 -0.0286
36285SAP2   D4A81586   5.222  26.366   8.339  0.2451  0.0189  0.1521
36285SAP2   C5A81587   5.323  26.229   7.911  0.1185  0.3157 -0.0503
36285SAP2   C1B81588   5.045  26.393   8.833 -0.0424  0.1486 -0.1230
36285SAP2   C2B81589   5.488  26.279   8.772 -0.1234 -0.0471  0.0272
36285SAP2   C3B81590   5.754  26.130   8.361 -0.2154  0.0061 -0.4455
36285SAP2   C4B81591   6.174  25.909   8.341  0.0131 -0.2398  0.0217
36286SAP2    C181592   1.295  22.750  15.751  0.0848  0.2238  0.1482
36286SAP2    C281593   1.223  22.593  15.534  0.0802  0.0184  0.2943
36286SAP2    C381594   1.443  22.847  15.526  0.1542 -0.0498  0.0710
36286SAP2    C481595   1.320  22.730  15.604  0.0683 -0.2934 -0.2810
36286SAP2   PO481596   1.290  22.481  15.986 -0.1870 -0.3114  0.2675
36286SAP2    P481597   1.573  22.772  15.256  0.0614 -0.4409  0.0848
36286SAP2    P581598   1.134  22.680  15.221 -0.3982  0.1357 -0.0446
36286SAP2   GL181599   1.380  22.616  16.317 -0.3315 -0.1457  0.2541
36286SAP2   GL281600   1.192  22.424  16.416  0.1331 -0.1977  0.1860
36286SAP2   D1A81601   1.090  22.900  16.546 -0.1491 -0.1139 -0.1976
36286SAP2   D2A81602   1.273  22.749  16.905 -0.0976  0.0456 -0.0382
36286SAP2   D3A81603   1.531  22.420  16.797 -0.1805  0.0696 -0.3676
36286SAP2   D4A81604   1.356  22.348  17.237 -0.2058 -0.0049 -0.0165
36286SAP2   C5A81605   1.431  22.560  17.662  0.3820 -0.2367  0.1499
36286SAP2   C1B81606   0.943  22.366  16.806  0.0385  0.3277  0.2476
36286SAP2   C2B81607   0.853  22.589  17.212  0.1376  0.0572 -0.0761
36286SAP2   C3B81608   0.852  22.840  17.607  0.2195 -0.1704  0.4007
36286SAP2   C4B81609   0.728  22.996  18.043 -0.3118  0.0565  0.2169
36287SAP2    C181610  14.406  32.074  15.839  0.0672 -0.1515 -0.1623
36287SAP2    C281611  14.166  32.193  15.767  0.0552  0.0167  0.1371
36287SAP2    C381612  14.269  31.887  15.671 -0.2097  0.0018 -0.1123
36287SAP2    C481613  14.281  32.051  15.759  0.1845  0.3878  0.1406
36287SAP2   PO481614  14.459  32.122  16.123  0.1053 -0.0333 -0.1643
36287SAP2    P481615  14.132  31.783  15.491  0.2654 -0.2656 -0.0174
36287SAP2    P581616  14.219  32.249  15.412  0.0449  0.3274 -0.3110
36287SAP2   GL181617  14.177  32.115  16.334 -0.1478  0.1682  0.1487
36287SAP2   GL281618  14.191  32.045  16.577 -0.0352 -0.0630  0.0972
36287SAP2   D1A81619  13.941  32.439  16.579 -0.1550 -0.0680  0.2046
36287SAP2   D2A81620  14.128  32.868  16.653  0.2234 -0.1078 -0.0057
36287SAP2   D3A81621  13.679  32.933  16.881 -0.2479  0.0253  0.2782
36287SAP2   D4A81622  13.654  32.733  17.339 -0.0251  0.1004  0.2692
36287SAP2   C5A81623  13.907  32.874  17.696  0.1299 -0.1706 -0.0862
36287SAP2   C1B81624  14.070  32.112  16.944 -0.0633  0.1382 -0.0264
36287SAP2   C2B81625  13.933  32.301  17.289 -0.0004  0.2464 -0.2461
36287SAP2   C3B81626  14.232  32.260  17.597  0.1381  0.3723 -0.2951
36287SAP2   C4B81627  14.335  32.216  18.036 -0.1039 -0.0615  0.2815
36288SAP2    C181628   0.800  23.406  15.614 -0.1566 -0.1357 -0.1140
36288SAP2    C281629   0.689  23.388  15.361 -0.0129 -0.1414 -0.1779
36288SAP2    C381630   1.016  23.429  15.427 -0.0562 -0.0823  0.0068
36288SAP2    C481631   0.835  23.408  15.467 -0.0874  0.4379  0.0476
36288SAP2   PO481632   0.592  23.236  15.844  0.0129 -0.0122 -0.0667
36288SAP2    P481633   1.068  23.628  15.185  0.0531 -0.3373 -0.3026
36288SAP2    P581634   0.636  23.498  15.159 -0.3101 -0.3039  0.0938
36288SAP2   GL181635   0.799  23.136  16.069  0.0671 -0.1196  0.1113
36288SAP2   GL281636   0.619  22.952  16.220  0.0403 -0.2078 -0.1768
36288SAP2   D1A81637   0.703  23.412  16.435  0.0413 -0.0037 -0.1611
36288SAP2   D2A81638   0.397  23.169  16.630  0.0509  0.1317  0.2824
36288SAP2   D3A81639   0.642  22.767  16.754  0.2695  0.2473  0.3747
36288SAP2   D4A81640   0.823  23.050  17.072 -0.2496  0.0756  0.3761
36288SAP2   C5A81641   0.537  23.417  17.055  0.1659 -0.0365 -0.0186
36288SAP2   C1B81642   0.668  22.513  16.327  0.2892 -0.3293 -0.0811
36288SAP2   C2B81643   0.732  22.043  16.468 -0.0241 -0.1424  0.1582
36288SAP2   C3B81644   0.824  21.766  16.836 -0.2550  0.0103 -0.1519
36288SAP2   C4B81645   0.838  21.420  17.140 -0.2240  0.0066  0.1464
36289SAP2    C181646   9.880  27.211  14.120 -0.1259 -0.3117  0.1116
36289SAP2    C281647  10.119  27.249  13.986 -0.2412  0.3278  0.0558
36289SAP2    C381648  10.071  27.301  14.314 -0.2091 -0.2439  0.1626
36289SAP2    C481649  10.024  27.254  14.140  0.0252 -0.6180  0.4238
36289SAP2   PO481650   9.740  27.018  13.956  0.2872  0.4563  0.0169
36289SAP2    P481651  10.361  27.357  14.438  0.0293  0.2465  0.1226
36289SAP2    P581652  10.283  27.531  13.914 -0.1942  0.0308  0.1244
36289SAP2   GL181653   9.618  26.885  14.168  0.0994  0.0886  0.0584
36289SAP2   GL281654   9.424  26.866  14.338  0.2556  0.3421  0.0114
36289SAP2   D1A81655   9.512  26.614  13.843 -0.1803  0.1443  0.1480
36289SAP2   D2A81656   9.200  26.355  13.631  0.0351  0.1218  0.1518
36289SAP2   D3A81657   9.264  25.880  13.636  0.0919 -0.4179 -0.0802
36289SAP2   D4A81658   9.568  26.112  13.917  0.1975 -0.0353  0.3852
36289SAP2   C5A81659   9.999  26.041  13.690  0.2527  0.1724 -0.0138
36289SAP2   C1B81660   9.337  26.515  14.632  0.1524 -0.3336  0.0454
36289SAP2   C2B81661   9.235  26.135  14.799 -0.1702 -0.2611  0.2783
36289SAP2   C3B81662   9.118  25.730  15.027 -0.1398 -0.0021 -0.2794
36289SAP2   C4B81663   8.817  25.553  15.341  0.0030 -0.3578 -0.1034
36290SAP2    C181664   9.370  27.541  14.577 -0.0345 -0.1698 -0.1456
36290SAP2    C281665   9.526  27.719  14.432  0.1069 -0.0269  0.1708
36290SAP2    C381666   9.326  27.801  14.690 -0.1179 -0.2799  0.0824
36290SAP2    C481667   9.407  27.687  14.567 -0.7362  0.0273  0.3644
36290SAP2   PO481668   9.629  27.314  14.551 -0.0811  0.3008 -0.1277
36290SAP2    P481669   9.462  28.053  14.763  0.0697  0.0553 -0.0686
36290SAP2    P581670   9.367  27.947  14.222  0.3519  0.1640  0.0709
36290SAP2   GL181671   9.696  27.097  14.767  0.0794 -0.1500  0.3663
36290SAP2   GL281672   9.835  26.923  14.611  0.1636  0.0525  0.0316
36290SAP2   D1A81673   9.645  26.743  15.022  0.0321 -0.2818 -0.0993
36290SAP2   D2A81674   9.722  26.296  14.854 -0.2280  0.3540  0.0957
36290SAP2   D3A81675  10.085  26.105  14.705 -0.2760 -0.2871 -0.2083
36290SAP2   D4A81676  10.173  26.485  14.968 -0.0374  0.1295 -0.4185
36290SAP2   C5A81677  10.076  26.564  15.442 -0.1224  0.1784 -0.0105
36290SAP2   C1B81678   9.734  26.478  14.342 -0.0644  0.0258 -0.0724
36290SAP2   C2B81679   9.639  26.029  14.403 -0.2342 -0.0974  0.0019
36290SAP2   C3B81680   9.602  25.809  14.821 -0.2832  0.0234 -0.1035
36290SAP2   C4B81681   9.756  25.586  15.173  0.0905 -0.0274  0.1363
36291SAP2    C181682  14.644  24.884  14.363 -0.2069  0.1511 -0.1635
36291SAP2    C281683  14.913  24.951  14.347 -0.1733  0.1428  0.2502
36291SAP2    C381684  14.733  24.807  14.102  0.2776 -0.1386  0.0725
36291SAP2    C481685  14.764  24.881  14.270 -0.0269  0.1641  0.0001
36291SAP2   PO481686  14.498  25.174  14.518 -0.0527  0.2700  0.3793
36291SAP2    P481687  14.977  24.796  13.891 -0.0828  0.0110  0.1694
36291SAP2    P581688  15.169  24.993  14.248  0.1839  0.1029  0.2700
36291SAP2   GL181689  14.278  25.134  14.742 -0.2466  0.0954 -0.1072
36291SAP2   GL281690  14.017  25.057  14.699 -0.2838  0.0915  0.2870
36291SAP2   D1A81691  14.113  25.469  15.025 -0.1182  0.3115 -0.1143
36291SAP2   D2A81692  13.979  25.145  15.278  0.3473 -0.0189  0.1317
36291SAP2   D3A81693  13.692  25.480  15.302 -0.0680 -0.0752 -0.1306
36291SAP2   D4A81694  13.374  25.242  15.577  0.0171  0.0546  0.5203
36291SAP2   C5A81695  13.616  24.869  15.506  0.4767 -0.1726  0.4282
36291SAP2   C1B81696  13.699  24.816  14.936 -0.1355  0.0362  0.1075
36291SAP2   C2B81697  13.424  24.569  15.152  0.0686 -0.1022  0.1875
36291SAP2   C3B81698  13.168  24.403  15.485 -0.1325  0.0967 -0.0812
36291SAP2   C4B81699  12.709  24.273  15.400 -0.1361 -0.1536  0.0584
36292SAP2    C181700   5.779  18.488  11.912  0.0194 -0.1056  0.4108
36292SAP2    C281701   5.592  18.284  11.919 -0.0876 -0.0190  0.1654
36292SAP2    C381702   5.923  18.244  11.956 -0.0849 -0.2703 -0.1015
36292SAP2    C481703   5.765  18.339  11.929  0.5026 -0.0112 -0.7842
36292SAP2   PO481704   5.733  18.813  12.023  0.1291 -0.1854 -0.1685
36292SAP2    P481705   5.947  17.929  11.899 -0.1792  0.1651  0.1042
36292SAP2    P581706   5.532  18.038  11.865  0.2220  0.1664  0.2114
36292SAP2   GL181707   5.953  18.905  11.741  0.0545 -0.3605  0.1148
36292SAP2   GL281708   6.197  18.864  11.976  0.0256 -0.1334  0.0909
36292SAP2   D1A81709   5.857  19.259  11.531  0.0772 -0.0600 -0.1295
36292SAP2   D2A81710   5.849  19.686  11.304  0.1350 -0.2853  0.0550
36292SAP2   D3A81711   6.313  19.677  11.336 -0.0561  0.0371  0.0648
36292SAP2   D4A81712   6.343  20.115  11.365 -0.0462  0.0254  0.2245
36292SAP2   C5A81713   5.945  20.182  11.642  0.0933  0.0864 -0.0060
36292SAP2   C1B81714   6.453  19.144  12.272  0.0735  0.3028  0.0905
36292SAP2   C2B81715   6.934  19.151  12.284 -0.1344  0.2157  0.3827
36292SAP2   C3B81716   7.427  19.127  12.359  0.0524 -0.1051 -0.1977
36292SAP2   C4B81717   7.772  19.329  12.491 -0.1810  0.2118 -0.1430
36293SAP2    C181718  11.171  17.397  12.945  0.1097  0.1081  0.3577
36293SAP2    C281719  11.335  17.224  12.804  0.0227  0.3515 -0.0582
36293SAP2    C381720  11.061  17.134  12.976  0.0351  0.0635 -0.1832
36293SAP2    C481721  11.189  17.252  12.908  0.6240  0.0270 -0.0806
36293SAP2   PO481722  11.092  17.646  12.715 -0.4316  0.2477 -0.0135
36293SAP2    P481723  10.998  16.869  12.932  0.2397  0.2871 -0.1799
36293SAP2    P581724  11.401  16.908  12.766  0.1845  0.0133  0.0613
36293SAP2   GL181725  11.048  17.886  12.957  0.4763  0.2508  0.2989
36293SAP2   GL281726  11.109  17.847  13.228 -0.0515  0.2726  0.0376
36293SAP2   D1A81727  11.198  18.259  12.796  0.0520 -0.0410  0.0288
36293SAP2   D2A81728  11.556  18.133  12.999 -0.3583 -0.4015 -0.0708
36293SAP2   D3A81729  11.575  18.656  13.051  0.0596  0.0302 -0.0571
36293SAP2   D4A81730  11.148  18.647  13.269  0.0081 -0.1457 -0.1936
36293SAP2   C5A81731  11.339  18.285  13.424  0.0606  0.0187  0.1122
36293SAP2   C1B81732  10.808  18.184  13.280 -0.2264  0.1964 -0.1894
36293SAP2   C2B81733  10.606  18.490  13.478  0.0027  0.1865 -0.0001
36293SAP2   C3B81734  10.494  18.907  13.349 -0.1681  0.0397  0.1395
36293SAP2   C4B81735  10.352  19.299  13.500 -0.0602 -0.1834  0.1577
36294SAP2    C181736   2.270  30.229  16.557  0.1645  0.4179  0.0292
36294SAP2    C281737   2.358  30.088  16.336 -0.0739 -0.0944  0.2451
36294SAP2    C381738   2.194  30.381  16.327  0.1785  0.0417 -0.2321
36294SAP2    C481739   2.274  30.233  16.407  0.3466  0.0695  0.1261
36294SAP2   PO481740   2.476  30.272  16.784 -0.0313  0.0784 -0.0373
36294SAP2    P481741   2.244  30.425  16.047  0.1689  0.1975  0.2423
36294SAP2    P581742   2.309  29.918  16.136 -0.1649  0.1934  0.0805
36294SAP2   GL181743   2.466  30.117  17.040 -0.1002  0.1111  0.1357
36294SAP2   GL281744   2.572  29.890  17.114  0.1375  0.0748  0.1105
36294SAP2   D1A81745   2.528  30.233  17.524  0.1082  0.1580  0.1026
36294SAP2   D2A81746   3.012  30.183  17.473 -0.2062 -0.2093  0.0804
36294SAP2   D3A81747   3.206  29.805  17.431 -0.0200 -0.0734  0.1064
36294SAP2   D4A81748   2.963  29.520  17.760  0.1077  0.0915 -0.1983
36294SAP2   C5A81749   3.050  29.070  17.909  0.1531 -0.1762 -0.1430
36294SAP2   C1B81750   2.569  29.666  17.526  0.1764 -0.3016 -0.2152
36294SAP2   C2B81751   2.500  29.719  17.952  0.1423 -0.1569  0.0368
36294SAP2   C3B81752   2.655  29.881  18.402  0.2127  0.0207  0.2006
36294SAP2   C4B81753   2.473  29.967  18.804 -0.3622 -0.1664 -0.1657
36295SAP2    C181754   9.038  21.396  15.747 -0.3263  0.1984 -0.1182
36295SAP2    C281755   8.826  21.444  15.918 -0.0112  0.0986  0.3159
36295SAP2    C381756   9.103  21.632  15.894 -0.1306  0.2210 -0.2379
36295SAP2    C481757   8.989  21.491  15.853 -0.4322 -0.1749 -0.0124
36295SAP2   PO481758   8.864  21.247  15.497 -0.0773 -0.2609 -0.2585
36295SAP2    P481759   9.008  21.897  16.105  0.1295  0.2061 -0.1087
36295SAP2    P581760   8.679  21.568  16.119  0.0020  0.2145  0.4301
36295SAP2   GL181761   8.558  21.271  15.365 -0.0442 -0.3642  0.0917
36295SAP2   GL281762   8.377  20.998  15.345 -0.1711 -0.2977  0.2638
36295SAP2   D1A81763   8.120  21.468  15.424  0.0996 -0.0672  0.1214
36295SAP2   D2A81764   7.742  21.497  15.214 -0.0001  0.0080  0.4498
36295SAP2   D3A81765   7.766  21.328  14.761  0.3998  0.2081  0.0693
36295SAP2   D4A81766   8.147  21.151  14.889  0.1195  0.0391 -0.0531
36295SAP2   C5A81767   8.144  20.839  14.595  0.1588  0.1566  0.1260
36295SAP2   C1B81768   8.237  20.665  15.087  0.0576 -0.0099  0.2794
36295SAP2   C2B81769   7.865  20.392  14.908  0.0684 -0.0665  0.1671
36295SAP2   C3B81770   7.663  20.117  14.594  0.1447  0.0227  0.1209
36295SAP2   C4B81771   7.698  20.038  14.108  0.0521 -0.1457 -0.2017
36296SAP2    C181772   2.482  18.950  20.281  0.0557 -0.4983 -0.0746
36296SAP2    C281773   2.660  18.949  20.493 -0.0030 -0.1641 -0.0175
36296SAP2    C381774   2.338  18.854  20.510 -0.1043  0.1901  0.1381
36296SAP2    C481775   2.493  18.917  20.428  0.6355 -0.3725  1.4075
36296SAP2   PO481776   2.555  18.849  19.983  0.1405  0.0172 -0.2458
36296SAP2    P481777   2.315  18.797  20.799 -0.0448  0.2065 -0.0053
36296SAP2    P581778   2.700  19.189  20.617  0.1415 -0.1463 -0.2197
36296SAP2   GL181779   2.449  19.065  19.757 -0.0030  0.2366 -0.0526
36296SAP2   GL281780   2.500  19.087  19.473  0.0241  0.3592 -0.1565
36296SAP2   D1A81781   2.623  18.657  19.580  0.1160 -0.0326  0.2630
36296SAP2   D2A81782   2.230  18.467  19.362  0.1778 -0.0896 -0.2430
36296SAP2   D3A81783   2.519  18.134  19.415 -0.1087 -0.0084 -0.4334
36296SAP2   D4A81784   2.942  18.122  19.448 -0.0007 -0.1075 -0.1789
36296SAP2   C5A81785   2.868  17.997  19.004  0.1224 -0.1065 -0.0413
36296SAP2   C1B81786   2.413  18.885  19.075  0.0935 -0.2597  0.0954
36296SAP2   C2B81787   2.130  18.819  18.694 -0.0001  0.1093 -0.1543
36296SAP2   C3B81788   2.362  18.662  18.343 -0.0223  0.1300  0.2591
36296SAP2   C4B81789   2.446  18.315  18.082 -0.1976 -0.3172 -0.1594
36297SAP2    C181790  13.827  22.386  18.878  0.0189 -0.1866 -0.0634
36297SAP2    C281791  13.936  22.444  19.126  0.0360  0.1716 -0.1478
36297SAP2    C381792  14.006  22.172  18.942  0.1086 -0.0421  0.1859
36297SAP2    C481793  13.923  22.334  18.982 -0.7518 -0.3203  0.1896
36297SAP2   PO481794  13.763  22.597  18.719 -0.1383 -0.0365 -0.3654
36297SAP2    P481795  14.165  22.020  19.102 -0.1906 -0.0371 -0.4615
36297SAP2    P581796  13.829  22.301  19.330 -0.2127 -0.0850 -0.2007
36297SAP2   GL181797  13.869  22.554  18.344 -0.0307  0.0145  0.0367
36297SAP2   GL281798  13.617  22.465  18.230 -0.2225  0.0370 -0.1665
36297SAP2   D1A81799  14.198  22.775  18.127  0.2610  0.0229  0.1043
36297SAP2   D2A81800  14.194  22.523  17.792  0.1868  0.1318  0.2381
36297SAP2   D3A81801  14.478  22.172  17.912 -0.1139 -0.2771 -0.0647
36297SAP2   D4A81802  14.778  22.461  17.722 -0.2147 -0.0114 -0.0563
36297SAP2   C5A81803  14.455  22.393  17.396 -0.2016  0.0835  0.0999
36297SAP2   C1B81804  13.709  22.485  17.818 -0.2194 -0.1073 -0.2503
36297SAP2   C2B81805  13.877  22.630  17.418  0.2267 -0.0347 -0.0783
36297SAP2   C3B81806  14.203  22.899  17.282 -0.0694 -0.0760  0.4826
36297SAP2   C4B81807  14.508  23.198  17.111 -0.0512 -0.2697  0.5350
36298SAP2    C181808   3.783  23.201  20.029  0.1810  0.0400  0.1252
36298SAP2    C281809   3.866  23.087  20.268  0.0113 -0.0263  0.1541
36298SAP2    C381810   3.569  23.032  20.119  0.0647  0.1142 -0.0077
36298SAP2    C481811   3.739  23.107  20.139 -0.1810 -0.2515 -0.1337
36298SAP2   PO481812   4.005  23.156  19.791  0.2438 -0.0380  0.1185
36298SAP2    P481813   3.525  22.792  20.308 -0.0147 -0.2317 -0.2634
36298SAP2    P581814   3.834  23.200  20.560  0.2233  0.3306 -0.2041
36298SAP2   GL181815   3.843  23.268  19.541 -0.1070  0.2947 -0.2338
36298SAP2   GL281816   3.796  23.066  19.296 -0.0536 -0.3117 -0.2387
36298SAP2   D1A81817   3.679  23.728  19.655 -0.0853  0.1523  0.1403
36298SAP2   D2A81818   3.781  24.122  19.417  0.2534 -0.1118  0.3057
36298SAP2   D3A81819   3.841  24.134  18.954  0.0240 -0.0402 -0.0699
36298SAP2   D4A81820   3.650  23.774  18.804 -0.2174 -0.0438 -0.0262
36298SAP2   C5A81821   3.775  23.614  19.212 -0.0737  0.0987  0.2075
36298SAP2   C1B81822   3.811  22.760  18.920 -0.0802  0.1568  0.2680
36298SAP2   C2B81823   3.950  22.814  18.539  0.1076  0.1146 -0.1285
36298SAP2   C3B81824   3.831  22.920  18.089 -0.1232 -0.0070  0.0580
36298SAP2   C4B81825   3.808  23.301  17.876 -0.0043 -0.0828 -0.2276
36299SAP2    C181826   3.944  22.349  19.927 -0.1749  0.1548  0.0231
36299SAP2    C281827   4.184  22.335  20.066 -0.2064 -0.1460  0.0545
36299SAP2    C381828   3.913  22.145  20.126 -0.2360 -0.2568 -0.3901
36299SAP2    C481829   4.014  22.277  20.040  0.5585  0.0843 -0.2357
36299SAP2   PO481830   3.986  22.352  19.588  0.1593 -0.0328  0.1459
36299SAP2    P481831   4.055  21.986  20.329  0.2816 -0.1246 -0.3175
36299SAP2    P581832   4.326  22.393  20.349  0.2751 -0.4182  0.1545
36299SAP2   GL181833   3.841  22.401  19.296  0.0005  0.0319 -0.0479
36299SAP2   GL281834   3.896  22.286  19.079  0.0130  0.1897  0.1673
36299SAP2   D1A81835   3.448  22.420  19.486 -0.1856 -0.0454 -0.2792
36299SAP2   D2A81836   3.478  21.947  19.344  0.2352  0.0496 -0.0911
36299SAP2   D3A81837   3.513  21.997  18.895  0.2045  0.1311  0.1135
36299SAP2   D4A81838   3.641  22.352  18.609 -0.4368  0.0357  0.0086
36299SAP2   C5A81839   3.388  22.484  19.006  0.2260 -0.0842  0.0173
36299SAP2   C1B81840   3.962  21.919  18.737  0.3210 -0.0917 -0.1805
36299SAP2   C2B81841   4.055  21.773  18.292  0.3415  0.1568  0.1907
36299SAP2   C3B81842   4.100  22.020  17.876 -0.2031  0.1649  0.5182
36299SAP2   C4B81843   4.082  22.471  17.661  0.0906 -0.1553  0.0911
36300SAP2    C181844  14.971  18.726  20.158 -0.1148  0.1324 -0.1988
36300SAP2    C281845  15.125  18.913  20.025 -0.0557  0.2593  0.0421
36300SAP2    C381846  15.059  18.915  20.354 -0.0413 -0.1535  0.0523
36300SAP2    C481847  15.052  18.851  20.179  0.1426 -0.4784  0.5584
36300SAP2   PO481848  15.047  18.425  20.100 -0.0964 -0.0568 -0.1003
36300SAP2    P481849  15.249  19.210  20.432  0.1114  0.4112 -0.0737
36300SAP2    P581850  15.245  19.103  19.955  0.3055 -0.0723 -0.1628
36300SAP2   GL181851  15.090  18.359  19.801 -0.1501  0.2955 -0.2199
36300SAP2   GL281852  14.873  18.217  19.692  0.0275  0.0546 -0.0476
36300SAP2   D1A81853  15.147  18.364  19.325 -0.0095 -0.6067  0.0095
36300SAP2   D2A81854  15.387  18.037  19.035 -0.0004  0.0390 -0.1629
36300SAP2   D3A81855  15.709  18.350  19.128 -0.0305  0.4643 -0.1181
36300SAP2   D4A81856  15.725  18.334  18.717  0.0413 -0.2104 -0.1652
36300SAP2   C5A81857  15.285  18.399  18.694 -0.2181  0.0776 -0.0643
36300SAP2   C1B81858  14.978  17.912  19.423  0.3424 -0.0744 -0.0687
36300SAP2   C2B81859  14.876  18.022  19.041  0.0116 -0.0626  0.1212
36300SAP2   C3B81860  14.870  17.849  18.603 -0.0672  0.0093  0.0700
36300SAP2   C4B81861  15.032  17.941  18.186  0.2656  0.0466  0.0624
36301SAP2    C181862   6.955  19.886  18.335 -0.0699  0.0125 -0.1183
36301SAP2    C281863   7.025  20.116  18.473  0.0242 -0.0481 -0.0637
36301SAP2    C381864   7.241  19.886  18.357 -0.0495  0.0229 -0.3512
36301SAP2    C481865   7.074  19.962  18.388 -0.2944  0.6972 -0.1270
36301SAP2   PO481866   6.728  19.968  18.153  0.1746 -0.2960  0.0239
36301SAP2    P481867   7.418  19.957  18.576  0.2280 -0.0294 -0.0264
36301SAP2    P581868   6.951  20.120  18.756  0.1572  0.0245 -0.0069
36301SAP2   GL181869   6.746  19.829  17.879 -0.3034  0.0807  0.3844
36301SAP2   GL281870   6.854  19.589  17.789 -0.0279 -0.0067 -0.0000
36301SAP2   D1A81871   6.540  20.071  17.547  0.2224  0.2914 -0.5703
36301SAP2   D2A81872   6.062  20.067  17.592 -0.0986  0.0194 -0.1989
36301SAP2   D3A81873   6.244  19.814  17.884  0.3693 -0.3188 -0.0455
36301SAP2   D4A81874   5.949  19.395  17.840 -0.0191  0.1358 -0.2850
36301SAP2   C5A81875   6.040  19.123  17.450  0.0856 -0.0105 -0.2105
36301SAP2   C1B81876   6.684  19.673  17.341 -0.2156 -0.1701 -0.0933
36301SAP2   C2B81877   6.599  19.557  16.896  0.3051 -0.2254  0.0005
36301SAP2   C3B81878   6.424  19.465  16.489 -0.1987  0.2647  0.0757
36301SAP2   C4B81879   6.352  19.859  16.238  0.2028  0.0362  0.1101
36302SAP2    C181880  10.276  22.926  14.253 -0.1086  0.1852 -0.0671
36302SAP2    C281881  10.195  22.856  13.998 -0.0345 -0.0818 -0.0207
36302SAP2    C381882  10.066  22.734  14.283 -0.0006  0.0864  0.0681
36302SAP2    C481883  10.179  22.839  14.178 -0.8606 -0.2923  0.1380
36302SAP2   PO481884  10.363  23.225  14.266  0.3641  0.1115 -0.2919
36302SAP2    P481885   9.825  22.599  14.128  0.1816  0.0033 -0.1828
36302SAP2    P581886  10.211  22.545  13.884 -0.2283 -0.0756  0.1328
36302SAP2   GL181887  10.415  23.496  14.399 -0.2167  0.5561 -0.3222
36302SAP2   GL281888  10.688  23.574  14.171  0.0611 -0.0314 -0.0251
36302SAP2   D1A81889  10.783  23.446  14.689  0.0105  0.1455  0.4747
36302SAP2   D2A81890  11.145  23.291  14.457  0.2642 -0.0211  0.0146
36302SAP2   D3A81891  11.407  23.671  14.576 -0.1343 -0.2834 -0.1307
36302SAP2   D4A81892  11.347  23.841  14.152  0.0214  0.2564  0.3653
36302SAP2   C5A81893  11.496  23.606  13.770  0.2210  0.0533  0.2789
36302SAP2   C1B81894  10.725  23.990  14.355  0.1659 -0.0404  0.1235
36302SAP2   C2B81895  10.445  24.355  14.280 -0.2798 -0.0492  0.0880
36302SAP2   C3B81896  10.424  24.754  14.160 -0.2336  0.1348  0.0127
36302SAP2   C4B81897  10.322  24.955  13.728  0.1221  0.0426 -0.1976
36303SAP2    C181898   9.939  28.195  20.960  0.1443  0.1170  0.2354
36303SAP2    C281899   9.665  28.181  20.919  0.1565 -0.2575  0.2463
36303SAP2    C381900   9.819  28.382  21.140 -0.0999  0.0152  0.1819
36303SAP2    C481901   9.808  28.253  21.006  0.2235  0.3089  0.5604
36303SAP2   PO481902  10.040  28.180  20.640  0.2448  0.1239 -0.0031
36303SAP2    P481903   9.661  28.563  21.330 -0.0244  0.1093 -0.0297
36303SAP2    P581904   9.482  28.037  21.088  0.1032 -0.1636  0.0052
36303SAP2   GL181905   9.846  28.304  20.378  0.0136  0.2729  0.0153
36303SAP2   GL281906  10.015  28.188  20.189  0.1108  0.2212 -0.2845
36303SAP2   D1A81907   9.550  28.308  20.008 -0.0436 -0.1234 -0.1813
36303SAP2   D2A81908   9.520  27.886  19.807  0.3076  0.0562  0.0576
36303SAP2   D3A81909   9.449  27.483  19.635 -0.3084  0.1665  0.1686
36303SAP2   D4A81910   9.325  27.573  19.146 -0.4233 -0.0230  0.1579
36303SAP2   C5A81911   9.356  27.102  19.216  0.1639  0.3912  0.1660
36303SAP2   C1B81912  10.098  28.078  19.727 -0.0580 -0.0036  0.2320
36303SAP2   C2B81913  10.020  28.091  19.290  0.3193 -0.0204 -0.0030
36303SAP2   C3B81914  10.001  28.188  18.881  0.0380 -0.1799 -0.0624
36303SAP2   C4B81915   9.819  28.226  18.455  0.3204 -0.1373 -0.0524
36304SAP2    C181916   8.858  22.405  14.841 -0.0188 -0.0555 -0.1167
36304SAP2    C281917   8.986  22.455  15.082 -0.1182  0.1839 -0.1101
36304SAP2    C381918   9.132  22.463  14.779  0.0799 -0.4195 -0.0457
36304SAP2    C481919   8.992  22.441  14.900  0.1567  0.6846 -0.1132
36304SAP2   PO481920   8.564  22.549  14.861 -0.4278  0.0751 -0.1694
36304SAP2    P481921   9.367  22.605  14.866 -0.1389  0.2446 -0.1618
36304SAP2    P581922   9.236  22.448  15.282 -0.0953  0.0138  0.1431
36304SAP2   GL181923   8.357  22.671  14.588  0.4071 -0.0395  0.0651
36304SAP2   GL281924   8.098  22.512  14.523  0.0013  0.3071 -0.1298
36304SAP2   D1A81925   8.081  23.003  14.432 -0.0498  0.1031  0.1214
36304SAP2   D2A81926   8.031  22.906  14.842 -0.0277  0.1590 -0.4432
36304SAP2   D3A81927   7.628  22.757  14.652 -0.1856  0.0310 -0.0851
36304SAP2   D4A81928   7.609  23.185  14.906  0.1882  0.1435 -0.5933
36304SAP2   C5A81929   7.710  22.832  15.230 -0.1901  0.0157 -0.2044
36304SAP2   C1B81930   7.687  22.231  14.529  0.0681 -0.0026  0.1670
36304SAP2   C2B81931   7.288  22.288  14.434 -0.0777 -0.1650  0.2320
36304SAP2   C3B81932   6.839  22.269  14.423  0.1745  0.0104  0.2839
36304SAP2   C4B81933   6.498  21.916  14.359 -0.0904  0.0233  0.2866
36305SAP2    C181934  14.231  16.251  20.556 -0.1651 -0.3588 -0.1077
36305SAP2    C281935  14.330  16.082  20.752  0.0176 -0.2697 -0.1208
36305SAP2    C381936  14.340  16.418  20.762 -0.0820 -0.2630 -0.2276
36305SAP2    C481937  14.300  16.250  20.690  0.5056 -0.3205  0.8077
36305SAP2   PO481938  13.967  16.099  20.440 -0.0280  0.1627 -0.0784
36305SAP2    P481939  14.356  16.448  21.057 -0.1003 -0.1436  0.2963
36305SAP2    P581940  14.604  16.009  20.913 -0.2367  0.2627  0.2226
36305SAP2   GL181941  13.902  15.970  20.142  0.1488  0.0135  0.2298
36305SAP2   GL281942  14.031  16.121  19.915 -0.1154 -0.1247 -0.0724
36305SAP2   D1A81943  13.728  15.642  19.801  0.2515  0.0338 -0.2015
36305SAP2   D2A81944  14.208  15.631  19.815 -0.1991  0.1036 -0.1968
36305SAP2   D3A81945  14.283  15.556  19.345 -0.1500 -0.0693 -0.1317
36305SAP2   D4A81946  14.630  15.833  19.244 -0.0871 -0.0167  0.0538
36305SAP2   C5A81947  14.395  16.151  19.018 -0.2302  0.0143 -0.0386
36305SAP2   C1B81948  13.946  15.975  19.500  0.2736 -0.0506 -0.4765
36305SAP2   C2B81949  13.938  15.783  19.062 -0.1144  0.2882  0.0687
36305SAP2   C3B81950  14.190  15.585  18.750  0.2630  0.1371  0.2024
36305SAP2   C4B81951  14.318  15.570  18.293  0.0888 -0.3054 -0.0464
36306SAP2    C181952   9.809  21.196  15.261  0.2917 -0.0396  0.0075
36306SAP2    C281953   9.812  21.461  15.180 -0.1015  0.0038  0.1134
36306SAP2    C381954   9.785  21.356  15.498 -0.2268 -0.1619  0.0493
36306SAP2    C481955   9.802  21.338  15.313 -0.0455 -0.1845 -0.5963
36306SAP2   PO481956   9.978  21.060  14.998  0.0898 -0.3581 -0.2538
36306SAP2    P481957   9.793  21.643  15.598  0.0670 -0.3120 -0.1639
36306SAP2    P581958   9.580  21.637  15.153 -0.2913 -0.1137  0.2519
36306SAP2   GL181959  10.002  20.733  14.891 -0.4958  0.2952  0.1492
36306SAP2   GL281960   9.786  20.583  14.976  0.2690 -0.0625  0.0673
36306SAP2   D1A81961  10.012  20.564  14.448  0.1440 -0.0429 -0.0756
36306SAP2   D2A81962  10.428  20.410  14.318 -0.0403  0.1511  0.1740
36306SAP2   D3A81963  10.847  20.656  14.450  0.0441  0.1116  0.1536
36306SAP2   D4A81964  11.171  20.494  14.142  0.0894  0.0159  0.1434
36306SAP2   C5A81965  11.412  20.918  14.212  0.1509 -0.1783  0.0016
36306SAP2   C1B81966  10.001  20.165  15.035  0.0693  0.2056  0.0759
36306SAP2   C2B81967  10.185  19.744  15.128  0.0537 -0.3013  0.0910
36306SAP2   C3B81968  10.280  19.346  15.111 -0.2561  0.1925  0.1114
36306SAP2   C4B81969  10.378  18.974  15.297 -0.0089  0.1666 -0.2002
36307SAP2    C181970  10.396  27.082  20.362 -0.0192  0.0451 -0.1997
36307SAP2    C281971  10.210  26.935  20.505  0.0358  0.1877  0.0248
36307SAP2    C381972  10.506  26.820  20.396 -0.1551 -0.0241 -0.2859
36307SAP2    C481973  10.370  26.946  20.421  0.2741 -0.2812 -0.1347
36307SAP2   PO481974  10.484  27.395  20.460 -0.3415 -0.1032 -0.0245
36307SAP2    P481975  10.461  26.555  20.517  0.1228  0.1591 -0.0616
36307SAP2    P581976   9.933  26.754  20.419  0.2559 -0.0112  0.0356
36307SAP2   GL181977  10.374  27.497  20.207  0.0180 -0.2049 -0.0128
36307SAP2   GL281978  10.526  27.405  19.976  0.1937 -0.3912  0.1999
36307SAP2   D1A81979  10.427  27.920  20.085 -0.0926 -0.3964  0.2153
36307SAP2   D2A81980   9.975  27.724  20.041  0.2726  0.0867  0.2733
36307SAP2   D3A81981   9.934  27.631  19.589  0.0830  0.1072  0.2444
36307SAP2   D4A81982  10.220  27.222  19.616 -0.0106 -0.2189  0.0489
36307SAP2   C5A81983   9.816  27.024  19.596 -0.1026  0.2096 -0.1237
36307SAP2   C1B81984  10.701  27.348  19.590  0.3311 -0.2210  0.2634
36307SAP2   C2B81985  10.910  27.635  19.254  0.2642 -0.0083  0.2646
36307SAP2   C3B81986  10.997  27.837  18.812 -0.1078  0.0000 -0.0988
36307SAP2   C4B81987  10.976  28.108  18.425 -0.1606 -0.2490  0.2463
68519POPC   NC314199  14.521  16.165   8.737 -0.0830 -0.2411  0.2045
68519POPC   PO414200  14.919  16.109   8.666  0.2829 -0.0880 -0.0112
68519POPC   GL114201  14.826  16.205   8.252  0.2225  0.1498 -0.2727
68519POPC   GL214202  14.938  15.999   8.051  0.0140  0.0487  0.0012
68519POPC   C1A14203  14.500  16.123   7.931  0.2568 -0.0426  0.2071
68519POPC   D2A14204  14.240  16.257   7.577  0.2916  0.0528 -0.0915
68519POPC   C3A14205  14.216  16.316   7.100 -0.0668  0.1999  0.0893
68519POPC   C4A14206  14.039  16.569   6.760 -0.0048  0.1703  0.1109
68519POPC   C1B14207  14.993  15.934   7.519  0.1216  0.0591 -0.1003
68519POPC   C2B14208  14.817  15.743   7.167 -0.2756  0.1794  0.1951
68519POPC   C3B14209  14.562  15.797   6.814  0.1137 -0.1304  0.0846
68519POPC   C4B14210  14.161  16.035   6.618  0.0437  0.0425 -0.0547
68520POPC   NC314211  20.056   2.521  14.581  0.2411  0.2641  0.2157
68520POPC   PO414212  20.392   2.613  14.347  0.0057  0.0014 -0.0782
68520POPC   GL114213  20.797   2.787  14.362  0.4834 -0.3705  0.3737
68520POPC   GL214214  20.878   2.614  14.576  0.3290 -0.2528  0.2519
68520POPC   C1A14215  20.982   3.103  14.644  0.0847  0.2665 -0.0768
68520POPC   D2A14216  21.402   3.329  14.845  0.4738 -0.1231  0.1861
68520POPC   C3A14217  21.800   3.621  14.819  0.1696 -0.0143 -0.2586
68520POPC   C4A14218  22.009   3.984  14.971 -0.2945  0.1213 -0.1423
68520POPC   C1B14219  21.244   2.669  14.859 -0.2940  0.2654  0.2954
68520POPC   C2B14220  21.565   2.908  15.129 -0.0164 -0.0174 -0.0780
68520POPC   C3B14221  21.741   3.328  15.266 -0.2907  0.4188  0.0740
68520POPC   C4B14222  21.490   3.507  15.656 -0.3039 -0.0775 -0.1391
68521POPC   NC314223  31.422  15.018   8.219 -0.0955  0.4034 -0.1869
68521POPC   PO414224  31.057  15.007   8.029 -0.2871  0.1838 -0.0656
68521POPC   GL114225  30.811  15.131   7.762 -0.0019 -0.1159 -0.4347
68521POPC   GL214226  30.611  14.926   7.848  0.1082  0.2325  0.1400
68521POPC   C1A14227  30.636  15.195   7.315 -0.1234  0.1624 -0.0460
68521POPC   D2A14228  30.295  15.087   7.049 -0.0062 -0.1906  0.0293
68521POPC   C3A14229  30.375  15.316   6.700  0.3241  0.0366 -0.1119
68521POPC   C4A14230  30.248  15.584   6.317 -0.2024 -0.3628 -0.1063
68521POPC   C1B14231  30.354  14.737   7.536  0.0273 -0.0148 -0.0262
68521POPC   C2B14232  29.977  14.680   7.217  0.1199 -0.4901  0.2191
68521POPC   C3B14233  29.555  14.588   7.015  0.2197 -0.0228  0.1928
68521POPC   C4B14234  29.262  14.435   6.679  0.1482 -0.0044 -0.0228
68522POPC   NC314235  27.036  14.821   9.000  0.0022 -0.0276 -0.1673
68522POPC   PO414236  27.309  15.073   9.134 -0.2264 -0.1021 -0.1071
68522POPC   GL114237  27.324  15.124   8.716  0.0760 -0.0581 -0.1024
68522POPC   GL214238  27.081  15.296   8.688  0.2345 -0.1085  0.2421
68522POPC   C1A14239  27.086  14.825   8.481 -0.0959 -0.1022 -0.1196
68522POPC   D2A14240  26.797  14.762   8.120  0.0510 -0.2287 -0.1505
68522POPC   C3A14241  26.862  14.641   7.707  0.2096  0.2219 -0.0152
68522POPC   C4A14242  26.580  14.608   7.414 -0.0914 -0.0001  0.5320
68522POPC   C1B14243  27.173  15.457   8.257 -0.1281  0.1236 -0.3059
68522POPC   C2B14244  27.254  15.708   7.927 -0.4551  0.6137  0.1966
68522POPC   C3B14245  27.370  16.078   7.730 -0.2043 -0.0350 -0.0069
68522POPC   C4B14246  27.144  16.238   7.372 -0.0677 -0.4799 -0.0035
68523POPC   NC314247  25.296  10.695  11.938 -0.1814 -0.1255 -0.1462
68523POPC   PO414248  25.026  10.886  11.765  0.1650 -0.0514 -0.0779
68523POPC   GL114249  25.140  10.554  11.489  0.1097  0.1987  0.1038
68523POPC   GL214250  25.182  10.265  11.641  0.0823 -0.2365  0.1078
68523POPC   C1A14251  24.786  10.205  11.401  0.3398 -0.0266  0.0252
68523POPC   D2A14252  24.334  10.051  11.528 -0.1323  0.0106  0.4313
68523POPC   C3A14253  24.177   9.911  11.950 -0.2046  0.0247  0.2769
68523POPC   C4A14254  23.999  10.093  12.323 -0.1483  0.1750  0.2777
68523POPC   C1B14255  25.085   9.850  11.458 -0.2848  0.1940 -0.0819
68523POPC   C2B14256  25.297   9.520  11.231  0.1315 -0.2334  0.3257
68523POPC   C3B14257  25.205   9.134  11.153 -0.0681  0.3674  0.0331
68523POPC   C4B14258  25.365   8.716  10.967 -0.0008  0.2077  0.3963
68524POPC   NC314259  30.200  14.897   8.205  0.0267 -0.0818  0.2369
68524POPC   PO414260  30.171  15.264   8.155 -0.0748 -0.2396 -0.0091
68524POPC   GL114261  30.193  15.230   7.807  0.2804  0.0934  0.1052
68524POPC   GL214262  30.056  15.511   7.724  0.0072  0.2726  0.0508
68524POPC   C1A14263  29.954  15.195   7.414  0.2938 -0.0880  0.0834
68524POPC   D2A14264  29.828  15.064   6.973 -0.1670 -0.0351 -0.0151
68524POPC   C3A14265  29.555  15.370   6.819  0.1874  0.0354 -0.2454
68524POPC   C4A14266  29.206  15.293   6.595  0.2773  0.2245 -0.0038
68524POPC   C1B14267  29.968  15.689   7.317 -0.3049 -0.1107 -0.1873
68524POPC   C2B14268  30.079  15.878   6.934  0.1006  0.2081  0.1204
68524POPC   C3B14269  30.134  16.096   6.524  0.0201  0.0661  0.0180
68524POPC   C4B14270  29.937  16.350   6.105 -0.1361  0.1750  0.1675
68525POPC   NC314271  31.428  11.230   9.316 -0.3833  0.3364  0.1817
68525POPC   PO414272  31.235  10.888   9.291 -0.0407  0.1071  0.3641
68525POPC   GL114273  31.006  10.839   8.983 -0.0394  0.0160 -0.3963
68525POPC   GL214274  30.972  10.978   8.688 -0.0977 -0.2797  0.0776
68525POPC   C1A14275  30.950  10.388   8.783  0.1187  0.1814 -0.2626
68525POPC   D2A14276  31.244  10.128   8.525 -0.0175  0.0026 -0.0533
68525POPC   C3A14277  31.200  10.205   8.067  0.1322  0.0644  0.1712
68525POPC   C4A14278  31.153  10.127   7.636  0.1530 -0.1840  0.1670
68525POPC   C1B14279  30.860  10.738   8.339  0.0258 -0.3780  0.3167
68525POPC   C2B14280  30.838  10.634   7.890  0.0828  0.0841  0.2212
68525POPC   C3B14281  30.799  10.392   7.451  0.1102 -0.1079 -0.3046
68525POPC   C4B14282  30.455  10.175   7.259 -0.0975 -0.1157  0.4135
68526POPC   NC314283  18.888  12.334   8.080 -0.2485 -0.2437  0.0403
68526POPC   PO414284  18.534  12.402   7.971 -0.1744  0.0348  0.0538
68526POPC   GL114285  18.647  12.285   7.600 -0.2865  0.1557 -0.1777
68526POPC   GL214286  18.646  12.553   7.454 -0.1473 -0.1145 -0.1667
68526POPC   C1A14287  18.576  11.953   7.292 -0.1530  0.0422  0.1393
68526POPC   D2A14288  18.428  11.606   7.037 -0.2778 -0.0330 -0.1433
68526POPC   C3A14289  18.486  11.665   6.615 -0.1254 -0.1847  0.0215
68526POPC   C4A14290  18.806  11.789   6.325 -0.2143  0.1613  0.1720
68526POPC   C1B14291  18.819  12.332   7.106 -0.0076  0.4160  0.0796
68526POPC   C2B14292  18.975  11.968   6.841  0.1111  0.0804  0.0004
68526POPC   C3B14293  19.126  11.555   6.610  0.2420 -0.0762 -0.2933
68526POPC   C4B14294  19.108  11.137   6.392  0.0758 -0.2081 -0.1389
68527POPC   NC314295  23.866   0.878  10.976 -0.1632 -0.3038  0.3018
68527POPC   PO414296  24.063   1.018  10.672 -0.2961  0.1416 -0.0759
68527POPC   GL114297  24.052   1.354  10.500 -0.1692 -0.2470 -0.1267
68527POPC   GL214298  24.150   1.594  10.677 -0.2108 -0.1759  0.0074
68527POPC   C1A14299  24.136   1.453  10.054 -0.0321 -0.0124  0.0682
68527POPC   D2A14300  24.070   1.868   9.882  0.4460  0.1815  0.1828
68527POPC   C3A14301  23.940   2.251   9.663 -0.0238 -0.0151 -0.0924
68527POPC   C4A14302  23.994   2.641   9.408 -0.2051 -0.2098 -0.3311
68527POPC   C1B14303  24.461   1.833  10.409 -0.0426  0.1464 -0.0922
68527POPC   C2B14304  24.725   2.251  10.387  0.0852  0.0166  0.0327
68527POPC   C3B14305  25.027   2.643  10.286 -0.1504  0.2037 -0.3389
68527POPC   C4B14306  25.235   2.774   9.888 -0.1602 -0.4462 -0.2954
68528POPC   NC314307  30.407  12.314   8.464  0.0597 -0.2953  0.2870
68528POPC   PO414308  30.535  12.663   8.602 -0.0050 -0.0172  0.0361
68528POPC   GL114309  30.488  12.778   8.253  0.0476 -0.0289  0.0248
68528POPC   GL214310  30.582  13.048   8.233 -0.8451 -0.1908 -0.1325
68528POPC   C1A14311  30.259  12.496   7.937 -0.2257  0.3247  0.3230
68528POPC   D2A14312  30.046  12.099   7.752 -0.0939 -0.3351 -0.2057
68528POPC   C3A14313  30.135  11.637   7.686  0.1553  0.2362 -0.0259
68528POPC   C4A14314  29.996  11.482   7.316 -0.0926  0.0725  0.0729
68528POPC   C1B14315  30.618  12.843   7.789  0.1395  0.2252 -0.1321
68528POPC   C2B14316  30.550  12.443   7.531 -0.0454  0.2482  0.0503
68528POPC   C3B14317  30.222  12.312   7.263  0.2118 -0.3071  0.0395
68528POPC   C4B14318  29.978  11.912   7.087 -0.1847  0.0018 -0.0540
68529POPC   NC314319  20.756  10.498   8.682 -0.1657 -0.0492 -0.0242
68529POPC   PO414320  20.491  10.537   8.421 -0.0858 -0.0666 -0.0408
68529POPC   GL114321  20.424  10.800   8.172 -0.2348  0.1603  0.1506
68529POPC   GL214322  20.544  11.060   8.139  0.2595  0.3447 -0.0590
68529POPC   C1A14323  20.389  10.931   7.704 -0.1868  0.0355  0.0934
68529POPC   D2A14324  20.553  10.993   7.298 -0.1149 -0.0590 -0.1787
68529POPC   C3A14325  20.318  10.779   6.952  0.1310 -0.0063 -0.1218
68529POPC   C4A14326  20.209  10.727   6.461  0.2054 -0.3264  0.0536
68529POPC   C1B14327  20.812  10.750   7.868  0.0484  0.0351 -0.0556
68529POPC   C2B14328  20.632  10.556   7.447 -0.1526 -0.0555  0.0816
68529POPC   C3B14329  20.814  10.205   7.200  0.0132 -0.0921 -0.2285
68529POPC   C4B14330  20.682   9.805   7.033 -0.2685 -0.2437  0.1767
68530POPC   NC314331  30.890  14.489   8.103  0.0527 -0.2429 -0.2831
68530POPC   PO414332  31.279  14.524   8.078  0.2847 -0.0220  0.2284
68530POPC   GL114333  31.092  14.624   7.685  0.0726  0.1471  0.2088
68530POPC   GL214334  30.845  14.671   7.480  0.0817  0.2046  0.1075
68530POPC   C1A14335  31.349  14.752   7.321 -0.0463 -0.1141  0.0812
68530POPC   D2A14336  31.642  14.952   6.922 -0.2610  0.0103 -0.2159
68530POPC   C3A14337  31.285  15.052   6.597  0.3860 -0.1002 -0.2435
68530POPC   C4A14338  30.910  15.385   6.598  0.1740  0.2437  0.1582
68530POPC   C1B14339  30.638  14.476   7.167  0.3009 -0.0385 -0.2087
68530POPC   C2B14340  30.787  14.294   6.792 -0.1035 -0.1841 -0.0920
68530POPC   C3B14341  30.947  14.330   6.409 -0.3341  0.0913  0.0531
68530POPC   C4B14342  30.921  14.699   6.220  0.0614 -0.0800  0.2552
68531POPC   NC314343  16.339  14.462   7.949  0.0032 -0.2017  0.0579
68531POPC   PO414344  16.716  14.328   7.941 -0.0937  0.0816  0.3720
68531POPC   GL114345  16.771  14.207   7.476  0.0640 -0.1224  0.0047
68531POPC   GL214346  16.448  14.290   7.493 -0.1276  0.4275  0.3904
68531POPC   C1A14347  16.963  13.887   7.165 -0.1978 -0.1121  0.0994
68531POPC   D2A14348  17.088  13.806   6.701  0.2112 -0.1842 -0.1349
68531POPC   C3A14349  16.809  13.666   6.326  0.1428 -0.1466  0.0886
68531POPC   C4A14350  16.677  13.542   5.897 -0.0634 -0.1482  0.2285
68531POPC   C1B14351  16.425  14.203   6.988  0.0412  0.2958  0.1333
68531POPC   C2B14352  16.348  13.809   6.636  0.1238  0.3960  0.1528
68531POPC   C3B14353  16.425  13.410   6.416  0.2267  0.0212 -0.1679
68531POPC   C4B14354  16.757  13.097   6.380  0.0683 -0.2598  0.0540
68532POPC   NC314355  20.144   0.257   8.458 -0.2074 -0.1001  0.1712
68532POPC   PO414356  20.521   0.090   8.499  0.3934  0.1513  0.1132
68532POPC   GL114357  20.483   0.228   8.065  0.1120 -0.0553 -0.0514
68532POPC   GL214358  20.376  -0.030   7.918  0.3380 -0.2028 -0.3898
68532POPC   C1A14359  20.570   0.518   7.689  0.0543  0.1982  0.0536
68532POPC   D2A14360  20.624   0.423   7.261 -0.1726  0.4123  0.0220
68532POPC   C3A14361  20.927   0.714   6.999  0.2209 -0.0128  0.0947
68532POPC   C4A14362  21.192   1.005   6.710 -0.1147 -0.1016 -0.0457
68532POPC   C1B14363  20.563  -0.013   7.543  0.1686 -0.1588 -0.2003
68532POPC   C2B14364  20.878  -0.052   7.237  0.1925 -0.0074 -0.0727
68532POPC   C3B14365  20.992   0.216   6.876  0.1947 -0.2091  0.0886
68532POPC   C4B14366  21.301   0.458   6.726 -0.0566 -0.1217 -0.0985
68533POPC   NC314367  24.860   0.956  10.154 -0.0019  0.1574  0.1415
68533POPC   PO414368  25.095   0.932  10.485  0.0103  0.1052 -0.2032
68533POPC   GL114369  25.142   1.366  10.420 -0.0882  0.0486  0.3758
68533POPC   GL214370  24.859   1.447  10.440 -0.1246 -0.3025  0.3289
68533POPC   C1A14371  25.181   1.513   9.966  0.0617  0.0454 -0.1757
68533POPC   D2A14372  25.053   1.687   9.596 -0.2361  0.0307  0.0478
68533POPC   C3A14373  24.960   1.967   9.228 -0.2759  0.1225 -0.1901
68533POPC   C4A14374  25.000   2.316   8.934  0.0461  0.0534  0.1529
68533POPC   C1B14375  24.999   1.863  10.553  0.4171 -0.0832 -0.2036
68533POPC   C2B14376  25.221   2.242  10.645  0.2025  0.0841  0.0332
68533POPC   C3B14377  25.393   2.657  10.577  0.2130 -0.0575  0.0336
68533POPC   C4B14378  25.213   3.051  10.402 -0.4554 -0.2136 -0.0397
68534POPC   NC314379  31.430   1.981  15.419  0.1096  0.2823  0.1275
68534POPC   PO414380  31.073   2.104  15.317  0.0203  0.0222 -0.0860
68534POPC   GL114381  30.826   2.263  15.582 -0.2655 -0.1318 -0.5683
68534POPC   GL214382  31.056   2.301  15.824 -0.0879  0.1336  0.1616
68534POPC   C1A14383  30.706   2.646  15.823 -0.0661  0.1261 -0.1722
68534POPC   D2A14384  30.558   2.911  16.185 -0.3798 -0.3738 -0.0553
68534POPC   C3A14385  30.322   2.719  16.545 -0.1202  0.1814  0.0488
68534POPC   C4A14386  29.945   2.668  16.831 -0.2245 -0.0664 -0.0722
68534POPC   C1B14387  31.311   2.423  16.216  0.0937 -0.3014  0.4057
68534POPC   C2B14388  31.286   2.356  16.636  0.0374  0.0889 -0.0141
68534POPC   C3B14389  31.191   2.447  17.070  0.0958  0.0624 -0.0541
68534POPC   C4B14390  31.143   2.141  17.439  0.3525 -0.1800 -0.2027
68535POPC   NC314391  26.928  17.117   9.667  0.0675 -0.1986 -0.2165
68535POPC   PO414392  26.695  16.870   9.483 -0.3862 -0.0766  0.2643
68535POPC   GL114393  26.571  16.868   9.216  0.0799  0.1175  0.0442
68535POPC   GL214394  26.271  16.826   9.140 -0.1530 -0.3976  0.0503
68535POPC   C1A14395  26.540  17.167   8.887 -0.1871 -0.3873  0.1224
68535POPC   D2A14396  26.761  17.424   8.527  0.0479  0.1454  0.0293
68535POPC   C3A14397  26.656  17.746   8.272  0.1149  0.1570  0.1590
68535POPC   C4A14398  26.396  18.008   8.001 -0.1084 -0.0946  0.1789
68535POPC   C1B14399  26.039  16.847   8.779 -0.3520 -0.0501  0.2644
68535POPC   C2B14400  25.876  17.058   8.356  0.3144 -0.0005 -0.5454
68535POPC   C3B14401  25.764  17.275   7.924 -0.1621  0.0612 -0.4259
68535POPC   C4B14402  25.528  17.626   7.737  0.1728 -0.1356  0.0846
68536POPC   NC314403  18.532   5.873   9.360  0.2677  0.1130 -0.0137
68536POPC   PO414404  18.673   5.571   9.488  0.1077  0.1264 -0.0134
68536POPC   GL114405  18.613   5.431   9.074  0.1218 -0.2850 -0.1264
68536POPC   GL214406  18.459   5.403   8.859  0.0888 -0.1417  0.1009
68536POPC   C1A14407  18.826   5.025   8.862 -0.1455 -0.3359 -0.1975
68536POPC   D2A14408  19.107   4.912   8.509 -0.1430 -0.0259 -0.0663
68536POPC   C3A14409  19.275   4.801   8.120  0.2002 -0.2887  0.4342
68536POPC   C4A14410  19.370   4.843   7.649  0.0241 -0.0708 -0.1647
68536POPC   C1B14411  18.720   5.366   8.434  0.2878 -0.1900  0.0330
68536POPC   C2B14412  18.972   5.254   8.017 -0.0349 -0.0841  0.0017
68536POPC   C3B14413  19.236   5.331   7.657  0.0016 -0.1585  0.1196
68536POPC   C4B14414  19.553   5.426   7.296 -0.3366  0.1306  0.1119
68537POPC   NC314415  29.541  13.183   9.697 -0.1740 -0.0238  0.0180
68537POPC   PO414416  29.295  13.074   9.391 -0.0138  0.0298  0.1593
68537POPC   GL114417  29.316  12.924   9.028  0.3484  0.0812 -0.0634
68537POPC   GL214418  29.008  12.907   9.008  0.0052 -0.2237 -0.3467
68537POPC   C1A14419  29.298  12.790   8.575 -0.0282  0.0164  0.1660
68537POPC   D2A14420  29.381  12.634   8.218 -0.0082 -0.2606  0.1120
68537POPC   C3A14421  29.080  12.326   8.081 -0.3386 -0.2118 -0.0368
68537POPC   C4A14422  29.106  12.022   7.708 -0.1996  0.2248  0.1721
68537POPC   C1B14423  28.775  12.701   8.714 -0.2798  0.1848 -0.2426
68537POPC   C2B14424  28.705  12.646   8.278  0.4330  0.4513 -0.0985
68537POPC   C3B14425  28.535  12.603   7.872  0.1994 -0.1078 -0.0637
68537POPC   C4B14426  28.686  12.485   7.426 -0.0444  0.1785 -0.3303
68538POPC   NC314427  20.509   4.404   9.823 -0.0332  0.2257  0.4234
68538POPC   PO414428  20.377   4.649   9.534  0.1241 -0.1865  0.2207
68538POPC   GL114429  20.795   4.722   9.486  0.0495 -0.4506 -0.3594
68538POPC   GL214430  20.789   4.917   9.307 -0.0123  0.0788  0.4763
68538POPC   C1A14431  21.263   4.622   9.469 -0.1384 -0.0691 -0.1629
68538POPC   D2A14432  21.655   4.789   9.279  0.0070 -0.2984 -0.0024
68538POPC   C3A14433  21.784   4.817   8.846 -0.2053 -0.0085 -0.0389
68538POPC   C4A14434  22.069   4.505   8.584  0.2434  0.0821 -0.1927
68538POPC   C1B14435  21.163   4.899   9.045  0.1341 -0.0950  0.2588
68538POPC   C2B14436  21.248   4.666   8.668 -0.3140 -0.1141  0.2649
68538POPC   C3B14437  21.044   4.434   8.290 -0.1543  0.0060  0.2911
68538POPC   C4B14438  21.037   4.443   7.802  0.1394 -0.0053 -0.1875
68539POPC   NC314439  30.724   3.876  10.101 -0.1009 -0.1186 -0.1070
68539POPC   PO414440  30.720   4.258  10.288  0.2205  0.3346 -0.0619
68539POPC   GL114441  30.712   4.404   9.904  0.3618  0.1571  0.2947
68539POPC   GL214442  30.719   4.689   9.870 -0.0031  0.0842  0.2377
68539POPC   C1A14443  30.248   4.439   9.844  0.1470  0.1648 -0.0202
68539POPC   D2A14444  29.886   4.750   9.760  0.1523  0.0791  0.0979
68539POPC   C3A14445  29.722   4.938   9.369  0.0724  0.0921 -0.1153
68539POPC   C4A14446  29.422   5.186   9.155 -0.1888 -0.1679 -0.2032
68539POPC   C1B14447  30.500   5.071   9.799 -0.2617  0.2574 -0.0842
68539POPC   C2B14448  30.071   5.215   9.612  0.2175  0.2300 -0.2996
68539POPC   C3B14449  30.007   5.484   9.219 -0.0293  0.4193 -0.1511
68539POPC   C4B14450  29.788   5.610   8.823  0.1218  0.0133 -0.0619
68540POPC   NC314451   0.161   5.644  15.581  0.1487  0.2012 -0.0531
68540POPC   PO414452   0.511   5.681  15.495 -0.0031  0.0735 -0.0466
68540POPC   GL114453   0.563   5.727  15.876 -0.2967 -0.0218  0.1368
68540POPC   GL214454   0.488   5.910  16.043  0.1712 -0.1726  0.0450
68540POPC   C1A14455   0.272   5.498  16.143  0.1053 -0.2866 -0.0914
68540POPC   D2A14456   0.151   5.129  16.379  0.2726 -0.1532  0.3274
68540POPC   C3A14457  -0.309   5.125  16.419  0.1685  0.0138 -0.0143
68540POPC   C4A14458  -0.693   5.328  16.258  0.0371  0.1063 -0.2674
68540POPC   C1B14459   0.362   5.840  16.461  0.2294 -0.1655 -0.2686
68540POPC   C2B14460   0.073   5.517  16.674  0.0176 -0.1335 -0.0137
68540POPC   C3B14461  -0.088   5.512  17.114 -0.1100 -0.2324  0.3291
68540POPC   C4B14462  -0.155   5.910  17.400  0.2687 -0.1115  0.0277
68541POPC   NC314463  30.112   3.673  11.221  0.2383  0.2156 -0.1395
68541POPC   PO414464  30.279   3.843  10.900 -0.1062  0.1968 -0.0468
68541POPC   GL114465  29.956   3.964  10.743 -0.3251  0.2030 -0.1672
68541POPC   GL214466  29.964   4.261  10.761  0.3870  0.0481 -0.1678
68541POPC   C1A14467  29.526   3.862  10.655  0.1278  0.1970  0.1554
68541POPC   D2A14468  29.287   3.950  10.289  0.4869 -0.2150  0.3015
68541POPC   C3A14469  29.652   3.887  10.072 -0.1451 -0.3008 -0.1052
68541POPC   C4A14470  29.923   4.071   9.770  0.0925  0.1113 -0.0742
68541POPC   C1B14471  29.515   4.401  10.549  0.2745 -0.2118  0.2982
68541POPC   C2B14472  29.073   4.370  10.355 -0.3627 -0.3398 -0.0595
68541POPC   C3B14473  28.971   4.392   9.893  0.0620 -0.3322 -0.0715
68541POPC   C4B14474  28.693   4.412   9.532  0.3519  0.0333  0.0656
68542POPC   NC314475  22.491   1.114   9.079 -0.1621 -0.2966  0.0518
68542POPC   PO414476  22.314   1.229   9.372 -0.0520 -0.2931 -0.0525
68542POPC   GL114477  22.354   1.594   9.264 -0.0009 -0.1983 -0.0631
68542POPC   GL214478  22.333   1.846   9.395 -0.1720  0.0063 -0.1295
68542POPC   C1A14479  22.668   1.920   9.035  0.1256 -0.1007 -0.2462
68542POPC   D2A14480  22.829   2.167   8.645 -0.0701  0.0669  0.1027
68542POPC   C3A14481  22.692   2.601   8.719  0.0976 -0.1216 -0.3606
68542POPC   C4A14482  22.950   2.908   8.964  0.2306 -0.0276 -0.0161
68542POPC   C1B14483  22.695   1.999   9.526  0.0475 -0.2979  0.1526
68542POPC   C2B14484  22.977   2.312   9.224  0.3735 -0.2289 -0.0465
68542POPC   C3B14485  23.208   2.531   8.909 -0.2691  0.1524  0.0063
68542POPC   C4B14486  23.100   2.721   8.477 -0.2063  0.2464  0.0610
68543POPC   NC314487   0.664   7.330   9.288  0.4141 -0.1927  0.2177
68543POPC   PO414488   0.290   7.228   9.168 -0.2182 -0.0140  0.0664
68543POPC   GL114489   0.334   7.248   8.799 -0.1466 -0.0204 -0.1125
68543POPC   GL214490   0.598   7.144   8.787 -0.1914 -0.1144 -0.0498
68543POPC   C1A14491   0.104   7.358   8.421 -0.2420  0.2230  0.2169
68543POPC   D2A14492  -0.280   7.435   8.135  0.0768  0.2033 -0.0989
68543POPC   C3A14493  -0.311   7.754   7.767 -0.0657 -0.0065  0.0641
68543POPC   C4A14494  -0.411   8.064   7.428  0.1819 -0.1031  0.2193
68543POPC   C1B14495   0.735   6.937   8.388 -0.0221 -0.0082  0.0238
68543POPC   C2B14496   0.742   6.817   7.967  0.0168 -0.0940 -0.1144
68543POPC   C3B14497   0.679   6.508   7.561 -0.1084  0.3290 -0.1852
68543POPC   C4B14498   0.549   6.166   7.263  0.1183 -0.3650  0.0369
68544POPC   NC314499  31.620   3.911   9.456  0.0773 -0.1206 -0.0369
68544POPC   PO414500  31.852   4.230   9.540 -0.3275 -0.2264 -0.0921
68544POPC   GL114501  31.552   4.434   9.406  0.0163  0.2328  0.0927
68544POPC   GL214502  31.517   4.290   9.136 -0.0579 -0.0232  0.1033
68544POPC   C1A14503  31.575   4.865   9.122  0.3499  0.0405  0.0749
68544POPC   D2A14504  31.240   5.082   8.886  0.2148 -0.2276  0.1666
68544POPC   C3A14505  30.851   4.984   8.580  0.1370  0.0865  0.2292
68544POPC   C4A14506  30.371   4.898   8.541  0.1034  0.0541 -0.1103
68544POPC   C1B14507  31.590   4.236   8.620 -0.0620 -0.1033 -0.1121
68544POPC   C2B14508  31.527   4.327   8.187 -0.2571 -0.0502  0.2058
68544POPC   C3B14509  31.183   4.286   7.864 -0.4978  0.0609 -0.0729
68544POPC   C4B14510  30.827   4.073   7.643 -0.0269  0.0740  0.0933
68545POPC   NC314511  19.264   5.091  15.058 -0.0066 -0.0045  0.1536
68545POPC   PO414512  19.051   5.080  15.390 -0.3279  0.0014  0.0495
68545POPC   GL114513  19.165   5.015  15.807 -0.1128  0.1645  0.0449
68545POPC   GL214514  18.916   5.138  15.905  0.1282 -0.0444  0.1728
68545POPC   C1A14515  19.454   5.292  16.023 -0.0807  0.0445 -0.0521
68545POPC   D2A14516  19.653   5.347  16.458 -0.0374 -0.0035  0.0813
68545POPC   C3A14517  19.608   5.538  16.903  0.1764  0.0061  0.1107
68545POPC   C4A14518  19.434   5.745  17.219  0.1275 -0.0333 -0.0090
68545POPC   C1B14519  19.000   5.200  16.346  0.0647 -0.0651  0.0963
68545POPC   C2B14520  19.266   5.046  16.680  0.1387 -0.2870  0.2449
68545POPC   C3B14521  19.255   5.086  17.137  0.0125  0.2288 -0.0371
68545POPC   C4B14522  19.278   5.035  17.616 -0.2765  0.1052  0.1978
68546POPC   NC314523  20.868   9.700   8.779  0.1367  0.1399  0.4003
68546POPC   PO414524  20.526   9.972   8.758 -0.1129  0.1362  0.2594
68546POPC   GL114525  20.594  10.091   8.386  0.1147 -0.0668 -0.1552
68546POPC   GL214526  20.799   9.960   8.261 -0.0053  0.3330  0.0795
68546POPC   C1A14527  20.330   9.998   8.045 -0.2807  0.0077  0.1760
68546POPC   D2A14528  20.396  10.010   7.541 -0.0977 -0.1863 -0.2335
68546POPC   C3A14529  20.352  10.246   7.190 -0.0715  0.1631 -0.1441
68546POPC   C4A14530  20.570  10.277   6.761  0.1088 -0.2175  0.0265
68546POPC   C1B14531  20.688   9.720   7.897 -0.0726  0.0313 -0.1133
68546POPC   C2B14532  20.809   9.787   7.506  0.0133  0.0469 -0.1119
68546POPC   C3B14533  21.234   9.897   7.318 -0.1276 -0.1257  0.3032
68546POPC   C4B14534  21.645  10.117   7.293  0.0606 -0.3303 -0.2114
68547POPC   NC314535  21.323  12.509   8.284  0.1968  0.0629 -0.0358
68547POPC   PO414536  21.661  12.684   8.475  0.4066  0.1080  0.2222
68547POPC   GL114537  21.733  12.594   8.134 -0.0560  0.0273 -0.1002
68547POPC   GL214538  21.936  12.786   8.019 -0.0277  0.4301 -0.1851
68547POPC   C1A14539  21.436  12.544   7.744  0.2160  0.0051  0.2228
68547POPC   D2A14540  21.174  12.678   7.353 -0.1816 -0.1219 -0.0135
68547POPC   C3A14541  21.454  12.755   7.003 -0.0728 -0.1256  0.0622
68547POPC   C4A14542  21.692  13.015   6.699  0.1499 -0.3844  0.0451
68547POPC   C1B14543  21.721  12.984   7.666  0.0154  0.1529 -0.1324
68547POPC   C2B14544  21.498  13.173   7.296  0.1873 -0.1838 -0.3446
68547POPC   C3B14545  21.618  13.443   6.966  0.2113 -0.1667 -0.0609
68547POPC   C4B14546  21.445  13.824   6.748 -0.1396 -0.0395  0.2323
68548POPC   NC314547  19.284   3.327   9.106  0.5700 -0.2794  0.0938
68548POPC   PO414548  19.202   3.731   9.166 -0.2289  0.1995 -0.0397
68548POPC   GL114549  19.382   3.693   8.876  0.0880  0.1353  0.1752
68548POPC   GL214550  19.420   3.959   8.715  0.2078 -0.1317 -0.0727
68548POPC   C1A14551  19.777   3.531   8.660  0.0183 -0.0546  0.0552
68548POPC   D2A14552  20.236   3.642   8.663 -0.2876  0.3866  0.1766
68548POPC   C3A14553  20.392   3.799   8.312  0.2360  0.2318 -0.0520
68548POPC   C4A14554  20.271   3.905   7.854  0.1155 -0.3213 -0.3011
68548POPC   C1B14555  19.588   3.782   8.293  0.0487  0.0099  0.0484
68548POPC   C2B14556  19.954   3.550   8.156 -0.2168  0.0358 -0.0180
68548POPC   C3B14557  20.326   3.363   7.873 -0.1379  0.1010 -0.0385
68548POPC   C4B14558  20.737   3.217   7.812 -0.3153  0.1570 -0.4209
68549POPC   NC314559  28.765  16.061   8.608  0.1465 -0.3628 -0.0458
68549POPC   PO414560  28.880  15.765   8.408  0.2019  0.1139 -0.1323
68549POPC   GL114561  28.777  15.678   8.064 -0.1904  0.1206 -0.1323
68549POPC   GL214562  28.675  15.385   8.160  0.0459 -0.0696 -0.2277
68549POPC   C1A14563  28.768  15.788   7.591  0.2641 -0.0375 -0.1025
68549POPC   D2A14564  28.665  15.885   7.147 -0.0339 -0.0265 -0.0335
68549POPC   C3A14565  28.611  15.741   6.704 -0.0099 -0.0786  0.2680
68549POPC   C4A14566  28.758  15.449   6.426 -0.0623  0.1472 -0.0142
68549POPC   C1B14567  28.611  15.280   7.694 -0.2553 -0.0811 -0.0386
68549POPC   C2B14568  28.374  15.242   7.296 -0.1785 -0.2153 -0.0317
68549POPC   C3B14569  28.294  15.234   6.835 -0.1460  0.0560  0.0086
68549POPC   C4B14570  28.152  15.577   6.555 -0.0467  0.1591 -0.0590
68550POPC   NC314571  21.567  16.184   8.837  0.1936 -0.0274 -0.0904
68550POPC   PO414572  21.966  16.251   8.758 -0.1304  0.0276 -0.0202
68550POPC   GL114573  21.798  16.428   8.485  0.2962 -0.2504  0.1955
68550POPC   GL214574  21.570  16.601   8.551  0.1032  0.2569 -0.0915
68550POPC   C1A14575  21.667  16.511   8.032  0.1128 -0.0363  0.2725
68550POPC   D2A14576  21.293  16.714   7.829 -0.0328 -0.1410  0.1375
68550POPC   C3A14577  21.164  16.537   7.377 -0.1326  0.1797 -0.1566
68550POPC   C4A14578  21.149  16.683   6.954 -0.1717  0.0178  0.1171
68550POPC   C1B14579  21.909  16.824   8.355 -0.0685 -0.1021 -0.0553
68550POPC   C2B14580  22.190  17.117   8.096 -0.1775 -0.1484  0.4957
68550POPC   C3B14581  22.209  17.147   7.638  0.1800 -0.0408 -0.1343
68550POPC   C4B14582  22.324  17.486   7.356  0.1171  0.0224 -0.2480
68551POPC   NC314583  20.857   5.015  10.569 -0.3434  0.2821  0.0025
68551POPC   PO414584  21.049   5.305  10.339 -0.0431 -0.0211  0.3301
68551POPC   GL114585  21.332   5.181  10.111 -0.0953 -0.0276 -0.4682
68551POPC   GL214586  21.433   5.104   9.784  0.0762  0.1702  0.0324
68551POPC   C1A14587  21.726   5.363  10.231 -0.0806  0.4216 -0.0841
68551POPC   D2A14588  22.038   5.116  10.426 -0.0133 -0.0226 -0.4201
68551POPC   C3A14589  22.410   5.003  10.188  0.2034  0.0110 -0.0225
68551POPC   C4A14590  22.899   5.007  10.100 -0.0048 -0.3400  0.0598
68551POPC   C1B14591  21.468   5.280   9.344 -0.2384  0.1252 -0.0251
68551POPC   C2B14592  21.773   5.328   8.955  0.1624  0.2438  0.1095
68551POPC   C3B14593  22.084   5.347   8.624 -0.0589 -0.2599 -0.0222
68551POPC   C4B14594  22.402   5.573   8.439  0.2379 -0.0957  0.2639
68552POPC   NC314595  27.911  15.201  16.033  0.0959  0.1191 -0.0263
68552POPC   PO414596  27.723  14.863  16.021  0.3658 -0.0360  0.0532
68552POPC   GL114597  27.668  14.935  16.444 -0.0587 -0.1698  0.2119
68552POPC   GL214598  27.389  14.971  16.434  0.1125  0.0702  0.0115
68552POPC   C1A14599  27.681  15.013  16.912  0.0111  0.2451  0.1014
68552POPC   D2A14600  27.669  15.226  17.329  0.1045  0.0460 -0.3994
68552POPC   C3A14601  27.766  15.540  17.604  0.0364 -0.2754  0.1188
68552POPC   C4A14602  28.071  15.872  17.704  0.0689 -0.2355  0.0981
68552POPC   C1B14603  26.993  14.858  16.703 -0.0516 -0.2469  0.0810
68552POPC   C2B14604  26.813  14.637  17.103 -0.1555 -0.4979 -0.0709
68552POPC   C3B14605  26.753  14.655  17.534 -0.3725  0.1962 -0.1131
68552POPC   C4B14606  26.443  14.716  17.877  0.0119  0.3811 -0.2779
68553POPC   NC314607  21.345   1.497   9.226 -0.1180  0.0196 -0.1944
68553POPC   PO414608  21.098   1.646   9.481 -0.2423  0.1180  0.2182
68553POPC   GL114609  20.860   1.501   9.154  0.6380 -0.1052 -0.0357
68553POPC   GL214610  20.975   1.396   8.868 -0.1751 -0.0831  0.0638
68553POPC   C1A14611  20.680   1.806   8.854 -0.1385  0.0107 -0.3388
68553POPC   D2A14612  20.712   2.096   8.481 -0.2472  0.0434  0.1407
68553POPC   C3A14613  20.894   2.185   8.077 -0.2983 -0.4416 -0.1491
68553POPC   C4A14614  21.094   2.194   7.666  0.1576 -0.0853 -0.4515
68553POPC   C1B14615  21.055   1.739   8.579 -0.4613  0.0312  0.2005
68553POPC   C2B14616  21.324   2.001   8.279  0.2263 -0.0338 -0.0946
68553POPC   C3B14617  21.630   2.128   7.970  0.0759  0.1628  0.4086
68553POPC   C4B14618  21.931   2.375   7.681 -0.2759 -0.3471  0.0347
68554POPC   NC314619  26.155   0.306  13.359 -0.0480  0.0532  0.1041
68554POPC   PO414620  25.833   0.484  13.484  0.1660  0.2411  0.1559
68554POPC   GL114621  26.026   0.742  13.582  0.0059 -0.8014 -0.0958
68554POPC   GL214622  25.826   0.938  13.717  0.0397  0.3009 -0.2722
68554POPC   C1A14623  26.146   1.166  13.420  0.0114 -0.1964 -0.0831
68554POPC   D2A14624  26.202   1.493  13.058  0.0094  0.1813 -0.0023
68554POPC   C3A14625  26.067   1.929  13.052  0.0027  0.1388  0.1591
68554POPC   C4A14626  25.970   2.340  13.137  0.0063  0.1774 -0.0399
68554POPC   C1B14627  25.875   1.315  13.874 -0.2025 -0.0551 -0.0703
68554POPC   C2B14628  25.961   1.668  14.160  0.2816  0.1536 -0.0246
68554POPC   C3B14629  26.159   1.913  14.343 -0.0865 -0.1076  0.0668
68554POPC   C4B14630  26.113   2.290  14.540 -0.2920  0.0629 -0.1598
68555POPC   NC314631  19.335   6.836   9.304 -0.0110 -0.1083 -0.1835
68555POPC   PO414632  18.939   6.805   9.278 -0.2496  0.0610  0.0216
68555POPC   GL114633  19.117   6.539   8.969  0.0228  0.0761 -0.0378
68555POPC   GL214634  19.295   6.295   9.044 -0.2835  0.0664 -0.3206
68555POPC   C1A14635  19.099   6.722   8.522 -0.0216  0.1985  0.0805
68555POPC   D2A14636  19.091   6.840   8.105  0.0221  0.2106 -0.1001
68555POPC   C3A14637  19.165   6.530   7.748 -0.1444 -0.3558  0.1409
68555POPC   C4A14638  19.275   6.313   7.375 -0.2559 -0.0310  0.2515
68555POPC   C1B14639  19.494   6.215   8.668  0.2841 -0.1345 -0.1798
68555POPC   C2B14640  19.727   6.090   8.328  0.2525 -0.0496  0.0825
68555POPC   C3B14641  20.021   5.896   8.039  0.0913 -0.3441 -0.1631
68555POPC   C4B14642  20.180   5.862   7.604 -0.1118  0.3315  0.0281
68556POPC   NC314643  30.253  13.893   8.515 -0.0428 -0.0946 -0.2839
68556POPC   PO414644  30.619  14.057   8.407 -0.1898 -0.2116 -0.0109
68556POPC   GL114645  30.513  13.765   8.168  0.1023 -0.1173  0.3000
68556POPC   GL214646  30.704  13.875   7.949 -0.0566  0.0576 -0.0891
68556POPC   C1A14647  30.524  13.387   7.863 -0.1052  0.0842  0.2610
68556POPC   D2A14648  30.490  13.192   7.446 -0.0601  0.0153 -0.1109
68556POPC   C3A14649  30.606  13.459   7.076  0.2237  0.1396  0.3987
68556POPC   C4A14650  30.867  13.802   6.965 -0.0029 -0.0541  0.2481
68556POPC   C1B14651  30.621  13.730   7.512 -0.1019  0.0253  0.0806
68556POPC   C2B14652  30.407  13.933   7.161 -0.1844  0.0513  0.0925
68556POPC   C3B14653  30.073  14.253   6.977 -0.0998  0.0573 -0.0778
68556POPC   C4B14654  29.899  14.430   6.623  0.0993 -0.0397 -0.0041
68557POPC   NC314655  20.952   5.945  11.245  0.3749 -0.0925  0.0155
68557POPC   PO414656  20.932   6.018  11.641 -0.2629 -0.4811  0.1350
68557POPC   GL114657  21.227   6.250  11.771 -0.3406  0.0544 -0.0775
68557POPC   GL214658  21.519   6.146  11.668 -0.3144 -0.0802  0.2337
68557POPC   C1A14659  21.369   6.653  11.635 -0.0864  0.2270  0.0580
68557POPC   D2A14660  21.648   6.946  11.466 -0.2794  0.0887 -0.0221
68557POPC   C3A14661  22.016   6.873  11.730 -0.1392 -0.0090  0.0857
68557POPC   C4A14662  22.467   6.766  11.686 -0.0144 -0.1527 -0.1471
68557POPC   C1B14663  21.710   5.757  11.548 -0.0459  0.0389  0.1217
68557POPC   C2B14664  22.086   5.714  11.265  0.0681  0.1555 -0.0599
68557POPC   C3B14665  22.355   5.721  10.924 -0.1612  0.0824 -0.0882
68557POPC   C4B14666  22.367   6.066  10.635 -0.0372 -0.2179  0.0968
68558POPC   NC314667  20.072   6.859   9.825 -0.0414 -0.1139 -0.1027
68558POPC   PO414668  19.730   6.828   9.684 -0.2332 -0.0369  0.3505
68558POPC   GL114669  19.950   6.971   9.342 -0.0177 -0.0972  0.0529
68558POPC   GL214670  19.738   7.113   9.226  0.3108  0.0030  0.1671
68558POPC   C1A14671  20.082   6.765   8.938  0.2056 -0.0553  0.1274
68558POPC   D2A14672  20.024   6.401   8.667  0.1899  0.0793  0.2507
68558POPC   C3A14673  20.205   6.442   8.233 -0.0752  0.2148 -0.0071
68558POPC   C4A14674  20.520   6.485   7.900  0.2236  0.2036  0.0207
68558POPC   C1B14675  20.054   7.398   9.002 -0.0734  0.1139  0.0226
68558POPC   C2B14676  20.187   7.430   8.578 -0.2975  0.3657 -0.3292
68558POPC   C3B14677  20.137   7.407   8.110 -0.0727 -0.1732  0.3437
68558POPC   C4B14678  20.246   7.348   7.696 -0.0347  0.2574  0.3138
68559POPC   NC314679  31.820  15.508   8.578  0.1508 -0.4088 -0.0188
68559POPC   PO414680  31.484  15.626   8.360 -0.0832 -0.0735 -0.0480
68559POPC   GL114681  31.480  15.854   8.035 -0.2957 -0.1400  0.2541
68559POPC   GL214682  31.234  15.977   7.834  0.1926  0.1407  0.6530
68559POPC   C1A14683  31.813  15.748   7.717  0.0650 -0.2368 -0.1246
68559POPC   D2A14684  32.152  15.569   7.544  0.1226  0.2207 -0.0772
68559POPC   C3A14685  32.154  15.295   7.196  0.0080  0.0236 -0.1415
68559POPC   C4A14686  32.143  14.844   7.119  0.2804 -0.0509  0.3580
68559POPC   C1B14687  31.307  15.831   7.409 -0.1058  0.0755  0.0035
68559POPC   C2B14688  31.525  16.036   7.047 -0.1602 -0.0965 -0.0345
68559POPC   C3B14689  31.446  16.211   6.584  0.0519 -0.1674 -0.2282
68559POPC   C4B14690  31.256  16.456   6.290  0.0415  0.2810 -0.0779
68560POPC   NC314691  25.828  12.681   9.614 -0.0223  0.0809  0.1211
68560POPC   PO414692  26.198  12.804   9.680  0.0251 -0.1818 -0.3366
68560POPC   GL114693  26.251  12.610   9.270  0.1543  0.0635  0.0092
68560POPC   GL214694  26.103  12.364   9.372 -0.0722  0.0593 -0.0385
68560POPC   C1A14695  26.510  12.551   8.859  0.3734  0.1642  0.1266
68560POPC   D2A14696  26.529  12.679   8.385 -0.0802  0.2504 -0.0168
68560POPC   C3A14697  26.672  12.334   8.094 -0.0603 -0.0038 -0.0903
68560POPC   C4A14698  26.816  11.910   8.107  0.1280 -0.1615 -0.2838
68560POPC   C1B14699  26.293  12.002   9.053 -0.2521 -0.0996  0.0127
68560POPC   C2B14700  26.631  11.713   8.871  0.4695 -0.1701 -0.0366
68560POPC   C3B14701  26.766  11.597   8.449  0.0585  0.0084 -0.1535
68560POPC   C4B14702  27.119  11.415   8.284  0.2561 -0.1445 -0.2810
68561POPC   NC314703  22.746  13.586   8.687  0.0793  0.1510  0.3414
68561POPC   PO414704  22.980  13.271   8.632  0.3344 -0.0059  0.0992
68561POPC   GL114705  23.073  13.494   8.352 -0.0752 -0.2380 -0.0801
68561POPC   GL214706  22.984  13.728   8.216  0.3572 -0.1125 -0.2564
68561POPC   C1A14707  23.413  13.573   8.059  0.1601 -0.2244 -0.0945
68561POPC   D2A14708  23.835  13.413   7.876  0.1771  0.1031 -0.0813
68561POPC   C3A14709  23.936  13.339   7.451 -0.2002  0.2142  0.1834
68561POPC   C4A14710  24.262  13.507   7.178  0.2232 -0.0193 -0.3609
68561POPC   C1B14711  22.883  13.926   7.787 -0.1474 -0.3287  0.0522
68561POPC   C2B14712  23.070  13.867   7.362 -0.0369 -0.4019  0.0350
68561POPC   C3B14713  23.220  13.755   6.967 -0.2682  0.1046  0.0282
68561POPC   C4B14714  23.401  13.646   6.592  0.2993  0.2896  0.1415
68562POPC   NC314715  17.323  32.756   7.875 -0.2114  0.0096  0.4120
68562POPC   PO414716  17.663  32.891   8.022 -0.1176 -0.0242  0.0491
68562POPC   GL114717  17.558  33.144   7.750 -0.1918  0.1940  0.0923
68562POPC   GL214718  17.630  33.377   7.846  0.1085  0.1881  0.3553
68562POPC   C1A14719  17.330  33.060   7.392  0.0942 -0.2926 -0.0310
68562POPC   D2A14720  17.310  33.202   6.946 -0.0940 -0.2910 -0.0701
68562POPC   C3A14721  16.904  33.386   6.939 -0.2651  0.0610  0.0105
68562POPC   C4A14722  16.759  33.659   6.628 -0.1023 -0.0049  0.2274
68562POPC   C1B14723  17.681  33.509   7.402  0.2765 -0.0403  0.1541
68562POPC   C2B14724  17.849  33.484   7.004 -0.1327  0.2188  0.0697
68562POPC   C3B14725  17.562  33.524   6.641  0.0600 -0.3891  0.2757
68562POPC   C4B14726  17.178  33.522   6.431 -0.1764 -0.4275  0.2588
68563POPC   NC314727  17.346  14.206   8.083  0.0071  0.0490  0.0101
68563POPC   PO414728  17.558  14.506   7.940 -0.1395  0.0015  0.2100
68563POPC   GL114729  17.517  14.651   7.541 -0.4839 -0.2194  0.4504
68563POPC   GL214730  17.705  14.472   7.419  0.0616  0.0877  0.3584
68563POPC   C1A14731  17.234  14.642   7.181  0.1810  0.1492  0.0088
68563POPC   D2A14732  17.086  14.849   6.771 -0.4195  0.1974  0.0470
68563POPC   C3A14733  16.891  14.545   6.527  0.0933 -0.1741  0.1932
68563POPC   C4A14734  16.673  14.144   6.404  0.2034  0.0071  0.0198
68563POPC   C1B14735  17.713  14.549   6.947 -0.0814 -0.1176  0.1944
68563POPC   C2B14736  17.685  14.700   6.523 -0.0885  0.0780 -0.2605
68563POPC   C3B14737  17.826  14.780   6.058 -0.0877  0.1996  0.1179
68563POPC   C4B14738  17.894  15.052   5.669 -0.0438 -0.0633  0.0211
68564POPC   NC314739  30.793   4.581  10.614  0.1199 -0.0866  0.3438
68564POPC   PO414740  30.731   4.841  10.385  0.1396 -0.4381  0.0523
68564POPC   GL114741  30.386   4.794  10.156 -0.1845 -0.1819 -0.0220
68564POPC   GL214742  30.290   4.569  10.284 -0.1758  0.0422 -0.2210
68564POPC   C1A14743  30.055   5.130  10.127  0.0490 -0.0155  0.1792
68564POPC   D2A14744  29.845   5.542  10.017 -0.0194  0.0797  0.0572
68564POPC   C3A14745  29.422   5.641  10.083  0.1869 -0.3172 -0.1267
68564POPC   C4A14746  29.027   5.921  10.071  0.0643 -0.0774 -0.3161
68564POPC   C1B14747  29.887   4.378  10.196 -0.0087 -0.2487 -0.1327
68564POPC   C2B14748  29.476   4.368   9.944 -0.0594  0.0976 -0.2556
68564POPC   C3B14749  29.303   4.668   9.592 -0.1902 -0.1647 -0.1475
68564POPC   C4B14750  28.971   4.828   9.300 -0.0940  0.0909 -0.1176
68565POPC   NC314751  20.519   5.734  13.428 -0.0542 -0.1165  0.1523
68565POPC   PO414752  20.812   5.712  13.691  0.5031 -0.2045  0.0735
68565POPC   GL114753  21.131   5.636  13.975  0.0724 -0.3656 -0.2805
68565POPC   GL214754  21.444   5.501  13.901  0.2175 -0.1699  0.1104
68565POPC   C1A14755  21.217   5.331  14.323  0.0298 -0.2707 -0.3147
68565POPC   D2A14756  21.398   5.089  14.670 -0.1476  0.1704  0.1281
68565POPC   C3A14757  21.858   5.024  14.845 -0.0452 -0.2845 -0.0272
68565POPC   C4A14758  22.157   4.723  15.070  0.1079 -0.0976 -0.0430
68565POPC   C1B14759  21.817   5.785  13.824  0.2648  0.0141  0.2911
68565POPC   C2B14760  22.263   5.736  13.692 -0.3561 -0.1043 -0.0287
68565POPC   C3B14761  22.690   5.576  13.740 -0.2676  0.1023 -0.1769
68565POPC   C4B14762  23.102   5.436  13.680 -0.1392 -0.1329  0.0677
68566POPC   NC314763  32.186   7.489   9.994 -0.1536  0.0995  0.3054
68566POPC   PO414764  32.344   7.598   9.646  0.0715 -0.1538 -0.1006
68566POPC   GL114765  31.941   7.539   9.543 -0.4055  0.0113  0.3132
68566POPC   GL214766  31.754   7.443   9.698 -0.4156  0.0348 -0.0884
68566POPC   C1A14767  31.578   7.675   9.306 -0.0996  0.0015  0.0929
68566POPC   D2A14768  31.285   7.940   9.237  0.2184  0.0470  0.1783
68566POPC   C3A14769  30.792   7.871   9.074  0.0896  0.2372  0.2960
68566POPC   C4A14770  30.527   7.962   8.685  0.2136 -0.0850  0.0544
68566POPC   C1B14771  31.575   7.204   9.363 -0.2447  0.1115  0.3053
68566POPC   C2B14772  31.539   6.946   8.975 -0.0449  0.0274 -0.0737
68566POPC   C3B14773  31.329   6.922   8.524 -0.2868  0.1073  0.1535
68566POPC   C4B14774  30.985   7.163   8.391  0.1212  0.2075  0.0651
68567POPC   NC314775  20.537   6.664  12.689 -0.1896  0.1008 -0.0524
68567POPC   PO414776  20.831   6.781  12.921  0.0657 -0.0350  0.0825
68567POPC   GL114777  21.178   6.747  12.696 -0.4909  0.3405 -0.0298
68567POPC   GL214778  21.272   6.932  12.529 -0.3486  0.2284  0.2599
68567POPC   C1A14779  21.603   6.535  12.720 -0.1659  0.0218 -0.2993
68567POPC   D2A14780  21.933   6.660  12.362 -0.0886 -0.0352  0.2611
68567POPC   C3A14781  22.279   6.626  12.161  0.0080  0.1243 -0.2495
68567POPC   C4A14782  22.666   6.460  11.982 -0.2333 -0.1054 -0.3719
68567POPC   C1B14783  21.736   7.008  12.630  0.1516 -0.1148  0.1217
68567POPC   C2B14784  22.048   6.782  12.848  0.0607 -0.0139  0.1573
68567POPC   C3B14785  22.481   6.614  12.753 -0.1878  0.0374  0.0331
68567POPC   C4B14786  22.779   6.552  12.452 -0.0016 -0.0955 -0.4059
68568POPC   NC314787  25.745  13.300   8.922  0.1174 -0.0919  0.0088
68568POPC   PO414788  25.346  13.268   9.007  0.1982  0.3216 -0.0370
68568POPC   GL114789  25.207  13.148   8.716  0.0532 -0.0576 -0.1166
68568POPC   GL214790  24.942  13.035   8.706 -0.2858 -0.2902 -0.1391
68568POPC   C1A14791  25.271  13.305   8.292  0.0538  0.1110  0.0765
68568POPC   D2A14792  25.218  13.438   7.887  0.1514 -0.0456 -0.2146
68568POPC   C3A14793  25.506  13.562   7.567 -0.3946 -0.1876 -0.2929
68568POPC   C4A14794  25.861  13.649   7.287 -0.1091 -0.1804 -0.2015
68568POPC   C1B14795  25.017  12.719   8.378  0.2725 -0.1340  0.1253
68568POPC   C2B14796  25.152  12.467   7.970 -0.0670 -0.1575  0.2965
68568POPC   C3B14797  24.965  12.299   7.579  0.2683 -0.1560  0.1232
68568POPC   C4B14798  24.771  12.057   7.270  0.3214 -0.2456  0.2503
68569POPC   NC314799  19.602  14.371   8.432  0.1018 -0.1976 -0.1708
68569POPC   PO414800  19.505  14.268   8.082 -0.0998 -0.3213  0.0129
68569POPC   GL114801  19.653  14.248   7.709  0.1642 -0.2040 -0.1361
68569POPC   GL214802  19.908  14.148   7.775 -0.2463  0.1710 -0.2144
68569POPC   C1A14803  19.411  14.365   7.310  0.1848  0.0559 -0.1365
68569POPC   D2A14804  18.911  14.368   7.295  0.1130 -0.2249  0.0714
68569POPC   C3A14805  18.593  14.371   6.934 -0.0630 -0.0873 -0.1843
68569POPC   C4A14806  18.534  14.223   6.511 -0.0087  0.0211  0.5244
68569POPC   C1B14807  20.071  14.166   7.325  0.2490 -0.0701 -0.1393
68569POPC   C2B14808  20.052  14.353   6.915  0.1129 -0.5575  0.0656
68569POPC   C3B14809  20.170  14.192   6.505 -0.1332  0.0502  0.0024
68569POPC   C4B14810  20.156  14.035   6.076 -0.1972  0.2469  0.3490
68570POPC   NC314811  32.665   7.267   9.891 -0.0993  0.0127  0.0913
68570POPC   PO414812  32.429   7.102  10.198 -0.2275 -0.1268  0.0584
68570POPC   GL114813  32.341   6.977   9.758 -0.2723  0.2347 -0.1136
68570POPC   GL214814  32.151   7.102   9.604 -0.1964 -0.2929  0.2076
68570POPC   C1A14815  32.064   6.625   9.582 -0.2649 -0.1803 -0.0563
68570POPC   D2A14816  32.072   6.273   9.320 -0.0796 -0.4088 -0.1495
68570POPC   C3A14817  32.084   6.141   8.917  0.0512  0.1546 -0.0259
68570POPC   C4A14818  32.090   6.143   8.475 -0.1175  0.0501  0.1095
68570POPC   C1B14819  31.980   7.019   9.185  0.2936  0.0174  0.3074
68570POPC   C2B14820  31.957   7.131   8.731 -0.0095  0.0479 -0.1142
68570POPC   C3B14821  32.085   7.466   8.507 -0.1992 -0.3161 -0.3837
68570POPC   C4B14822  32.133   7.721   8.098 -0.0432 -0.1122  0.1311
68571POPC   NC314823  30.188   8.983  11.518 -0.1511  0.2632 -0.1709
68571POPC   PO414824  30.008   9.151  11.228 -0.2386 -0.1473  0.0418
68571POPC   GL114825  29.752   8.919  11.149  0.1289  0.3001  0.0248
68571POPC   GL214826  29.556   9.064  10.976  0.1288 -0.2460 -0.0261
68571POPC   C1A14827  29.633   8.591  10.844  0.0867  0.5257  0.2297
68571POPC   D2A14828  29.753   8.198  10.628  0.0550 -0.1368 -0.1045
68571POPC   C3A14829  30.066   8.337  10.288 -0.0456  0.0598  0.1319
68571POPC   C4A14830  30.222   8.512   9.916 -0.2815  0.0763  0.0589
68571POPC   C1B14831  29.246   9.048  10.664  0.1142  0.1019 -0.0473
68571POPC   C2B14832  28.964   8.826  10.314 -0.2607  0.0969 -0.2671
68571POPC   C3B14833  28.787   8.555   9.948 -0.2763  0.1055  0.1884
68571POPC   C4B14834  28.780   8.350   9.578  0.0623 -0.2967  0.3856
68572POPC   NC314835  18.367  15.499   8.321  0.0308 -0.0422 -0.3352
68572POPC   PO414836  18.216  15.225   8.060 -0.0757  0.1483  0.0523
68572POPC   GL114837  18.262  15.133   7.695  0.0453  0.0245 -0.1904
68572POPC   GL214838  18.053  15.314   7.597  0.0060 -0.1349 -0.0891
68572POPC   C1A14839  18.435  15.078   7.270  0.2613 -0.0533  0.2265
68572POPC   D2A14840  18.449  15.134   6.840  0.3954  0.1387  0.0849
68572POPC   C3A14841  18.583  14.755   6.573 -0.3584  0.3208 -0.0737
68572POPC   C4A14842  18.728  14.505   6.122 -0.0615 -0.1069  0.1107
68572POPC   C1B14843  18.155  15.421   7.179 -0.0293  0.2679  0.0188
68572POPC   C2B14844  18.148  15.476   6.712 -0.2378 -0.1283 -0.0986
68572POPC   C3B14845  17.933  15.682   6.314 -0.2344 -0.0796 -0.1734
68572POPC   C4B14846  17.664  15.878   6.006 -0.3070 -0.0004  0.1816
68573POPC   NC314847  17.628   8.021   9.205  0.1108  0.1767 -0.1055
68573POPC   PO414848  18.027   7.937   9.242  0.0181 -0.2719 -0.1494
68573POPC   GL114849  18.214   7.625   9.004  0.1229  0.3071  0.0994
68573POPC   GL214850  18.094   7.404   8.908  0.1060  0.1215  0.1730
68573POPC   C1A14851  18.387   7.510   8.537  0.1616 -0.0211 -0.0897
68573POPC   D2A14852  18.180   7.646   8.119  0.3049 -0.0310  0.3485
68573POPC   C3A14853  18.170   7.505   7.661 -0.0525 -0.1296 -0.3889
68573POPC   C4A14854  18.029   7.694   7.230 -0.0739  0.1937  0.0580
68573POPC   C1B14855  17.846   7.396   8.520 -0.2376  0.2488  0.0589
68573POPC   C2B14856  17.759   7.256   8.074 -0.0440  0.1019 -0.0294
68573POPC   C3B14857  17.790   7.185   7.617 -0.0782 -0.2990 -0.1177
68573POPC   C4B14858  17.940   6.991   7.257  0.2265 -0.1036  0.1446
68574POPC   NC314859  28.189   1.322  10.372  0.0463  0.0948 -0.3552
68574POPC   PO414860  27.939   1.581  10.178 -0.0629  0.0488 -0.0801
68574POPC   GL114861  27.684   1.776  10.088 -0.0845  0.0067  0.1872
68574POPC   GL214862  27.428   1.637  10.168  0.1608 -0.2804  0.1504
68574POPC   C1A14863  27.683   2.142   9.850 -0.1244 -0.4095 -0.0081
68574POPC   D2A14864  27.657   2.401   9.544  0.2367  0.1121  0.3105
68574POPC   C3A14865  27.589   2.834   9.365 -0.1502 -0.0472  0.1818
68574POPC   C4A14866  27.527   3.206   9.154 -0.0304  0.0862  0.2164
68574POPC   C1B14867  27.208   1.884   9.844 -0.1619 -0.1524 -0.3209
68574POPC   C2B14868  27.166   2.243   9.547  0.1224 -0.1883 -0.1488
68574POPC   C3B14869  27.054   2.691   9.415  0.2799 -0.1770 -0.1179
68574POPC   C4B14870  27.094   3.124   9.323  0.3390 -0.3157  0.0101
68575POPC   NC314871  17.812  13.150   7.811  0.0204 -0.0471  0.1537
68575POPC   PO414872  18.064  13.480   7.943 -0.1433  0.0546 -0.2060
68575POPC   GL114873  18.104  13.642   7.532 -0.1033 -0.0470  0.2070
68575POPC   GL214874  17.825  13.576   7.472 -0.0050  0.1338  0.1115
68575POPC   C1A14875  18.206  13.322   7.203  0.2915  0.2498 -0.1203
68575POPC   D2A14876  18.222  13.357   6.744 -0.2979 -0.1242 -0.1033
68575POPC   C3A14877  17.922  13.257   6.387 -0.1730 -0.1292 -0.0326
68575POPC   C4A14878  17.626  13.253   5.991  0.1314  0.0548 -0.1287
68575POPC   C1B14879  17.912  13.714   6.993 -0.1829  0.1486  0.0478
68575POPC   C2B14880  17.948  13.775   6.540  0.2105 -0.1468  0.2392
68575POPC   C3B14881  18.238  13.857   6.219 -0.0142 -0.0098  0.2120
68575POPC   C4B14882  18.289  13.921   5.751 -0.1287 -0.2724  0.2688
68576POPC   NC314883  20.026   9.147   9.204 -0.1025 -0.4533  0.1231
68576POPC   PO414884  19.785   8.833   9.093  0.1367  0.2930  0.0217
68576POPC   GL114885  19.592   8.810   8.686 -0.0030 -0.0380  0.1530
68576POPC   GL214886  19.866   8.952   8.554 -0.0738 -0.0181 -0.1304
68576POPC   C1A14887  19.571   8.684   8.247 -0.0914  0.0716  0.2576
68576POPC   D2A14888  19.299   8.377   8.130  0.1514  0.2727  0.1348
68576POPC   C3A14889  19.334   7.958   7.930  0.1607 -0.0131  0.2477
68576POPC   C4A14890  19.196   7.727   7.526 -0.2113 -0.1909  0.0929
68576POPC   C1B14891  19.937   9.046   8.111 -0.1226 -0.3546 -0.2580
68576POPC   C2B14892  19.796   8.845   7.696  0.1377  0.1260 -0.1096
68576POPC   C3B14893  19.752   8.734   7.237 -0.2002  0.1314 -0.0838
68576POPC   C4B14894  19.469   8.582   6.937  0.2002 -0.0847  0.1142
68577POPC   NC314895  20.625   8.517   9.319  0.0680  0.1143 -0.1255
68577POPC   PO414896  20.798   8.800   9.529  0.1427  0.1435  0.1367
68577POPC   GL114897  21.129   8.610   9.369  0.1136  0.1961 -0.1397
68577POPC   GL214898  21.142   8.854   9.144  0.2603  0.2020 -0.1888
68577POPC   C1A14899  21.190   8.343   8.968  0.0805 -0.0255 -0.0986
68577POPC   D2A14900  21.477   8.213   8.675  0.1508  0.1028  0.1190
68577POPC   C3A14901  21.583   7.801   8.864 -0.0049  0.1257 -0.1080
68577POPC   C4A14902  21.825   7.577   9.180 -0.1911  0.4893 -0.0914
68577POPC   C1B14903  21.419   8.693   8.737 -0.0018  0.0230  0.1082
68577POPC   C2B14904  21.679   8.616   8.332  0.0233 -0.2408 -0.3847
68577POPC   C3B14905  22.043   8.611   8.057 -0.0558  0.0380 -0.2621
68577POPC   C4B14906  22.392   8.898   8.031 -0.0356 -0.2748  0.0393
68578POPC   NC314907  29.407  17.333   9.552  0.1482  0.1612  0.1442
68578POPC   PO414908  29.196  17.273   9.228 -0.0731 -0.2584  0.2445
68578POPC   GL114909  28.951  17.458   8.892  0.2371 -0.1249  0.1687
68578POPC   GL214910  29.172  17.582   8.746  0.2121  0.0778  0.1595
68578POPC   C1A14911  28.683  17.877   8.903 -0.0481  0.0737  0.2065
68578POPC   D2A14912  28.562  18.300   8.848 -0.0052 -0.1014 -0.1522
68578POPC   C3A14913  28.499  18.732   8.992 -0.1635  0.1052 -0.0461
68578POPC   C4A14914  28.558  19.153   8.798  0.2819  0.0916  0.0320
68578POPC   C1B14915  28.844  17.616   8.428 -0.1823  0.1610  0.4358
68578POPC   C2B14916  28.840  17.834   7.986 -0.0953  0.1001  0.3409
68578POPC   C3B14917  28.565  18.051   7.629 -0.1684 -0.0922 -0.3900
68578POPC   C4B14918  28.246  18.399   7.504 -0.4973 -0.2396  0.0402
68579POPC   NC314919  22.710   2.464  11.098  0.1329 -0.0149  0.1365
68579POPC   PO414920  22.712   2.514  11.467 -0.0490  0.0214 -0.1975
68579POPC   GL114921  22.811   2.905  11.396  0.1236  0.0630 -0.1521
68579POPC   GL214922  22.992   2.852  11.208  0.3317 -0.3243  0.0889
68579POPC   C1A14923  23.149   3.207  11.526 -0.1345  0.3286  0.0929
68579POPC   D2A14924  23.480   3.388  11.328 -0.1826  0.1718 -0.0117
68579POPC   C3A14925  23.927   3.399  11.202  0.1543  0.3363 -0.0464
68579POPC   C4A14926  24.287   3.394  11.412 -0.1695 -0.0426  0.0969
68579POPC   C1B14927  23.250   3.168  10.944 -0.1646 -0.1234 -0.2349
68579POPC   C2B14928  23.698   3.185  10.815  0.0125 -0.1245  0.0532
68579POPC   C3B14929  24.141   3.320  10.738  0.4087  0.2496 -0.0506
68579POPC   C4B14930  24.554   3.566  10.882  0.0853 -0.1470  0.0116
68580POPC   NC314931  24.327   0.489   9.719 -0.1108 -0.0169  0.4594
68580POPC   PO414932  24.553   0.570  10.011 -0.3537  0.3546 -0.3033
68580POPC   GL114933  24.814   0.736   9.675 -0.2275  0.0395  0.0388
68580POPC   GL214934  25.029   0.449   9.535  0.0063 -0.2443  0.1062
68580POPC   C1A14935  24.564   0.943   9.358 -0.0851 -0.1961 -0.0685
68580POPC   D2A14936  24.376   1.177   9.016  0.0990 -0.2349 -0.1500
68580POPC   C3A14937  24.528   1.650   8.996 -0.0133 -0.2974  0.1611
68580POPC   C4A14938  24.509   2.065   9.096  0.0441  0.0644  0.2650
68580POPC   C1B14939  25.068   0.874   9.302 -0.0008 -0.0015 -0.1742
68580POPC   C2B14940  24.914   1.284   9.179 -0.1265 -0.1898  0.0896
68580POPC   C3B14941  25.075   1.613   8.888  0.0052 -0.0839  0.0876
68580POPC   C4B14942  25.209   1.756   8.516 -0.1181  0.0348  0.1171
68581POPC   NC314943  27.952  12.091   9.989 -0.2890  0.0539  0.1411
68581POPC   PO414944  28.009  11.712  10.097 -0.0125 -0.0176 -0.0347
68581POPC   GL114945  28.106  11.612   9.667  0.1418 -0.3283  0.1216
68581POPC   GL214946  28.309  11.502   9.708 -0.0417  0.2394  0.1352
68581POPC   C1A14947  28.001  11.168   9.430 -0.0115  0.0586  0.0014
68581POPC   D2A14948  28.272  10.859   9.140 -0.1678  0.1415 -0.0149
68581POPC   C3A14949  28.163  10.493   8.916 -0.0658 -0.0851 -0.1917
68581POPC   C4A14950  27.989  10.411   8.489 -0.0513 -0.0856  0.0084
68581POPC   C1B14951  28.420  11.495   9.285  0.0684 -0.2620  0.1047
68581POPC   C2B14952  28.119  11.357   8.961  0.1670  0.0826  0.0267
68581POPC   C3B14953  27.845  11.460   8.549  0.0003 -0.1581  0.1423
68581POPC   C4B14954  27.603  11.571   8.232  0.0417 -0.0297 -0.0384
68582POPC   NC314955  20.848   6.036  14.648 -0.0293  0.2479 -0.0481
68582POPC   PO414956  20.961   6.219  14.336 -0.0693  0.2687  0.1555
68582POPC   GL114957  21.213   5.945  14.376 -0.2092  0.0966 -0.2867
68582POPC   GL214958  21.336   6.041  14.639 -0.2169  0.0697  0.0336
68582POPC   C1A14959  21.666   5.841  14.268 -0.0944  0.0528  0.0509
68582POPC   D2A14960  22.139   5.909  14.158 -0.0874  0.1916 -0.1638
68582POPC   C3A14961  22.376   5.691  14.534 -0.1190 -0.0370 -0.0179
68582POPC   C4A14962  22.803   5.634  14.744  0.1292 -0.0571 -0.2369
68582POPC   C1B14963  21.806   6.014  14.713 -0.1231 -0.3627 -0.3916
68582POPC   C2B14964  22.159   5.932  14.951  0.3044 -0.0424 -0.1692
68582POPC   C3B14965  22.285   6.028  15.352  0.2687  0.0558 -0.2645
68582POPC   C4B14966  22.142   5.998  15.761  0.2999  0.3363  0.0158
68583POPC   NC314967  19.811   5.778  15.008 -0.1450  0.0488  0.1570
68583POPC   PO414968  20.029   6.093  14.957 -0.2376  0.2841 -0.0058
68583POPC   GL114969  20.124   5.961  15.300  0.2222 -0.3012 -0.2331
68583POPC   GL214970  20.128   5.692  15.448  0.0009 -0.0451 -0.2461
68583POPC   C1A14971  20.498   6.059  15.552 -0.0824  0.2192 -0.1272
68583POPC   D2A14972  20.706   6.045  15.907 -0.0925 -0.0278  0.3573
68583POPC   C3A14973  20.798   6.000  16.395 -0.0751  0.2612 -0.2050
68583POPC   C4A14974  21.142   5.867  16.651 -0.1455  0.1270 -0.2513
68583POPC   C1B14975  20.105   5.820  15.900  0.0100 -0.0666 -0.1791
68583POPC   C2B14976  20.418   5.803  16.243  0.1452  0.1575 -0.0402
68583POPC   C3B14977  20.450   5.873  16.696 -0.0631 -0.1982 -0.1691
68583POPC   C4B14978  20.436   5.938  17.156  0.1931 -0.0614  0.1182
68584POPC   NC314979  30.023  11.912   9.112  0.3753  0.1430 -0.0178
68584POPC   PO414980  29.858  11.727   9.442 -0.1214  0.0506  0.2827
68584POPC   GL114981  29.832  11.445   9.215 -0.1513 -0.1778  0.0478
68584POPC   GL214982  29.896  11.434   8.922  0.0575 -0.0165  0.1578
68584POPC   C1A14983  29.403  11.284   9.112  0.0325  0.3887 -0.1318
68584POPC   D2A14984  29.121  11.162   8.764 -0.0187  0.2602  0.2168
68584POPC   C3A14985  28.795  10.967   8.498 -0.0107  0.3666 -0.2066
68584POPC   C4A14986  28.380  10.710   8.445 -0.2164  0.1671  0.1126
68584POPC   C1B14987  29.964  11.255   8.545 -0.4175  0.2062  0.3399
68584POPC   C2B14988  29.917  10.885   8.265 -0.2265  0.0137  0.0513
68584POPC   C3B14989  29.947  10.467   8.126 -0.0606 -0.4168  0.3859
68584POPC   C4B14990  30.276  10.180   7.988  0.0591 -0.2156  0.1104
68585POPC   NC314991  18.828   6.008   9.693 -0.2182 -0.0955 -0.1214
68585POPC   PO414992  19.053   5.951   9.411 -0.1580  0.3174 -0.0672
68585POPC   GL114993  18.988   5.681   9.065 -0.0411 -0.1025 -0.2259
68585POPC   GL214994  19.033   5.395   9.198  0.1604  0.5084 -0.1564
68585POPC   C1A14995  18.745   5.826   8.667  0.1793 -0.0310  0.1455
68585POPC   D2A14996  18.509   6.012   8.297 -0.2460 -0.1446 -0.0119
68585POPC   C3A14997  18.834   6.141   7.920 -0.2246  0.0235  0.0249
68585POPC   C4A14998  18.806   6.173   7.457 -0.0550  0.0906  0.0859
68585POPC   C1B14999  19.251   5.337   8.804  0.2291  0.0188 -0.3804
68585POPC   C2B15000  19.228   5.355   8.366  0.0288 -0.0333  0.0092
68585POPC   C3B15001  19.546   5.197   7.995  0.0395  0.4759 -0.0662
68585POPC   C4B15002  19.938   5.433   7.874 -0.0950  0.1892  0.1049
68586POPC   NC315003  16.137  16.484   7.993 -0.3149  0.1438 -0.0343
68586POPC   PO415004  16.039  16.693   8.298  0.0777  0.1514  0.0821
68586POPC   GL115005  15.931  17.058   8.076  0.0347 -0.0219  0.2496
68586POPC   GL215006  15.742  16.885   7.909 -0.2242  0.2736  0.2916
68586POPC   C1A15007  15.736  17.375   7.758  0.1759 -0.3685 -0.1354
68586POPC   D2A15008  15.616  17.752   7.447 -0.4128 -0.2462  0.3085
68586POPC   C3A15009  15.546  17.785   6.995 -0.1008  0.0599 -0.3299
68586POPC   C4A15010  15.192  17.925   6.729  0.1127  0.1294 -0.0171
68586POPC   C1B15011  15.574  16.793   7.497 -0.0259  0.0200 -0.1362
68586POPC   C2B15012  15.417  16.796   7.065 -0.0128  0.0971  0.2784
68586POPC   C3B15013  15.302  16.936   6.668  0.1558 -0.0803  0.1502
68586POPC   C4B15014  15.390  17.086   6.254 -0.1064  0.0263 -0.0365
68587POPC   NC315015  16.906   0.639   8.342 -0.1384 -0.0101  0.0317
68587POPC   PO415016  16.627   0.388   8.296 -0.1707  0.0090  0.0046
68587POPC   GL115017  16.479   0.336   7.979  0.3862 -0.1574 -0.0531
68587POPC   GL215018  16.460   0.560   7.828  0.1081 -0.1320  0.2069
68587POPC   C1A15019  16.554   0.026   7.620 -0.2134 -0.0854  0.1410
68587POPC   D2A15020  16.829  -0.039   7.316 -0.0307  0.0517  0.3157
68587POPC   C3A15021  16.793  -0.179   6.880 -0.0666  0.3081  0.1201
68587POPC   C4A15022  16.478  -0.463   6.656 -0.2114  0.1506  0.0426
68587POPC   C1B15023  16.675   0.492   7.418 -0.1454 -0.0124  0.2255
68587POPC   C2B15024  16.484   0.269   7.038  0.1536 -0.1930  0.3387
68587POPC   C3B15025  16.347   0.031   6.699 -0.1795  0.3423 -0.1594
68587POPC   C4B15026  16.184   0.104   6.287 -0.0190  0.2894 -0.2227
68588POPC   NC315027  27.332  32.221  15.005 -0.0349  0.1013  0.0755
68588POPC   PO415028  27.661  32.359  14.873  0.0460 -0.0008 -0.2318
68588POPC   GL115029  27.588  32.659  15.172  0.0212 -0.0126 -0.0858
68588POPC   GL215030  27.731  32.849  15.372 -0.2536  0.0354  0.0731
68588POPC   C1A15031  27.157  32.813  15.246 -0.1060  0.2074 -0.0362
68588POPC   D2A15032  26.762  33.092  15.320 -0.1077  0.1563 -0.1525
68588POPC   C3A15033  26.873  33.510  15.206 -0.0097  0.0711 -0.0606
68588POPC   C4A15034  27.050  33.867  14.910 -0.0539 -0.2316 -0.1945
68588POPC   C1B15035  27.484  33.239  15.483  0.1551 -0.0720 -0.0465
68588POPC   C2B15036  27.179  33.477  15.732  0.0375 -0.1701 -0.1489
68588POPC   C3B15037  26.862  33.629  15.958  0.1786 -0.1248 -0.0843
68588POPC   C4B15038  26.373  33.689  15.945  0.2529 -0.0204  0.1713
68589POPC   NC315039  22.576   8.565  13.501 -0.0983  0.0254 -0.4158
68589POPC   PO415040  22.879   8.829  13.553 -0.0779  0.1477 -0.2353
68589POPC   GL115041  23.245   8.562  13.688  0.2826 -0.0467  0.1039
68589POPC   GL215042  23.446   8.746  13.861  0.0718  0.3486  0.1080
68589POPC   C1A15043  23.492   8.244  13.897 -0.0712 -0.1121 -0.0797
68589POPC   D2A15044  23.684   7.861  13.805 -0.3257  0.2504 -0.2829
68589POPC   C3A15045  23.806   7.638  14.188 -0.1312 -0.1114 -0.4104
68589POPC   C4A15046  24.127   7.452  14.482  0.0117 -0.4366 -0.0094
68589POPC   C1B15047  23.601   8.601  14.231  0.1469 -0.0416  0.0381
68589POPC   C2B15048  23.781   8.215  14.326  0.2704 -0.2621 -0.0668
68589POPC   C3B15049  23.531   7.869  14.492  0.1043 -0.0002 -0.1042
68589POPC   C4B15050  23.306   7.507  14.650  0.0480  0.0691 -0.2075
68590POPC   NC315051  28.278  12.818   9.621 -0.0411  0.1142  0.0780
68590POPC   PO415052  28.281  12.480   9.849 -0.1494 -0.1100 -0.0234
68590POPC   GL115053  28.054  12.310   9.586  0.1143 -0.5749  0.1527
68590POPC   GL215054  28.232  12.449   9.299  0.0832  0.1936  0.1010
68590POPC   C1A15055  28.155  11.967   9.270 -0.2545  0.3259 -0.1415
68590POPC   D2A15056  27.965  11.831   8.898  0.2611 -0.0665  0.2042
68590POPC   C3A15057  27.568  11.887   8.717 -0.3513 -0.0991  0.3904
68590POPC   C4A15058  27.180  11.871   8.470 -0.3393 -0.1261 -0.2168
68590POPC   C1B15059  28.284  12.369   8.897  0.0607  0.0234 -0.0623
68590POPC   C2B15060  28.305  12.415   8.472  0.4413 -0.2287  0.1305
68590POPC   C3B15061  27.973  12.445   8.143 -0.0952  0.0071  0.1670
68590POPC   C4B15062  27.760  12.273   7.757  0.0860  0.3686 -0.1043
68591POPC   NC315063  15.946   5.058   9.768  0.2869 -0.0750  0.2658
68591POPC   PO415064  16.119   4.703   9.708  0.0903  0.0921  0.2492
68591POPC   GL115065  15.833   4.793   9.388  0.3639 -0.1629  0.1120
68591POPC   GL215066  15.808   5.031   9.273  0.3409 -0.1335 -0.1373
68591POPC   C1A15067  15.855   4.652   8.975  0.0824 -0.1421  0.0967
68591POPC   D2A15068  15.976   4.468   8.578 -0.2897  0.2521 -0.1494
68591POPC   C3A15069  16.107   4.674   8.195 -0.0746 -0.0092 -0.3073
68591POPC   C4A15070  16.458   4.889   7.970 -0.2512 -0.1953  0.2941
68591POPC   C1B15071  15.542   5.071   8.893  0.0961  0.0277 -0.0138
68591POPC   C2B15072  15.824   4.963   8.474 -0.0423 -0.4996 -0.1666
68591POPC   C3B15073  15.559   4.879   8.148 -0.0265 -0.0958  0.2523
68591POPC   C4B15074  15.313   4.984   7.792 -0.0074 -0.0717  0.0990
68592POPC   NC315075  28.920  14.360   8.695  0.0207  0.0321  0.1687
68592POPC   PO415076  29.242  14.358   8.482  0.0570 -0.0905 -0.1117
68592POPC   GL115077  29.164  14.405   8.083 -0.1783 -0.4796  0.2170
68592POPC   GL215078  29.305  14.631   8.031 -0.0907  0.1693 -0.1258
68592POPC   C1A15079  28.884  14.420   7.697  0.1262 -0.0566 -0.0084
68592POPC   D2A15080  28.554  14.381   7.327 -0.0420 -0.2454  0.0857
68592POPC   C3A15081  28.553  14.487   6.845 -0.2240  0.2506 -0.2530
68592POPC   C4A15082  28.824  14.500   6.419 -0.2813 -0.2285 -0.1347
68592POPC   C1B15083  29.414  14.396   7.709  0.0249  0.1329  0.0896
68592POPC   C2B15084  29.579  14.177   7.335  0.0209  0.2236 -0.0118
68592POPC   C3B15085  29.596  14.120   6.871  0.3266 -0.0991  0.2027
68592POPC   C4B15086  29.499  14.052   6.448  0.0017 -0.0474 -0.0580
68593POPC   NC315087   0.115   6.784   9.370  0.0596  0.0586  0.0475
68593POPC   PO415088  -0.217   7.018   9.390 -0.0098 -0.0232 -0.1595
68593POPC   GL115089  -0.127   6.925   9.028 -0.0571  0.2044 -0.2955
68593POPC   GL215090  -0.278   6.677   9.031  0.2008  0.0592  0.0880
68593POPC   C1A15091  -0.387   6.994   8.595  0.3474 -0.1181  0.1916
68593POPC   D2A15092  -0.670   7.027   8.251  0.0905  0.3126  0.0581
68593POPC   C3A15093  -0.997   7.256   8.119  0.1435  0.2755  0.1069
68593POPC   C4A15094  -1.070   7.516   7.806  0.0691  0.1455  0.3631
68593POPC   C1B15095  -0.697   6.647   8.881 -0.3799  0.1098  0.1451
68593POPC   C2B15096  -0.977   6.649   8.517  0.2198  0.0155  0.0714
68593POPC   C3B15097  -1.153   6.801   8.085 -0.1527  0.1704  0.0717
68593POPC   C4B15098  -1.224   7.087   7.687  0.1600  0.1949 -0.0566
68594POPC   NC315099  22.248  13.736   8.188 -0.0334 -0.2372 -0.0981
68594POPC   PO415100  22.536  13.939   8.349  0.1316 -0.0568  0.3196
68594POPC   GL115101  22.526  14.128   7.972 -0.1934 -0.1038 -0.1149
68594POPC   GL215102  22.258  14.298   7.977 -0.3751 -0.0595  0.0817
68594POPC   C1A15103  22.657  14.308   7.569  0.0252 -0.0182 -0.1234
68594POPC   D2A15104  22.676  14.380   7.102 -0.0155 -0.0481  0.2106
68594POPC   C3A15105  23.026  14.204   6.942  0.0685 -0.2586 -0.0368
68594POPC   C4A15106  23.494  14.193   6.872 -0.1086 -0.1704  0.0215
68594POPC   C1B15107  22.214  13.960   7.634  0.0674 -0.1184  0.0842
68594POPC   C2B15108  22.183  13.551   7.394 -0.2471  0.0403 -0.0739
68594POPC   C3B15109  22.100  13.424   6.922 -0.2000 -0.0207 -0.0932
68594POPC   C4B15110  21.839  13.611   6.574  0.1160 -0.2411 -0.3758
68595POPC   NC315111  30.704  10.646   9.935  0.0002  0.0246  0.1080
68595POPC   PO415112  30.674  10.304  10.128 -0.0595 -0.2668 -0.0027
68595POPC   GL115113  30.774   9.925   9.897 -0.0660  0.1522 -0.0482
68595POPC   GL215114  30.469   9.954   9.865  0.0017 -0.2377  0.2058
68595POPC   C1A15115  30.733   9.480   9.774 -0.0188  0.1165  0.5322
68595POPC   D2A15116  30.840   9.077   9.481 -0.3412  0.1952 -0.1713
68595POPC   C3A15117  30.508   8.935   9.224 -0.2356  0.0982  0.2967
68595POPC   C4A15118  30.106   8.955   8.989 -0.3057  0.1457  0.2318
68595POPC   C1B15119  29.991   9.988   9.661 -0.1307  0.1763  0.0463
68595POPC   C2B15120  29.743   9.948   9.242 -0.0339 -0.2440 -0.0285
68595POPC   C3B15121  29.494   9.584   9.144  0.1063 -0.1025 -0.2588
68595POPC   C4B15122  29.648   9.155   9.080 -0.0241 -0.1090 -0.3970
68596POPC   NC315123  21.005   7.214  10.823 -0.1357  0.1689  0.2463
68596POPC   PO415124  21.302   7.349  10.881 -0.3401 -0.2437  0.1816
68596POPC   GL115125  21.517   7.223  11.144 -0.2247  0.1751  0.2387
68596POPC   GL215126  21.793   7.299  11.152  0.0157 -0.1303  0.1709
68596POPC   C1A15127  21.751   6.856  10.967  0.3218 -0.0944 -0.0540
68596POPC   D2A15128  22.015   6.661  10.609 -0.0898 -0.0181 -0.2671
68596POPC   C3A15129  22.412   6.701  10.358 -0.1137 -0.1491 -0.2417
68596POPC   C4A15130  22.645   6.780   9.977 -0.2989 -0.1813  0.1822
68596POPC   C1B15131  22.120   7.279  10.903  0.0215 -0.1008 -0.1227
68596POPC   C2B15132  22.470   7.049  10.708  0.0913 -0.0983  0.2814
68596POPC   C3B15133  22.832   6.942  10.447  0.2533  0.1274 -0.1899
68596POPC   C4B15134  23.159   6.759  10.129  0.0597 -0.1251 -0.2062
68597POPC   NC315135  22.421  16.131   8.579  0.1624 -0.3526  0.3007
68597POPC   PO415136  22.529  16.474   8.794 -0.1473  0.1332  0.1233
68597POPC   GL115137  22.825  16.550   8.542  0.1337 -0.1979 -0.0142
68597POPC   GL215138  22.973  16.253   8.486  0.0004 -0.2503 -0.0724
68597POPC   C1A15139  22.691  16.475   8.097  0.2499 -0.0360  0.0804
68597POPC   D2A15140  22.790  16.648   7.731 -0.1318 -0.1101  0.1385
68597POPC   C3A15141  22.509  16.756   7.375  0.1106 -0.0854  0.0905
68597POPC   C4A15142  22.100  16.762   7.084  0.3136 -0.0016  0.2867
68597POPC   C1B15143  23.386  16.436   8.325 -0.1297 -0.2611 -0.0211
68597POPC   C2B15144  23.572  16.727   8.034  0.2283  0.0825 -0.1684
68597POPC   C3B15145  23.813  17.095   7.895 -0.0713  0.1318 -0.1740
68597POPC   C4B15146  24.179  17.242   7.814  0.2038  0.2204 -0.0046
68598POPC   NC315147  19.539  13.732   7.956  0.0465 -0.0622  0.0069
68598POPC   PO415148  19.471  13.355   8.082  0.2626 -0.1548  0.0830
68598POPC   GL115149  19.483  13.409   7.675  0.0470  0.2737  0.2398
68598POPC   GL215150  19.658  13.171   7.639  0.0778  0.4627  0.0850
68598POPC   C1A15151  19.526  13.426   7.186 -0.1124  0.1162  0.0742
68598POPC   D2A15152  19.510  13.626   6.724 -0.0974 -0.1005 -0.2704
68598POPC   C3A15153  19.262  13.520   6.365 -0.2468  0.3896  0.1600
68598POPC   C4A15154  19.089  13.271   5.985 -0.0120 -0.0315  0.0068
68598POPC   C1B15155  19.896  13.091   7.272 -0.0575  0.2165 -0.0504
68598POPC   C2B15156  20.064  12.822   6.917 -0.0464 -0.1572  0.2113
68598POPC   C3B15157  20.323  12.490   6.737  0.1382 -0.0089 -0.1320
68598POPC   C4B15158  20.274  12.161   6.355 -0.2251 -0.1569 -0.0201
68599POPC   NC315159  21.694  11.773   8.513  0.2267 -0.4689  0.2636
68599POPC   PO415160  21.729  12.191   8.558 -0.1237  0.5310  0.0208
68599POPC   GL115161  21.921  12.171   8.298  0.4159  0.0317  0.4375
68599POPC   GL215162  22.171  11.987   8.378 -0.2397  0.0465 -0.4167
68599POPC   C1A15163  21.879  12.308   7.842  0.0121 -0.0366 -0.0047
68599POPC   D2A15164  21.997  12.579   7.469 -0.0631 -0.0142 -0.1544
68599POPC   C3A15165  21.934  12.577   7.014  0.0156 -0.4423  0.0756
68599POPC   C4A15166  22.033  12.609   6.558 -0.2331 -0.2496 -0.3142
68599POPC   C1B15167  22.434  11.632   8.332 -0.3334  0.2051  0.0085
68599POPC   C2B15168  22.704  11.453   7.952  0.0589 -0.0763 -0.0051
68599POPC   C3B15169  22.654  11.686   7.537  0.1068 -0.3883 -0.0492
68599POPC   C4B15170  22.432  11.958   7.202  0.0044  0.2607  0.2102
68600POPC   NC315171  21.076  16.235   8.670  0.0315  0.3539 -0.1093
68600POPC   PO415172  21.204  16.508   8.976 -0.0317 -0.2008  0.0161
68600POPC   GL115173  21.114  16.696   8.645 -0.1252  0.1208  0.0668
68600POPC   GL215174  20.945  16.940   8.714 -0.1415 -0.0787  0.2593
68600POPC   C1A15175  21.223  16.418   8.217  0.1748 -0.0326 -0.1221
68600POPC   D2A15176  21.231  16.179   7.788  0.2046  0.0333 -0.5289
68600POPC   C3A15177  21.090  16.033   7.378  0.0641  0.3605 -0.4603
68600POPC   C4A15178  21.269  16.168   6.928 -0.2709  0.0988  0.1011
68600POPC   C1B15179  20.812  16.912   8.287 -0.2814  0.3051 -0.0843
68600POPC   C2B15180  20.770  16.905   7.778  0.2837  0.1571 -0.1186
68600POPC   C3B15181  20.798  16.971   7.371  0.2219  0.1965 -0.2216
68600POPC   C4B15182  20.637  16.835   6.944 -0.2096 -0.3423 -0.0897
68601POPC   NC315183  30.116   1.198   8.509  0.1640  0.1041 -0.0661
68601POPC   PO415184  29.900   0.914   8.362 -0.0704 -0.1286  0.0559
68601POPC   GL115185  29.818   1.085   8.009  0.0008 -0.2323  0.0212
68601POPC   GL215186  29.900   0.941   7.707  0.3705 -0.0083 -0.2366
68601POPC   C1A15187  30.049   1.407   7.725 -0.1389 -0.1995 -0.0420
68601POPC   D2A15188  30.332   1.453   7.380  0.0308 -0.1566  0.1091
68601POPC   C3A15189  30.718   1.629   7.173  0.1133 -0.0789  0.1379
68601POPC   C4A15190  30.980   1.560   6.822 -0.1851 -0.0616  0.1171
68601POPC   C1B15191  29.949   1.118   7.272  0.0807  0.0698 -0.3232
68601POPC   C2B15192  30.095   1.279   6.866  0.2755  0.0055 -0.3707
68601POPC   C3B15193  30.486   1.441   6.664  0.2121  0.2131  0.0883
68601POPC   C4B15194  30.744   1.348   6.199 -0.2082 -0.2276  0.0979
68602POPC   NC315195  20.837  12.731   8.942 -0.0243  0.1533  0.3529
68602POPC   PO415196  20.749  12.740   8.538  0.0111 -0.0795 -0.0001
68602POPC   GL115197  20.760  12.938   8.186 -0.1923 -0.2952 -0.3133
68602POPC   GL215198  20.516  12.770   8.023  0.1051  0.1780  0.0937
68602POPC   C1A15199  20.988  12.661   7.894  0.1040 -0.2387 -0.0172
68602POPC   D2A15200  20.976  12.285   7.627  0.1498 -0.0071 -0.0799
68602POPC   C3A15201  21.010  12.225   7.126 -0.1996 -0.3333 -0.1476
68602POPC   C4A15202  20.810  12.124   6.714  0.0984  0.2621 -0.2580
68602POPC   C1B15203  20.528  12.478   7.660  0.0748 -0.0473  0.0940
68602POPC   C2B15204  20.504  12.239   7.266 -0.2145 -0.2287 -0.0463
68602POPC   C3B15205  20.599  11.847   7.052  0.1093 -0.0732 -0.0898
68602POPC   C4B15206  20.511  11.706   6.599  0.2473 -0.0532 -0.0519
68603POPC   NC315207  17.594  12.405   8.051  0.0630  0.0058 -0.1007
68603POPC   PO415208  17.855  12.166   8.271  0.2252  0.2486 -0.1183
68603POPC   GL115209  17.885  11.922   7.924  0.3750  0.0611  0.1255
68603POPC   GL215210  17.861  12.109   7.721  0.0947 -0.0136  0.1862
68603POPC   C1A15211  18.031  11.683   7.595  0.0954  0.2103 -0.1377
68603POPC   D2A15212  17.843  11.632   7.168 -0.1110 -0.2020  0.2267
68603POPC   C3A15213  17.829  11.743   6.694 -0.1921  0.1721  0.3255
68603POPC   C4A15214  17.869  11.932   6.229 -0.1428  0.1299  0.0293
68603POPC   C1B15215  17.773  12.093   7.256  0.1090  0.3565  0.1441
68603POPC   C2B15216  17.449  11.890   6.970  0.2533 -0.2971  0.0806
68603POPC   C3B15217  16.988  11.751   6.846 -0.1890 -0.0979 -0.1182
68603POPC   C4B15218  16.707  12.051   6.581 -0.0356  0.1548 -0.1952
68604POPC   NC315219  18.546  11.817   7.996 -0.0111 -0.1555  0.1188
68604POPC   PO415220  18.899  11.863   8.236 -0.1550 -0.0026  0.0076
68604POPC   GL115221  18.977  11.823   7.870 -0.1135  0.2060 -0.5123
68604POPC   GL215222  19.259  11.888   7.842  0.0540 -0.0701  0.0188
68604POPC   C1A15223  18.679  11.538   7.591 -0.1617 -0.2036  0.0539
68604POPC   D2A15224  18.611  11.227   7.249  0.0987 -0.1199  0.0402
68604POPC   C3A15225  18.687  11.198   6.767  0.4696  0.2498 -0.0330
68604POPC   C4A15226  18.534  10.803   6.511 -0.3538  0.2051 -0.1192
68604POPC   C1B15227  19.034  11.869   7.421 -0.0210 -0.0557 -0.1039
68604POPC   C2B15228  18.933  11.537   7.076  0.1225  0.1982 -0.0546
68604POPC   C3B15229  19.079  11.089   7.167 -0.1263 -0.1220 -0.0284
68604POPC   C4B15230  19.458  10.975   7.504  0.1035  0.1826  0.3297
68605POPC   NC315231  21.308   0.721   9.395  0.1969 -0.1958  0.0950
68605POPC   PO415232  21.559   0.989   9.283 -0.2162  0.2309 -0.0430
68605POPC   GL115233  21.681   1.117   8.964  0.1803 -0.0801 -0.2088
68605POPC   GL215234  21.572   1.281   8.779  0.0000 -0.0352 -0.1156
68605POPC   C1A15235  22.113   1.308   8.784  0.4185 -0.1335 -0.1736
68605POPC   D2A15236  22.432   1.608   8.734 -0.1037  0.0905 -0.1955
68605POPC   C3A15237  22.276   1.936   8.439  0.0217  0.2795  0.1875
68605POPC   C4A15238  22.170   2.295   8.220  0.1439  0.0382 -0.0572
68605POPC   C1B15239  21.776   1.681   8.591  0.1849 -0.2793  0.0615
68605POPC   C2B15240  21.802   2.097   8.471  0.1074 -0.2299  0.0845
68605POPC   C3B15241  21.574   2.458   8.309  0.3060 -0.2136 -0.1130
68605POPC   C4B15242  21.416   2.907   8.243  0.1434 -0.1160 -0.2127
68606POPC   NC315243  32.257  11.427  16.316 -0.0717  0.3707 -0.1983
68606POPC   PO415244  32.256  11.507  16.692  0.1143  0.1097 -0.2059
68606POPC   GL115245  32.204  11.848  16.984 -0.1884 -0.1031  0.0948
68606POPC   GL215246  32.377  12.076  16.951  0.0067  0.1912  0.1696
68606POPC   C1A15247  32.019  11.830  17.386 -0.1561  0.0086  0.0401
68606POPC   D2A15248  32.022  11.854  17.837  0.0286 -0.0479 -0.2112
68606POPC   C3A15249  31.938  11.617  18.234  0.2400 -0.1620  0.0776
68606POPC   C4A15250  32.214  11.368  18.547  0.0596 -0.1898  0.0251
68606POPC   C1B15251  32.524  11.976  17.367 -0.1282 -0.1035  0.0270
68606POPC   C2B15252  32.568  11.849  17.794 -0.1016 -0.0009 -0.0385
68606POPC   C3B15253  32.323  11.962  18.178 -0.0410  0.4893 -0.1104
68606POPC   C4B15254  31.954  12.183  18.322  0.2219 -0.2971 -0.0386
68607POPC   NC315255  27.981   1.259   9.445  0.3402 -0.0163 -0.3526
68607POPC   PO415256  28.209   1.545   9.486 -0.0098 -0.1805 -0.3889
68607POPC   GL115257  28.122   1.823   9.257  0.1592 -0.0136  0.0215
68607POPC   GL215258  28.040   2.009   9.464  0.0631 -0.1213 -0.2139
68607POPC   C1A15259  28.244   1.995   8.847  0.5118  0.1267 -0.0082
68607POPC   D2A15260  28.238   2.415   8.638 -0.0447 -0.0069  0.1844
68607POPC   C3A15261  28.453   2.814   8.794 -0.1840  0.1856  0.1170
68607POPC   C4A15262  28.340   3.209   8.948 -0.0332  0.0601 -0.1531
68607POPC   C1B15263  27.972   2.326   9.145  0.0255 -0.4870 -0.0805
68607POPC   C2B15264  27.588   2.477   8.990  0.1046  0.2278  0.0666
68607POPC   C3B15265  27.154   2.713   8.966 -0.1944 -0.1258  0.1953
68607POPC   C4B15266  27.035   3.061   8.752 -0.0884 -0.2801  0.3192
68608POPC   NC315267  29.261  15.864   8.020 -0.0272 -0.3381  0.2570
68608POPC   PO415268  29.195  15.497   8.053 -0.2797 -0.1679  0.1319
68608POPC   GL115269  29.263  15.339   7.748 -0.2711 -0.2641 -0.1311
68608POPC   GL215270  29.075  15.420   7.556  0.0400  0.0459  0.0109
68608POPC   C1A15271  29.525  15.461   7.404 -0.1368  0.1086  0.1233
68608POPC   D2A15272  29.546  15.817   7.060  0.1668  0.2573 -0.0585
68608POPC   C3A15273  29.756  15.782   6.617  0.4772 -0.1431 -0.2919
68608POPC   C4A15274  29.820  15.725   6.187  0.2371 -0.1109  0.1139
68608POPC   C1B15275  29.096  15.597   7.148  0.0751  0.1448  0.0374
68608POPC   C2B15276  29.066  15.776   6.766 -0.0511  0.0736 -0.1998
68608POPC   C3B15277  29.340  16.167   6.592 -0.0196 -0.0838 -0.0314
68608POPC   C4B15278  29.595  16.547   6.496  0.2701 -0.0308  0.0599
68609POPC   NC315279  19.708   4.595  15.030  0.0002  0.1523  0.0581
68609POPC   PO415280  19.687   4.929  14.872  0.1115 -0.2145  0.1999
68609POPC   GL115281  20.040   4.883  14.993  0.0393  0.0032  0.2226
68609POPC   GL215282  20.179   4.840  14.788 -0.4228  0.2057 -0.0642
68609POPC   C1A15283  20.265   5.000  15.364 -0.0328  0.0540  0.3455
68609POPC   D2A15284  20.438   5.100  15.742 -0.0349  0.1228 -0.0367
68609POPC   C3A15285  20.536   5.176  16.174  0.0489  0.1668  0.2633
68609POPC   C4A15286  20.705   5.412  16.503 -0.3741  0.2395  0.0775
68609POPC   C1B15287  20.592   5.060  14.808 -0.0457  0.2520  0.5437
68609POPC   C2B15288  20.945   5.251  15.025 -0.0681 -0.0047  0.1188
68609POPC   C3B15289  21.352   5.483  15.229 -0.1582 -0.2498 -0.2799
68609POPC   C4B15290  21.585   5.845  15.196  0.1195  0.3093  0.2906
68610POPC   NC315291  15.866  10.018   9.171  0.0440  0.2253 -0.0122
68610POPC   PO415292  15.869   9.600   9.183 -0.0605  0.2361 -0.4460
68610POPC   GL115293  15.548   9.488   8.999  0.1766  0.1827 -0.5141
68610POPC   GL215294  15.348   9.248   9.168  0.2520 -0.0692  0.1455
68610POPC   C1A15295  15.610   9.452   8.519 -0.6529 -0.0963 -0.0199
68610POPC   D2A15296  15.404   9.551   8.071  0.2148  0.2361  0.0048
68610POPC   C3A15297  15.319   9.915   7.767 -0.2942  0.2366 -0.1707
68610POPC   C4A15298  15.094  10.178   7.414 -0.3398 -0.1369 -0.0509
68610POPC   C1B15299  15.286   9.058   8.753  0.0027  0.1089 -0.0562
68610POPC   C2B15300  15.062   9.125   8.305  0.1404 -0.3071  0.0391
68610POPC   C3B15301  14.999   9.101   7.820 -0.2326  0.0336  0.0391
68610POPC   C4B15302  14.709   8.731   7.597 -0.0037 -0.0431 -0.0227
68611POPC   NC315303  31.657   4.659  10.127 -0.0433 -0.3973  0.1783
68611POPC   PO415304  31.475   4.928   9.889 -0.1149 -0.4925  0.3370
68611POPC   GL115305  31.406   4.949   9.539 -0.1747  0.2021 -0.0982
68611POPC   GL215306  31.263   5.243   9.539 -0.2354 -0.0719 -0.0914
68611POPC   C1A15307  30.940   4.887   9.416  0.0437  0.1075 -0.0692
68611POPC   D2A15308  30.705   4.720   8.990 -0.2674 -0.1818  0.0386
68611POPC   C3A15309  30.262   4.565   9.014 -0.0001  0.2647 -0.0425
68611POPC   C4A15310  30.011   4.450   9.319  0.2249  0.3105 -0.1300
68611POPC   C1B15311  31.450   5.449   9.162  0.2262 -0.3399 -0.0988
68611POPC   C2B15312  31.380   5.526   8.721 -0.0442  0.0149 -0.1060
68611POPC   C3B15313  31.178   5.367   8.349  0.0605  0.0525 -0.1544
68611POPC   C4B15314  31.304   5.294   7.959 -0.1587 -0.0092 -0.3223
68612POPC   NC315315  24.074  17.889  10.551 -0.2836 -0.1027  0.1503
68612POPC   PO415316  24.230  17.709  10.213  0.0318  0.1973  0.2068
68612POPC   GL115317  24.294  17.858   9.818  0.4470  0.1550 -0.2250
68612POPC   GL215318  24.027  18.003   9.771  0.1015  0.1301 -0.2619
68612POPC   C1A15319  24.467  18.147   9.550  0.1235  0.0508  0.0863
68612POPC   D2A15320  24.438  18.272   9.122 -0.4693 -0.1478 -0.1163
68612POPC   C3A15321  24.042  18.207   8.991  0.2382  0.1199  0.3179
68612POPC   C4A15322  23.754  18.284   8.658 -0.2052 -0.3405 -0.0888
68612POPC   C1B15323  24.220  17.779   9.397 -0.0491  0.1018 -0.1186
68612POPC   C2B15324  24.326  17.812   8.960  0.1851  0.0249  0.0758
68612POPC   C3B15325  24.405  18.070   8.624 -0.0617 -0.0462  0.0334
68612POPC   C4B15326  24.381  18.445   8.340  0.2594  0.0907 -0.3250
68613POPC   NC315327  22.807  16.890   8.936 -0.1250 -0.2289 -0.2643
68613POPC   PO415328  22.491  17.003   9.129  0.1355  0.1036  0.1026
68613POPC   GL115329  22.420  17.312   8.943 -0.2530 -0.0765  0.1633
68613POPC   GL215330  22.659  17.346   8.787 -0.1620  0.0837  0.1479
68613POPC   C1A15331  22.409  17.766   8.858  0.1300  0.0812 -0.0730
68613POPC   D2A15332  22.406  18.100   8.513  0.2684  0.1185 -0.1044
68613POPC   C3A15333  22.571  18.239   8.085 -0.2208  0.0628 -0.0718
68613POPC   C4A15334  22.815  18.505   7.781  0.0972 -0.1468  0.0710
68613POPC   C1B15335  22.598  17.479   8.365 -0.1759  0.0070  0.3346
68613POPC   C2B15336  22.662  17.736   7.974  0.1024 -0.1276  0.0899
68613POPC   C3B15337  22.745  17.911   7.528 -0.1894 -0.4947 -0.0229
68613POPC   C4B15338  22.732  18.326   7.316 -0.0552  0.2294 -0.2249
68614POPC   NC315339  18.650   3.545   9.484 -0.0362 -0.1301 -0.1132
68614POPC   PO415340  18.761   3.428   9.140 -0.0681  0.1433 -0.3165
68614POPC   GL115341  18.947   3.577   8.834  0.0520  0.1394 -0.1602
68614POPC   GL215342  18.885   3.873   8.697  0.0145 -0.1510 -0.2388
68614POPC   C1A15343  19.268   3.472   8.505 -0.1726  0.0844 -0.0675
68614POPC   D2A15344  19.434   3.329   8.097 -0.1315 -0.2506  0.0221
68614POPC   C3A15345  19.349   3.382   7.666 -0.0579 -0.0638  0.0810
68614POPC   C4A15346  19.509   3.757   7.444 -0.0340 -0.0846 -0.2459
68614POPC   C1B15347  19.053   3.898   8.331  0.1773  0.3318 -0.0591
68614POPC   C2B15348  19.298   3.787   7.921  0.0337  0.1709  0.1758
68614POPC   C3B15349  19.754   3.902   7.844 -0.0737  0.1774 -0.1077
68614POPC   C4B15350  19.961   3.918   7.475 -0.1013 -0.1104 -0.1034
68615POPC   NC315351  28.516   1.165   9.487  0.0773  0.0748  0.0152
68615POPC   PO415352  28.437   0.932   9.216  0.0036  0.0517  0.0756
68615POPC   GL115353  28.046   1.098   9.010 -0.0687 -0.1960  0.1445
68615POPC   GL215354  27.768   1.002   9.011 -0.0385  0.3402  0.0661
68615POPC   C1A15355  27.938   1.522   8.767 -0.3628  0.1651 -0.0801
68615POPC   D2A15356  27.724   1.910   8.752 -0.0823  0.0143 -0.0249
68615POPC   C3A15357  28.013   2.067   8.398  0.0396  0.1943  0.1721
68615POPC   C4A15358  28.135   2.407   8.162 -0.0206  0.0808 -0.1055
68615POPC   C1B15359  27.491   1.182   8.768 -0.0381 -0.0187  0.1341
68615POPC   C2B15360  27.526   1.500   8.459 -0.0304 -0.1509  0.1191
68615POPC   C3B15361  27.619   1.878   8.237  0.1733 -0.0771  0.1441
68615POPC   C4B15362  27.646   2.217   7.898 -0.0951  0.0543  0.0080
68616POPC   NC315363  30.748   4.905  13.443  0.1255 -0.1502 -0.3384
68616POPC   PO415364  30.527   4.635  13.233 -0.3367 -0.2480  0.2620
68616POPC   GL115365  30.117   4.759  13.317  0.0771  0.3894 -0.4061
68616POPC   GL215366  30.180   4.914  13.505  0.2601 -0.1200 -0.2216
68616POPC   C1A15367  29.803   5.115  13.339  0.0520  0.2130 -0.2108
68616POPC   D2A15368  29.337   5.061  13.283 -0.3428 -0.1113 -0.1002
68616POPC   C3A15369  28.916   5.173  13.522 -0.0663 -0.1401 -0.0517
68616POPC   C4A15370  28.643   5.517  13.700  0.4495 -0.1004  0.1923
68616POPC   C1B15371  29.832   4.990  13.859  0.0584  0.0224  0.1054
68616POPC   C2B15372  29.760   5.233  14.210 -0.2865 -0.2511 -0.0722
68616POPC   C3B15373  29.312   5.322  14.288 -0.3688 -0.1237 -0.1590
68616POPC   C4B15374  28.897   5.291  14.070  0.1076 -0.1752 -0.1598
68617POPC   NC315375  21.149   6.373  13.058  0.0034 -0.0224  0.1798
68617POPC   PO415376  21.104   5.988  13.107 -0.3168 -0.2975  0.0199
68617POPC   GL115377  21.517   6.013  13.006  0.1967 -0.0246 -0.3405
68617POPC   GL215378  21.462   6.068  12.714 -0.4287  0.3301  0.1396
68617POPC   C1A15379  21.766   6.346  13.149 -0.1846  0.0349 -0.4153
68617POPC   D2A15380  21.838   6.745  13.373  0.1935  0.0256  0.1013
68617POPC   C3A15381  22.311   6.819  13.232  0.0210 -0.1049 -0.2161
68617POPC   C4A15382  22.594   7.061  12.975  0.0833 -0.1406 -0.0667
68617POPC   C1B15383  21.959   6.174  12.727  0.0683 -0.4892 -0.0538
68617POPC   C2B15384  22.307   6.224  13.045  0.0981  0.1539  0.1508
68617POPC   C3B15385  22.732   6.378  13.028 -0.2480 -0.0753 -0.2955
68617POPC   C4B15386  23.162   6.436  12.820  0.0672  0.2367  0.0592
68618POPC   NC315387  18.821   7.910   9.421 -0.0053 -0.0566 -0.0951
68618POPC   PO415388  18.598   8.072   9.146  0.2064  0.2603 -0.1973
68618POPC   GL115389  18.574   7.987   8.785  0.1473 -0.2390  0.1216
68618POPC   GL215390  18.776   7.746   8.742 -0.1082 -0.2213 -0.2764
68618POPC   C1A15391  18.412   8.032   8.357 -0.0628 -0.0492 -0.1827
68618POPC   D2A15392  18.147   8.257   8.116  0.0430 -0.2392  0.1727
68618POPC   C3A15393  18.116   8.011   7.764  0.1464 -0.1353 -0.1380
68618POPC   C4A15394  18.155   8.171   7.339  0.1477  0.0198  0.0483
68618POPC   C1B15395  19.033   7.553   8.339  0.2454  0.1350  0.1472
68618POPC   C2B15396  19.183   7.388   7.966  0.2308  0.1184  0.1115
68618POPC   C3B15397  19.383   7.110   7.701 -0.0184 -0.5892  0.2767
68618POPC   C4B15398  19.303   6.867   7.347  0.3564 -0.1679 -0.2288
68619POPC   NC315399  21.934   9.891   9.201  0.1989 -0.1994 -0.2709
68619POPC   PO415400  21.648   9.665   9.338  0.2297 -0.3318 -0.1952
68619POPC   GL115401  21.261   9.546   9.141  0.3787 -0.0822  0.4122
68619POPC   GL215402  21.384   9.615   8.877 -0.0381  0.0756  0.1024
68619POPC   C1A15403  21.235   9.151   8.805  0.2711 -0.0758  0.2371
68619POPC   D2A15404  21.153   8.940   8.369 -0.1895  0.1437 -0.3715
68619POPC   C3A15405  21.320   8.964   7.917 -0.4760  0.1491  0.1819
68619POPC   C4A15406  21.498   8.603   7.674 -0.0048 -0.0232 -0.3688
68619POPC   C1B15407  21.870   9.476   8.766  0.0385  0.0891  0.0367
68619POPC   C2B15408  22.137   9.391   8.437  0.1586  0.4581 -0.0179
68619POPC   C3B15409  22.463   9.382   8.150  0.0053 -0.0339  0.1994
68619POPC   C4B15410  22.699   9.702   7.954 -0.1338  0.1989  0.0165
68620POPC   NC315411  27.420   0.694  11.422  0.1277  0.0285  0.0058
68620POPC   PO415412  27.218   0.922  11.682  0.0252 -0.0648 -0.1695
68620POPC   GL115413  27.384   1.125  11.808  0.1944 -0.4079  0.2449
68620POPC   GL215414  27.648   1.193  11.623 -0.1520  0.1564  0.0606
68620POPC   C1A15415  27.263   1.548  11.990 -0.1992 -0.2065 -0.2514
68620POPC   D2A15416  27.285   1.986  11.816  0.1510 -0.0396 -0.0546
68620POPC   C3A15417  27.237   2.440  11.863  0.1599 -0.2142  0.0704
68620POPC   C4A15418  27.279   2.835  12.130 -0.1346  0.0928 -0.0726
68620POPC   C1B15419  27.586   1.621  11.615 -0.0803 -0.1705  0.1433
68620POPC   C2B15420  27.615   1.963  11.380 -0.2521 -0.5240  0.1626
68620POPC   C3B15421  27.456   2.399  11.428  0.0834 -0.2367 -0.0199
68620POPC   C4B15422  27.222   2.795  11.548 -0.0419 -0.0980  0.2204
68621POPC   NC315423  31.428   4.673  14.532  0.3486  0.0133  0.1567
68621POPC   PO415424  31.007   4.607  14.518 -0.1173 -0.1665 -0.0042
68621POPC   GL115425  30.927   4.733  14.906  0.0903 -0.0629 -0.1801
68621POPC   GL215426  31.184   4.706  15.037  0.3175 -0.1187  0.1315
68621POPC   C1A15427  30.773   4.463  15.283 -0.0382  0.2232 -0.1506
68621POPC   D2A15428  30.418   4.236  15.576 -0.0730  0.0427  0.2322
68621POPC   C3A15429  29.939   4.312  15.438  0.1505  0.0514  0.2871
68621POPC   C4A15430  29.456   4.352  15.407 -0.1740  0.2039 -0.0192
68621POPC   C1B15431  31.000   4.989  15.388 -0.2274  0.2942  0.0815
68621POPC   C2B15432  30.606   4.925  15.620 -0.4470  0.0371 -0.0939
68621POPC   C3B15433  30.189   4.807  15.752  0.0974  0.5633  0.3194
68621POPC   C4B15434  30.048   4.417  15.910  0.1851 -0.1219 -0.0596
68622POPC   NC315435  21.206   0.931   8.755 -0.0162 -0.3233  0.0046
68622POPC   PO415436  20.923   0.718   8.905 -0.1924  0.0876  0.0854
68622POPC   GL115437  20.859   0.543   8.579 -0.2374 -0.3158  0.1512
68622POPC   GL215438  20.612   0.584   8.510 -0.1263  0.3002  0.4725
68622POPC   C1A15439  21.071   0.381   8.169 -0.0446  0.3309  0.1030
68622POPC   D2A15440  21.205   0.670   7.852 -0.0508  0.0347 -0.0926
68622POPC   C3A15441  20.976   0.743   7.475 -0.0780 -0.0600 -0.0182
68622POPC   C4A15442  20.592   1.001   7.621 -0.1493  0.0226 -0.0430
68622POPC   C1B15443  20.855   0.826   8.215  0.1715  0.1654 -0.1429
68622POPC   C2B15444  21.047   1.138   7.933  0.0801  0.0820  0.3262
68622POPC   C3B15445  21.294   1.484   7.820  0.1220 -0.1336  0.3331
68622POPC   C4B15446  21.709   1.490   7.640  0.0017  0.0292  0.2231
68623POPC   NC315447  23.512  13.464   8.617 -0.0898  0.1860 -0.1223
68623POPC   PO415448  23.468  13.111   8.803  0.0668  0.0393 -0.0513
68623POPC   GL115449  23.255  12.937   8.473  0.1983  0.2025 -0.2797
68623POPC   GL215450  23.406  13.098   8.291  0.1019 -0.2376 -0.0262
68623POPC   C1A15451  23.302  12.688   8.077  0.2616 -0.0571 -0.0225
68623POPC   D2A15452  23.543  12.642   7.721  0.1888  0.2933 -0.0747
68623POPC   C3A15453  23.860  12.830   7.515  0.0788 -0.2480  0.2710
68623POPC   C4A15454  24.000  12.799   7.046  0.1410 -0.0733  0.1821
68623POPC   C1B15455  23.769  12.946   8.080 -0.2138 -0.4339  0.3126
68623POPC   C2B15456  24.136  12.743   7.893 -0.0057 -0.1975 -0.0622
68623POPC   C3B15457  24.364  12.650   7.516 -0.4781 -0.0867 -0.0755
68623POPC   C4B15458  24.390  12.442   7.128  0.0140  0.3391 -0.0267
68624POPC   NC315459  22.131   8.462  11.004 -0.0243 -0.0064 -0.2819
68624POPC   PO415460  21.869   8.468  10.716  0.0613  0.2528  0.0474
68624POPC   GL115461  22.071   8.274  10.522 -0.0105  0.1533 -0.1051
68624POPC   GL215462  22.385   8.305  10.601 -0.2460 -0.3672  0.3175
68624POPC   C1A15463  22.004   8.187  10.065  0.1282  0.1011 -0.1434
68624POPC   D2A15464  21.846   8.265   9.605  0.2175  0.1634 -0.2853
68624POPC   C3A15465  21.558   8.041   9.307 -0.0371 -0.1435 -0.2509
68624POPC   C4A15466  21.336   7.665   9.403  0.1887  0.6465  0.1659
68624POPC   C1B15467  22.682   7.947  10.535 -0.2536  0.2949  0.1995
68624POPC   C2B15468  22.905   7.583  10.312 -0.0586  0.0237 -0.0667
68624POPC   C3B15469  23.078   7.247  10.069  0.3515 -0.0152  0.0921
68624POPC   C4B15470  23.010   7.049   9.600 -0.0789 -0.1129 -0.0512
68625POPC   NC315471  31.642  11.906   8.654 -0.2028  0.0349  0.1932
68625POPC   PO415472  31.925  11.655   8.750  0.0417  0.0783  0.0780
68625POPC   GL115473  32.046  11.269   8.630  0.0987  0.2404  0.4269
68625POPC   GL215474  32.031  11.334   8.370 -0.1350  0.0687 -0.2386
68625POPC   C1A15475  31.943  10.846   8.399 -0.0268  0.0391  0.1283
68625POPC   D2A15476  31.899  10.938   8.019  0.1615 -0.2094  0.5055
68625POPC   C3A15477  31.879  10.748   7.603  0.0583 -0.2312  0.2812
68625POPC   C4A15478  31.577  10.494   7.361 -0.2263  0.3529  0.0151
68625POPC   C1B15479  31.869  11.498   7.933 -0.1216  0.0865  0.0355
68625POPC   C2B15480  31.757  11.584   7.526  0.0021  0.1010  0.3842
68625POPC   C3B15481  31.573  11.464   7.116 -0.1747 -0.0442  0.1772
68625POPC   C4B15482  31.378  11.149   6.838 -0.2772 -0.0379 -0.0739
68626POPC   NC315483  17.376   6.828   9.619 -0.0813 -0.3616 -0.4101
68626POPC   PO415484  17.060   6.918   9.429  0.0070 -0.2685 -0.2032
68626POPC   GL115485  16.917   6.993   9.040 -0.0704  0.1535  0.1890
68626POPC   GL215486  16.788   6.742   8.885  0.1579 -0.1231  0.0077
68626POPC   C1A15487  16.833   7.142   8.605 -0.0280 -0.1851 -0.0975
68626POPC   D2A15488  16.909   7.496   8.350 -0.0438 -0.0634  0.5526
68626POPC   C3A15489  16.811   7.610   7.952  0.0444  0.0428 -0.1606
68626POPC   C4A15490  16.474   7.452   7.661  0.3221  0.3584  0.1489
68626POPC   C1B15491  16.552   6.471   8.615  0.1993 -0.1682 -0.0042
68626POPC   C2B15492  16.321   6.302   8.268  0.0939  0.0685 -0.0956
68626POPC   C3B15493  16.161   5.863   8.135 -0.0864  0.1251  0.3045
68626POPC   C4B15494  16.061   5.568   7.817  0.0313  0.0307 -0.0546
68627POPC   NC315495  21.410  11.159   8.813 -0.1848 -0.1535  0.4818
68627POPC   PO415496  21.245  11.441   8.592 -0.3679  0.1158 -0.1384
68627POPC   GL115497  21.454  11.357   8.311  0.1775  0.1979 -0.2371
68627POPC   GL215498  21.337  11.616   8.155 -0.0146 -0.2386 -0.3072
68627POPC   C1A15499  21.630  11.373   7.863  0.1099 -0.0914 -0.1027
68627POPC   D2A15500  21.887  11.179   7.511 -0.1001  0.1738 -0.1773
68627POPC   C3A15501  21.826  11.400   7.065  0.1427 -0.0045  0.1241
68627POPC   C4A15502  21.611  11.806   7.117 -0.1975  0.1395  0.1717
68627POPC   C1B15503  21.161  11.552   7.795 -0.1458 -0.0079 -0.0219
68627POPC   C2B15504  21.318  11.365   7.388 -0.1277  0.0652 -0.2145
68627POPC   C3B15505  21.185  11.168   7.021 -0.0802  0.0307  0.1279
68627POPC   C4B15506  21.251  11.246   6.561 -0.1403 -0.2345  0.2968
68628POPC   NC315507  20.466   7.448   9.801  0.4594 -0.2443  0.2909
68628POPC   PO415508  20.065   7.351   9.712  0.1354 -0.2456 -0.0746
68628POPC   GL115509  20.345   7.357   9.361 -0.5078 -0.1683  0.3431
68628POPC   GL215510  20.289   7.635   9.318  0.0025 -0.0418 -0.2057
68628POPC   C1A15511  20.561   7.188   8.972  0.0396 -0.4421  0.1096
68628POPC   D2A15512  20.561   6.988   8.540 -0.0122 -0.0715 -0.2662
68628POPC   C3A15513  20.644   7.179   8.093  0.3562  0.0332  0.2311
68628POPC   C4A15514  20.852   7.326   7.771  0.0729  0.0364  0.0176
68628POPC   C1B15515  20.467   7.698   8.922 -0.2718 -0.0951 -0.0292
68628POPC   C2B15516  20.842   7.529   8.655 -0.3093 -0.0177  0.2360
68628POPC   C3B15517  21.034   7.216   8.426  0.0749  0.1163 -0.1830
68628POPC   C4B15518  20.970   6.872   8.087  0.0859 -0.0290 -0.0065
68629POPC   NC315519  26.572   0.979   9.817 -0.0046  0.2133  0.3424
68629POPC   PO415520  26.895   1.205   9.894  0.0949  0.2688 -0.2078
68629POPC   GL115521  26.928   1.584   9.556  0.2712  0.1779  0.1971
68629POPC   GL215522  26.720   1.673   9.782 -0.3670  0.0867  0.1798
68629POPC   C1A15523  26.787   1.991   9.360  0.1982 -0.0538  0.2474
68629POPC   D2A15524  26.697   2.423   9.127  0.0818  0.3010  0.0014
68629POPC   C3A15525  26.637   2.726   8.760 -0.3813  0.2490 -0.3240
68629POPC   C4A15526  26.408   2.530   8.383 -0.0587 -0.1039 -0.2302
68629POPC   C1B15527  26.702   2.133   9.839 -0.2057 -0.1923 -0.3111
68629POPC   C2B15528  26.613   2.563   9.692  0.1156  0.0886  0.3036
68629POPC   C3B15529  26.747   2.992   9.712 -0.1059  0.3976 -0.3737
68629POPC   C4B15530  26.721   3.440   9.526 -0.0596  0.2580  0.3366
68630POPC   NC315531  24.313  15.437   9.029  0.0107  0.1006  0.0808
68630POPC   PO415532  24.349  15.561   9.417  0.1071 -0.0222  0.1031
68630POPC   GL115533  24.416  15.884   9.153  0.3057 -0.2401 -0.3762
68630POPC   GL215534  24.668  15.985   9.274  0.2084 -0.3173  0.4778
68630POPC   C1A15535  24.640  15.867   8.745 -0.0886  0.2016 -0.2875
68630POPC   D2A15536  24.749  15.916   8.307  0.1580 -0.0028  0.4108
68630POPC   C3A15537  24.886  16.371   8.216 -0.0823  0.0360  0.2648
68630POPC   C4A15538  25.114  16.624   7.909  0.1028  0.0196  0.0257
68630POPC   C1B15539  24.762  16.280   8.978 -0.1073  0.1568 -0.4025
68630POPC   C2B15540  24.660  16.718   8.885 -0.1471 -0.2297 -0.2100
68630POPC   C3B15541  24.583  17.187   8.640  0.1341  0.2263  0.1315
68630POPC   C4B15542  24.534  17.289   8.180  0.0706  0.0936  0.0961
68631POPC   NC315543  28.755  13.757   9.229 -0.2278  0.2850 -0.2642
68631POPC   PO415544  28.936  13.870   8.901  0.1385  0.2150 -0.0160
68631POPC   GL115545  28.890  13.954   8.438  0.0423 -0.2815 -0.1662
68631POPC   GL215546  28.798  14.118   8.218  0.1909  0.1410 -0.2027
68631POPC   C1A15547  28.887  13.569   8.192  0.5177  0.2820 -0.2853
68631POPC   D2A15548  28.974  13.623   7.764  0.2520  0.3944  0.4663
68631POPC   C3A15549  29.171  13.219   7.578  0.2604 -0.1256  0.4263
68631POPC   C4A15550  28.979  12.888   7.301  0.0343 -0.1045  0.1566
68631POPC   C1B15551  28.662  13.958   7.844 -0.2415 -0.1214 -0.0323
68631POPC   C2B15552  28.619  13.895   7.347  0.2428  0.1687  0.1647
68631POPC   C3B15553  28.645  13.849   6.947  0.0506 -0.0786  0.0778
68631POPC   C4B15554  29.037  13.960   6.693  0.0077 -0.1561  0.1101
68632POPC   NC315555  21.550  17.239   9.301  0.2018  0.1887 -0.1236
68632POPC   PO415556  21.546  16.960   9.035 -0.1557  0.0086  0.1493
68632POPC   GL115557  21.472  17.022   8.633  0.3232  0.1681  0.0345
68632POPC   GL215558  21.644  17.308   8.540  0.1796 -0.3183 -0.0945
68632POPC   C1A15559  21.503  17.038   8.175  0.3050  0.2003 -0.0700
68632POPC   D2A15560  21.792  16.984   7.825 -0.0986  0.1261  0.1894
68632POPC   C3A15561  21.777  17.232   7.401  0.1720  0.0567 -0.0295
68632POPC   C4A15562  22.002  17.316   7.029  0.7164  0.0112  0.0790
68632POPC   C1B15563  21.788  17.436   8.114 -0.0556 -0.0561 -0.2141
68632POPC   C2B15564  21.959  17.587   7.709 -0.0990 -0.1754 -0.0410
68632POPC   C3B15565  21.922  17.808   7.314 -0.3261 -0.3021  0.1302
68632POPC   C4B15566  21.914  17.976   6.906 -0.2506 -0.1765  0.1972
68633POPC   NC315567  27.406   1.253  10.728  0.0417  0.0178  0.2400
68633POPC   PO415568  27.721   1.383  10.574  0.0098 -0.0755 -0.1818
68633POPC   GL115569  27.826   1.749  10.642 -0.1664 -0.2253  0.2827
68633POPC   GL215570  27.895   1.992  10.892  0.0830  0.0842  0.0287
68633POPC   C1A15571  27.593   2.120  10.456  0.1497  0.1638  0.0350
68633POPC   D2A15572  27.322   2.298  10.115  0.2564 -0.1158  0.0282
68633POPC   C3A15573  26.887   2.508  10.177 -0.1677 -0.1874  0.0144
68633POPC   C4A15574  26.543   2.428  10.534 -0.2813  0.2145 -0.1289
68633POPC   C1B15575  27.447   2.149  10.976 -0.3881  0.1998 -0.2123
68633POPC   C2B15576  27.417   2.644  10.980  0.0559 -0.0506 -0.0312
68633POPC   C3B15577  27.592   2.980  10.715  0.1090 -0.3017 -0.1121
68633POPC   C4B15578  27.847   3.353  10.535 -0.1816  0.0636 -0.1386
68634POPC   NC315579  18.044  10.402   8.571  0.0215  0.1883  0.0872
68634POPC   PO415580  18.066  10.034   8.541  0.1753 -0.2197  0.2570
68634POPC   GL115581  17.859  10.101   8.168  0.0701 -0.4080  0.0418
68634POPC   GL215582  17.867  10.422   8.052 -0.0419  0.0538 -0.0066
68634POPC   C1A15583  18.004   9.749   7.925  0.1016 -0.0747  0.3135
68634POPC   D2A15584  18.138   9.328   7.933 -0.0638 -0.1935  0.1234
68634POPC   C3A15585  18.043   9.143   7.501  0.5333 -0.0342 -0.0454
68634POPC   C4A15586  17.612   9.092   7.378 -0.0679 -0.0901 -0.2748
68634POPC   C1B15587  17.838  10.131   7.673 -0.1087  0.3489 -0.1395
68634POPC   C2B15588  17.772  10.150   7.209 -0.0533 -0.0475 -0.0164
68634POPC   C3B15589  17.472   9.880   7.075  0.0141  0.1869 -0.2485
68634POPC   C4B15590  17.339   9.613   6.710  0.0999 -0.1915  0.2027
68635POPC   NC315591  26.892  32.672  14.112  0.0406 -0.1378 -0.2455
68635POPC   PO415592  26.639  32.979  14.005  0.0318  0.0152 -0.1949
68635POPC   GL115593  26.575  33.369  13.977  0.0215  0.3682 -0.0622
68635POPC   GL215594  26.489  33.449  13.660  0.1446 -0.1016 -0.0570
68635POPC   C1A15595  26.349  33.498  14.325 -0.4861 -0.1387  0.1203
68635POPC   D2A15596  26.019  33.733  14.585 -0.2590  0.1894 -0.2530
68635POPC   C3A15597  26.037  33.608  14.995 -0.0514 -0.1130 -0.1782
68635POPC   C4A15598  25.880  33.224  15.163 -0.1249 -0.1050  0.1549
68635POPC   C1B15599  26.325  33.809  13.840 -0.1200  0.0534  0.4801
68635POPC   C2B15600  26.221  34.011  14.211 -0.0763 -0.2284  0.1250
68635POPC   C3B15601  26.252  34.248  14.581  0.2252  0.1493  0.0110
68635POPC   C4B15602  26.405  34.632  14.744  0.0107 -0.1152 -0.0800
68636POPC   NC315603  21.529  10.679   8.894  0.2896 -0.1472  0.1537
68636POPC   PO415604  21.199  10.697   8.792  0.1255  0.1321  0.1646
68636POPC   GL115605  21.376  10.666   8.413 -0.3231 -0.0012 -0.0810
68636POPC   GL215606  21.585  10.888   8.323  0.2074 -0.2035  0.0611
68636POPC   C1A15607  21.435  10.543   7.923 -0.0382  0.0755 -0.4302
68636POPC   D2A15608  21.231  10.345   7.568  0.4124  0.2364 -0.0870
68636POPC   C3A15609  21.400  10.536   7.175  0.2634 -0.0162 -0.1164
68636POPC   C4A15610  21.632  10.888   6.910 -0.2607  0.0618  0.0349
68636POPC   C1B15611  21.833  10.862   7.959 -0.2913 -0.3902  0.0801
68636POPC   C2B15612  22.174  10.677   7.687 -0.2117 -0.2806  0.1881
68636POPC   C3B15613  22.550  10.598   7.433  0.1417 -0.3755  0.2655
68636POPC   C4B15614  22.843  10.831   7.186  0.0455  0.0498  0.0038
68637POPC   NC315615   0.163   4.057   9.290  0.1901 -0.1465 -0.5726
68637POPC   PO415616   0.256   3.710   9.481  0.1323 -0.1262  0.0112
68637POPC   GL115617   0.234   3.609   8.979 -0.2951 -0.0247  0.3673
68637POPC   GL215618   0.172   3.833   8.818 -0.3672 -0.0619  0.0240
68637POPC   C1A15619   0.373   3.407   8.563  0.0496  0.2591 -0.0258
68637POPC   D2A15620   0.406   3.103   8.233  0.1260  0.2878  0.3350
68637POPC   C3A15621   0.268   3.178   7.820  0.2304 -0.1468 -0.0212
68637POPC   C4A15622   0.282   3.451   7.456  0.0885  0.1355  0.0147
68637POPC   C1B15623  -0.038   3.640   8.440 -0.1148 -0.2182 -0.0113
68637POPC   C2B15624   0.141   3.690   8.056 -0.2421  0.1835 -0.0153
68637POPC   C3B15625   0.589   3.548   7.906  0.1463  0.0249 -0.0345
68637POPC   C4B15626   0.867   3.797   7.644 -0.0884 -0.1852 -0.1500
68638POPC   NC315627  18.793   8.488   9.002 -0.1545 -0.0522 -0.0866
68638POPC   PO415628  19.100   8.276   9.157  0.2311 -0.2506  0.1135
68638POPC   GL115629  18.992   8.136   8.815 -0.0510  0.2576  0.0012
68638POPC   GL215630  19.163   8.026   8.553  0.0746 -0.0653 -0.0295
68638POPC   C1A15631  18.810   8.377   8.481  0.0029 -0.2367  0.2471
68638POPC   D2A15632  18.614   8.519   8.076 -0.0030  0.2222 -0.1837
68638POPC   C3A15633  18.465   8.423   7.724 -0.1236 -0.0401  0.0367
68638POPC   C4A15634  18.314   8.687   7.332 -0.0488 -0.4288  0.0656
68638POPC   C1B15635  18.879   7.987   8.169 -0.0440  0.0282  0.3383
68638POPC   C2B15636  18.597   7.930   7.774 -0.1008 -0.0035 -0.0670
68638POPC   C3B15637  18.556   7.656   7.415 -0.2421  0.2451  0.0668
68638POPC   C4B15638  18.664   7.330   7.100 -0.0332 -0.3138 -0.1180
68639POPC   NC315639  28.820   2.430  10.224 -0.1203  0.1523 -0.1025
68639POPC   PO415640  28.602   2.194  10.072  0.1120  0.2408 -0.0448
68639POPC   GL115641  28.272   2.339   9.843  0.1407  0.1391 -0.0550
68639POPC   GL215642  28.148   2.466  10.076  0.2488  0.0752 -0.0326
68639POPC   C1A15643  28.129   2.640   9.547 -0.0973 -0.2125  0.1508
68639POPC   D2A15644  28.064   2.915   9.270 -0.1494  0.2676 -0.1857
68639POPC   C3A15645  27.913   2.842   8.896  0.1082 -0.1864 -0.0574
68639POPC   C4A15646  27.529   2.996   8.673 -0.0471  0.2338  0.1116
68639POPC   C1B15647  28.048   2.880  10.275 -0.1095 -0.2476 -0.0423
68639POPC   C2B15648  27.651   3.136  10.141  0.0242 -0.0668 -0.0407
68639POPC   C3B15649  27.380   3.437  10.314 -0.1882  0.1188 -0.1884
68639POPC   C4B15650  27.519   3.844  10.431 -0.3385 -0.0036 -0.0332
68640POPC   NC315651  20.927  11.802   8.245 -0.1163  0.0937 -0.0797
68640POPC   PO415652  21.200  12.004   8.442  0.0813 -0.0502 -0.1982
68640POPC   GL115653  21.468  12.102   8.187  0.3370  0.0195  0.1138
68640POPC   GL215654  21.275  12.095   7.962  0.0538 -0.3271 -0.1299
68640POPC   C1A15655  21.799  11.802   8.003  0.3309 -0.0263  0.0813
68640POPC   D2A15656  21.881  11.689   7.532 -0.0027  0.0974 -0.0849
68640POPC   C3A15657  22.242  11.505   7.289  0.0788  0.1725 -0.1218
68640POPC   C4A15658  22.603  11.384   7.112  0.0844  0.1876  0.0762
68640POPC   C1B15659  21.452  12.038   7.570  0.0224 -0.1140 -0.0024
68640POPC   C2B15660  21.535  12.297   7.222  0.3934  0.0009  0.2728
68640POPC   C3B15661  21.367  12.198   6.789  0.0406 -0.0436 -0.1016
68640POPC   C4B15662  21.347  12.133   6.333 -0.2818  0.3359 -0.2614
68641POPC   NC315663  22.260   2.527  11.390  0.1219 -0.1435  0.0933
68641POPC   PO415664  22.261   2.478  10.965 -0.2213  0.0061  0.2611
68641POPC   GL115665  22.415   2.852  11.108  0.0754 -0.2269  0.0510
68641POPC   GL215666  22.285   3.075  11.227 -0.0509 -0.2833  0.2497
68641POPC   C1A15667  22.721   3.189  10.992  0.0835  0.0340 -0.1632
68641POPC   D2A15668  22.935   3.376  10.595  0.1534  0.0659  0.0640
68641POPC   C3A15669  23.395   3.556  10.572 -0.0629  0.2807 -0.0690
68641POPC   C4A15670  23.842   3.671  10.622  0.1377  0.1791  0.0375
68641POPC   C1B15671  22.670   3.311  11.433  0.3199 -0.0295  0.3535
68641POPC   C2B15672  23.042   3.584  11.281  0.2138 -0.1523  0.0870
68641POPC   C3B15673  23.382   3.914  11.110 -0.0419  0.2164  0.5666
68641POPC   C4B15674  23.115   4.293  10.924  0.0446  0.0518 -0.1927
68642POPC   NC315675  21.611   2.483  13.956 -0.4781  0.0052 -0.0727
68642POPC   PO415676  21.712   2.148  13.847 -0.1247  0.0203 -0.0263
68642POPC   GL115677  22.087   2.319  13.923 -0.0895 -0.2329  0.1252
68642POPC   GL215678  22.320   2.245  13.767  0.0019 -0.1686 -0.1310
68642POPC   C1A15679  22.293   2.624  14.194 -0.2077  0.0964  0.0032
68642POPC   D2A15680  22.303   3.004  14.483  0.4061  0.5219 -0.0794
68642POPC   C3A15681  22.646   2.977  14.768 -0.1233 -0.0238  0.1702
68642POPC   C4A15682  23.035   2.764  15.007 -0.0344 -0.5306 -0.0486
68642POPC   C1B15683  22.700   2.444  14.027  0.2941 -0.1441 -0.0384
68642POPC   C2B15684  22.820   2.770  14.339  0.1760 -0.1030 -0.1686
68642POPC   C3B15685  23.144   2.965  14.565  0.0458  0.3282 -0.4105
68642POPC   C4B15686  23.495   3.231  14.637 -0.2813 -0.1911  0.1897
68643POPC   NC315687  18.149   2.292   8.866 -0.1631  0.0180  0.2487
68643POPC   PO415688  18.228   1.914   8.730  0.1411 -0.0735 -0.0954
68643POPC   GL115689  18.259   1.932   8.362 -0.0831 -0.1201 -0.3504
68643POPC   GL215690  18.281   1.706   8.154  0.0606 -0.1973  0.1972
68643POPC   C1A15691  18.184   2.175   7.947  0.1444 -0.1158 -0.0956
68643POPC   D2A15692  18.031   2.032   7.567  0.1347 -0.2376  0.4427
68643POPC   C3A15693  17.948   2.221   7.169  0.0279  0.0801 -0.0150
68643POPC   C4A15694  17.785   2.135   6.792 -0.0468  0.3121  0.0375
68643POPC   C1B15695  18.496   1.824   7.725  0.0731 -0.0996  0.1527
68643POPC   C2B15696  18.563   1.748   7.300  0.2361 -0.0953  0.0278
68643POPC   C3B15697  18.862   1.988   7.065  0.1990  0.0033  0.2414
68643POPC   C4B15698  19.309   2.054   6.908 -0.1458 -0.1154 -0.2649
68644POPC   NC315699  32.130  16.470   8.186  0.1607 -0.3293 -0.2186
68644POPC   PO415700  31.777  16.558   8.240 -0.1500 -0.3209 -0.2204
68644POPC   GL115701  31.699  16.702   7.943  0.2364 -0.2152  0.0830
68644POPC   GL215702  31.641  16.598   7.751  0.1562  0.0200 -0.0825
68644POPC   C1A15703  31.944  16.992   7.649 -0.1610  0.1812  0.2736
68644POPC   D2A15704  32.111  16.958   7.198  0.4178  0.1994 -0.1858
68644POPC   C3A15705  32.396  17.057   6.889  0.2712 -0.0650  0.1524
68644POPC   C4A15706  32.614  17.383   6.852  0.1419  0.0474 -0.2263
68644POPC   C1B15707  31.810  16.598   7.329  0.0725 -0.0800  0.2129
68644POPC   C2B15708  31.868  16.560   6.873 -0.3790 -0.2947 -0.1920
68644POPC   C3B15709  32.115  16.810   6.539  0.1572 -0.4123 -0.1373
68644POPC   C4B15710  32.224  17.225   6.378  0.3700  0.0616 -0.2893
68645POPC   NC315711  20.393   6.920   9.387 -0.1894  0.1790 -0.0608
68645POPC   PO415712  20.681   7.045   9.678  0.1973  0.1922 -0.3513
68645POPC   GL115713  21.035   7.154   9.460  0.1547  0.2969 -0.1783
68645POPC   GL215714  21.305   7.062   9.502  0.1424 -0.1995 -0.2768
68645POPC   C1A15715  21.144   7.268   9.025 -0.1562  0.0158 -0.1406
68645POPC   D2A15716  21.393   7.428   8.627 -0.0553 -0.0728 -0.1289
68645POPC   C3A15717  21.630   7.592   8.294 -0.4855  0.1169  0.1774
68645POPC   C4A15718  21.771   7.610   7.887  0.1107  0.0776 -0.3677
68645POPC   C1B15719  21.529   7.031   9.110  0.0476 -0.2449 -0.2535
68645POPC   C2B15720  21.812   7.230   8.856  0.3238 -0.2090  0.1956
68645POPC   C3B15721  21.981   7.531   8.620  0.1443 -0.3476 -0.2102
68645POPC   C4B15722  22.047   7.961   8.500  0.0626  0.4782 -0.1264
68646POPC   NC315723  17.311   2.260   8.394  0.0744 -0.1547  0.0532
68646POPC   PO415724  17.519   2.199   8.693  0.1668 -0.0400 -0.1974
68646POPC   GL115725  17.801   2.019   8.433  0.0052 -0.1555 -0.2204
68646POPC   GL215726  17.912   2.283   8.407 -0.4318 -0.2216  0.0233
68646POPC   C1A15727  17.746   1.858   7.963  0.1912 -0.0410  0.2837
68646POPC   D2A15728  17.825   1.476   7.763  0.3348  0.1602 -0.0192
68646POPC   C3A15729  18.046   1.564   7.361  0.0225 -0.3646 -0.1256
68646POPC   C4A15730  18.013   1.687   6.897 -0.4900 -0.0466 -0.1192
68646POPC   C1B15731  17.691   2.368   8.047  0.1750  0.1021  0.2084
68646POPC   C2B15732  17.318   2.182   7.787 -0.0614 -0.1383 -0.1077
68646POPC   C3B15733  17.088   2.171   7.425  0.2191  0.0853 -0.1643
68646POPC   C4B15734  17.058   2.560   7.149 -0.1348 -0.0610 -0.0025
68647POPC   NC315735  17.844  31.961   7.826 -0.0953 -0.1948  0.0623
68647POPC   PO415736  18.187  32.002   7.939 -0.1312 -0.3081  0.1979
68647POPC   GL115737  18.202  32.040   7.485  0.2153 -0.0481 -0.3441
68647POPC   GL215738  18.144  31.764   7.410 -0.0630 -0.0386  0.0824
68647POPC   C1A15739  18.226  32.104   7.055  0.0704 -0.2668  0.0807
68647POPC   D2A15740  18.208  32.032   6.635  0.3111  0.1418  0.1781
68647POPC   C3A15741  17.930  32.313   6.440  0.1387  0.1926  0.3850
68647POPC   C4A15742  17.508  32.415   6.518 -0.0300  0.1400  0.0114
68647POPC   C1B15743  17.890  31.595   7.082 -0.0300 -0.0523  0.1814
68647POPC   C2B15744  17.736  31.856   6.778 -0.4773 -0.2275  0.1084
68647POPC   C3B15745  17.344  32.055   6.802 -0.0273 -0.0587 -0.3658
68647POPC   C4B15746  17.002  32.267   6.589  0.0967  0.0903 -0.1130
68648POPC   NC315747  19.014   2.531   9.301 -0.1423  0.0631 -0.0599
68648POPC   PO415748  18.793   2.252   9.173  0.0829 -0.0644  0.1309
68648POPC   GL115749  18.636   2.293   8.833 -0.2761  0.2444 -0.2145
68648POPC   GL215750  18.847   2.527   8.760 -0.2897  0.1898 -0.1316
68648POPC   C1A15751  18.415   2.386   8.422 -0.1692  0.1441 -0.3405
68648POPC   D2A15752  18.301   2.683   8.102 -0.4308 -0.2578  0.1042
68648POPC   C3A15753  18.004   2.600   7.700  0.0047  0.2474 -0.2041
68648POPC   C4A15754  17.618   2.482   7.540 -0.1801 -0.0710  0.1891
68648POPC   C1B15755  19.096   2.493   8.361  0.0261 -0.0306  0.0860
68648POPC   C2B15756  19.127   2.419   7.868  0.2157  0.1091  0.1099
68648POPC   C3B15757  19.070   2.691   7.480  0.2981  0.0759 -0.1525
68648POPC   C4B15758  19.137   2.952   7.137 -0.2754 -0.0969 -0.0764
68649POPC   NC315759  17.945  14.753   7.733 -0.0504 -0.2610 -0.0022
68649POPC   PO415760  17.754  15.040   7.888 -0.1409 -0.1176 -0.2151
68649POPC   GL115761  17.646  15.047   7.476  0.2567  0.1355 -0.1422
68649POPC   GL215762  17.828  14.997   7.286 -0.2678  0.0722 -0.0805
68649POPC   C1A15763  17.384  15.129   7.092  0.0759 -0.2047 -0.1066
68649POPC   D2A15764  17.161  15.385   6.713 -0.2425 -0.3115 -0.5095
68649POPC   C3A15765  16.919  15.301   6.412 -0.0047  0.1732 -0.0256
68649POPC   C4A15766  16.911  15.169   5.954  0.1764  0.0160  0.2035
68649POPC   C1B15767  17.796  15.153   6.846  0.2000 -0.0482 -0.1449
68649POPC   C2B15768  17.526  15.144   6.499  0.0848 -0.2632  0.1983
68649POPC   C3B15769  17.306  14.853   6.201 -0.2604 -0.0768 -0.0947
68649POPC   C4B15770  17.010  14.604   5.927 -0.1409 -0.0171 -0.2719
68650POPC   NC315771  30.686   7.067  13.368  0.1544 -0.0715  0.0696
68650POPC   PO415772  30.548   7.272  13.658 -0.4911 -0.3269  0.1644
68650POPC   GL115773  30.258   7.392  13.810  0.3307  0.1229  0.0817
68650POPC   GL215774  30.329   7.364  14.119  0.2646 -0.0515 -0.2513
68650POPC   C1A15775  29.806   7.276  13.872 -0.1119 -0.0760  0.3113
68650POPC   D2A15776  29.506   6.919  13.975 -0.0296 -0.2411 -0.0362
68650POPC   C3A15777  29.124   7.046  14.121 -0.1229  0.2686 -0.5180
68650POPC   C4A15778  28.829   6.753  14.342  0.1992  0.2389  0.0237
68650POPC   C1B15779  29.999   7.190  14.319  0.0818 -0.1657 -0.0840
68650POPC   C2B15780  29.617   6.984  14.447  0.0695 -0.0481  0.0443
68650POPC   C3B15781  29.271   6.762  14.574  0.1506  0.0666 -0.1205
68650POPC   C4B15782  28.962   6.512  14.711 -0.0383 -0.3725  0.0768
68651POPC   NC315783  17.982   7.441   9.415 -0.3291 -0.1150 -0.0567
68651POPC   PO415784  18.166   7.077   9.314 -0.1155 -0.1368  0.2800
68651POPC   GL115785  18.104   6.881   8.932 -0.0161 -0.2575 -0.0701
68651POPC   GL215786  17.832   6.972   8.804  0.2131  0.1166 -0.3608
68651POPC   C1A15787  18.227   6.921   8.497 -0.1218 -0.2674  0.2953
68651POPC   D2A15788  18.225   7.068   7.995  0.3169 -0.0089 -0.1617
68651POPC   C3A15789  18.143   6.707   7.695  0.2700  0.0659  0.3427
68651POPC   C4A15790  18.266   6.573   7.256  0.2649 -0.2005  0.2020
68651POPC   C1B15791  17.794   6.810   8.373  0.1791 -0.0767  0.0336
68651POPC   C2B15792  17.566   6.783   7.926  0.1653  0.3280 -0.0409
68651POPC   C3B15793  17.545   6.748   7.484  0.0861  0.2385 -0.0029
68651POPC   C4B15794  17.769   6.584   7.104  0.0391  0.2231  0.0229
68652POPC   NC315795  28.849  11.328   9.796  0.1579  0.0492 -0.0102
68652POPC   PO415796  28.542  11.200  10.026  0.0209 -0.2745  0.0435
68652POPC   GL115797  28.335  10.972   9.693 -0.2938  0.1605  0.0903
68652POPC   GL215798  28.578  11.031   9.530  0.1494 -0.1847 -0.0867
68652POPC   C1A15799  28.026  10.660   9.471 -0.0048 -0.1926 -0.0851
68652POPC   D2A15800  27.667  10.392   9.314  0.2109 -0.2550 -0.1129
68652POPC   C3A15801  27.618  10.421   8.864  0.0172  0.2327 -0.2056
68652POPC   C4A15802  27.488  10.077   8.641 -0.2910  0.0302  0.2852
68652POPC   C1B15803  28.575  10.559   9.442 -0.3483 -0.0223 -0.0381
68652POPC   C2B15804  28.290  10.189   9.393 -0.0882 -0.2073 -0.1005
68652POPC   C3B15805  27.906   9.983   9.260  0.0895 -0.0169  0.0267
68652POPC   C4B15806  27.447   9.945   9.248  0.0435 -0.1636 -0.1318
68653POPC   NC315807  22.083   2.130   9.744  0.1734 -0.0498 -0.4227
68653POPC   PO415808  21.963   1.732   9.794  0.0911  0.1195 -0.2809
68653POPC   GL115809  21.749   1.650   9.416 -0.2787  0.0062 -0.2810
68653POPC   GL215810  21.851   1.490   9.223  0.2388  0.1430 -0.0082
68653POPC   C1A15811  21.631   1.923   9.037 -0.0171 -0.0176  0.1168
68653POPC   D2A15812  21.554   2.325   8.812 -0.0542  0.1503  0.0970
68653POPC   C3A15813  21.407   2.789   8.801  0.0680 -0.0586  0.0269
68653POPC   C4A15814  21.479   3.234   8.625  0.1220 -0.2011  0.0531
68653POPC   C1B15815  22.097   1.812   9.004 -0.2128  0.0944 -0.0835
68653POPC   C2B15816  22.140   2.205   8.846  0.2755 -0.1289 -0.1015
68653POPC   C3B15817  22.148   2.601   8.601 -0.0169  0.0796  0.0874
68653POPC   C4B15818  22.449   2.846   8.360  0.3784 -0.0919  0.1265
68654POPC   NC315819  32.356   1.923   8.482  0.1700  0.0276  0.2853
68654POPC   PO415820  32.136   1.820   8.777  0.2339 -0.1740 -0.2106
68654POPC   GL115821  31.874   1.980   8.600 -0.3322 -0.3369  0.2405
68654POPC   GL215822  31.699   2.200   8.537  0.1630 -0.1320  0.0958
68654POPC   C1A15823  31.891   1.997   8.123 -0.1719 -0.1697  0.2093
68654POPC   D2A15824  32.040   2.045   7.687  0.1703 -0.1957 -0.0355
68654POPC   C3A15825  31.839   2.148   7.247 -0.1544  0.1558  0.3668
68654POPC   C4A15826  31.807   2.178   6.790  0.1544 -0.0896 -0.1348
68654POPC   C1B15827  31.586   2.365   8.084 -0.0413  0.1508 -0.3237
68654POPC   C2B15828  31.602   2.595   7.675 -0.0356 -0.1382  0.3011
68654POPC   C3B15829  31.570   2.901   7.335 -0.1310  0.2865  0.2841
68654POPC   C4B15830  31.755   3.049   6.890 -0.1318 -0.2601  0.0444
68655POPC   NC315831  17.748   9.038   9.225 -0.1109  0.0410  0.0552
68655POPC   PO415832  18.006   8.782   9.052 -0.1817  0.2007  0.2450
68655POPC   GL115833  18.296   8.910   8.749 -0.0895 -0.0979 -0.1608
68655POPC   GL215834  18.231   9.054   8.479 -0.3759 -0.3479 -0.0261
68655POPC   C1A15835  18.634   8.811   8.490  0.1599 -0.1054  0.1208
68655POPC   D2A15836  19.018   8.836   8.305  0.0983  0.3191 -0.0226
68655POPC   C3A15837  19.012   8.717   7.822  0.1626 -0.2681 -0.0476
68655POPC   C4A15838  18.975   8.277   7.682 -0.0045  0.1803 -0.0862
68655POPC   C1B15839  18.154   8.780   8.135  0.0199 -0.0082  0.0878
68655POPC   C2B15840  17.971   8.613   7.726  0.1857 -0.0398 -0.0107
68655POPC   C3B15841  17.809   8.573   7.282  0.2209 -0.0372 -0.0981
68655POPC   C4B15842  17.455   8.725   7.035  0.0076 -0.1213 -0.2509
68656POPC   NC315843  30.518  16.604   8.290 -0.0814 -0.0430  0.0402
68656POPC   PO415844  30.864  16.437   8.412  0.5100  0.1183  0.1289
68656POPC   GL115845  30.688  16.383   7.969 -0.1831  0.1224 -0.1206
68656POPC   GL215846  30.771  16.146   7.857 -0.2549 -0.2253 -0.0640
68656POPC   C1A15847  30.767  16.584   7.588  0.3857 -0.1033 -0.0966
68656POPC   D2A15848  30.568  16.996   7.371  0.0447 -0.0641 -0.2382
68656POPC   C3A15849  30.603  17.414   7.166 -0.1652 -0.1373  0.2010
68656POPC   C4A15850  30.482  17.733   6.877 -0.0195 -0.1790  0.1013
68656POPC   C1B15851  31.017  16.234   7.441  0.1533 -0.1568 -0.0661
68656POPC   C2B15852  30.958  16.441   7.035  0.1426 -0.0325  0.1912
68656POPC   C3B15853  30.517  16.655   6.854 -0.2385  0.0115  0.0039
68656POPC   C4B15854  30.265  17.098   6.929 -0.1041  0.2365  0.0568
68657POPC   NC315855  19.166   7.794   9.081 -0.0472 -0.1432 -0.1855
68657POPC   PO415856  19.310   7.441   9.159  0.1781 -0.0052  0.2453
68657POPC   GL115857  19.456   7.410   8.817 -0.2010  0.0459 -0.1257
68657POPC   GL215858  19.592   7.657   8.788 -0.2968 -0.0501 -0.0713
68657POPC   C1A15859  19.757   7.087   8.674 -0.0321 -0.1345  0.0645
68657POPC   D2A15860  20.036   6.863   8.461  0.0495  0.0306 -0.0159
68657POPC   C3A15861  20.233   6.879   8.041  0.0987 -0.0548  0.1206
68657POPC   C4A15862  20.554   6.952   7.674  0.0528 -0.0874  0.0529
68657POPC   C1B15863  19.732   7.664   8.322  0.1170  0.2282 -0.0462
68657POPC   C2B15864  19.724   7.592   7.854  0.2800 -0.2011  0.1227
68657POPC   C3B15865  19.662   7.936   7.509  0.0910 -0.1302 -0.0065
68657POPC   C4B15866  19.647   8.087   7.034 -0.0966 -0.0670  0.0184
68658POPC   NC315867  30.979   7.460  10.863 -0.0830 -0.0782 -0.1997
68658POPC   PO415868  30.927   7.382  11.233 -0.0945 -0.1499 -0.1833
68658POPC   GL115869  30.547   7.255  11.037  0.2237 -0.3671 -0.1206
68658POPC   GL215870  30.316   7.165  11.192 -0.1128  0.0111 -0.1405
68658POPC   C1A15871  30.551   7.021  10.629 -0.1149  0.2161 -0.1086
68658POPC   D2A15872  30.437   6.681  10.316 -0.1061 -0.1198 -0.0698
68658POPC   C3A15873  30.400   6.707   9.837  0.3400  0.0556 -0.1317
68658POPC   C4A15874  30.285   6.745   9.441 -0.1188  0.0853 -0.1561
68658POPC   C1B15875  29.977   7.259  10.944  0.4913  0.2560  0.1521
68658POPC   C2B15876  29.744   7.279  10.533 -0.0644  0.0483  0.0277
68658POPC   C3B15877  29.310   7.217  10.498  0.3608  0.0037 -0.0232
68658POPC   C4B15878  28.872   7.207  10.343  0.1345 -0.3480 -0.0389
68659POPC   NC315879  22.592   2.047  12.222  0.1824  0.1879  0.0702
68659POPC   PO415880  22.696   1.794  11.914 -0.0036  0.0671 -0.1044
68659POPC   GL115881  23.044   2.041  11.942  0.0925 -0.1859 -0.3712
68659POPC   GL215882  23.215   1.880  11.968  0.0081  0.0593  0.2750
68659POPC   C1A15883  23.208   2.376  12.168  0.2006 -0.2838 -0.2305
68659POPC   D2A15884  23.372   2.551  12.548  0.0752 -0.1349 -0.0560
68659POPC   C3A15885  23.756   2.608  12.721 -0.0459  0.2076 -0.0980
68659POPC   C4A15886  23.897   2.828  13.151  0.1710  0.1994  0.4018
68659POPC   C1B15887  23.402   2.276  11.724  0.1680 -0.0101 -0.0394
68659POPC   C2B15888  23.576   2.730  11.850 -0.0384  0.0656 -0.0326
68659POPC   C3B15889  23.676   2.919  12.207  0.0112  0.0575 -0.0790
68659POPC   C4B15890  23.973   2.987  12.534 -0.1909  0.0493  0.1609
68660POPC   NC315891  20.676   6.146   9.583 -0.0853 -0.2164  0.0772
68660POPC   PO415892  20.899   6.163   9.854  0.2275 -0.4460 -0.1523
68660POPC   GL115893  21.300   6.149   9.699 -0.0332 -0.0817 -0.2258
68660POPC   GL215894  21.420   6.078  10.028  0.1241 -0.2546 -0.2738
68660POPC   C1A15895  21.678   6.214   9.446  0.1517 -0.0095  0.1720
68660POPC   D2A15896  22.135   6.146   9.457 -0.1453 -0.1074 -0.1508
68660POPC   C3A15897  22.203   5.795   9.754 -0.4021  0.0455  0.0922
68660POPC   C4A15898  22.133   5.388   9.935 -0.0163 -0.1001 -0.0066
68660POPC   C1B15899  21.517   6.490   9.825  0.3793  0.0644 -0.1328
68660POPC   C2B15900  21.753   6.736   9.481  0.2079  0.3875 -0.3566
68660POPC   C3B15901  21.995   6.567   9.146  0.1784 -0.0334  0.1078
68660POPC   C4B15902  21.922   6.743   8.716  0.1497 -0.1678  0.2696
68661POPC   NC315903  25.560   0.682  11.278 -0.3360  0.2742  0.1746
68661POPC   PO415904  25.727   0.783  11.611  0.1015 -0.5201 -0.1301
68661POPC   GL115905  25.637   1.141  11.465  0.3015 -0.1243 -0.1073
68661POPC   GL215906  25.729   1.370  11.300 -0.3099  0.0416 -0.1089
68661POPC   C1A15907  25.524   1.468  11.734  0.1621 -0.0308 -0.1603
68661POPC   D2A15908  25.633   1.881  11.886  0.0544  0.0021  0.1680
68661POPC   C3A15909  25.461   2.259  12.083 -0.1166  0.0411 -0.0843
68661POPC   C4A15910  25.207   2.670  12.118 -0.0438 -0.0117  0.0028
68661POPC   C1B15911  25.665   1.850  11.358  0.1175  0.1444 -0.1238
68661POPC   C2B15912  25.438   2.225  11.562 -0.0558  0.0235  0.2524
68661POPC   C3B15913  25.336   2.698  11.542  0.1427 -0.2309  0.2278
68661POPC   C4B15914  25.399   3.044  11.871 -0.0197  0.0229  0.1262
68662POPC   NC315915  28.060  11.217  10.048  0.2644  0.4403 -0.0584
68662POPC   PO415916  28.107  11.024  10.392 -0.1173  0.1206 -0.0225
68662POPC   GL115917  28.105  10.662  10.280  0.0454  0.0202 -0.3473
68662POPC   GL215918  28.303  10.724  10.050  0.0725  0.1995 -0.1045
68662POPC   C1A15919  27.819  10.330  10.313  0.0979  0.2848 -0.1914
68662POPC   D2A15920  27.625  10.133  10.684  0.5316 -0.0548  0.0916
68662POPC   C3A15921  27.646   9.677  10.677 -0.3549 -0.0016 -0.0649
68662POPC   C4A15922  27.512   9.235  10.603 -0.0964 -0.0261 -0.1143
68662POPC   C1B15923  28.223  10.295   9.932  0.5256 -0.2772  0.0579
68662POPC   C2B15924  28.118   9.830   9.821  0.0663  0.2790  0.0416
68662POPC   C3B15925  27.995   9.392   9.854 -0.0077  0.0374 -0.1283
68662POPC   C4B15926  27.909   8.981   9.696  0.1023  0.0016 -0.1468
68663POPC   NC315927  31.838   2.080   9.041 -0.0502  0.1568 -0.0059
68663POPC   PO415928  31.720   2.448   9.049 -0.0673  0.0086  0.0601
68663POPC   GL115929  31.581   2.618   8.787  0.3761 -0.3137  0.0258
68663POPC   GL215930  31.379   2.542   8.631 -0.2952 -0.1120 -0.0241
68663POPC   C1A15931  31.850   2.696   8.406  0.1929 -0.1496  0.0124
68663POPC   D2A15932  32.080   2.445   8.104 -0.3287 -0.2740 -0.1550
68663POPC   C3A15933  32.094   2.629   7.667  0.0680 -0.0461  0.0452
68663POPC   C4A15934  31.952   2.653   7.226 -0.1118  0.1146 -0.1569
68663POPC   C1B15935  31.168   2.732   8.255  0.0965 -0.0324 -0.0597
68663POPC   C2B15936  30.903   3.062   8.095 -0.4163  0.0828 -0.0165
68663POPC   C3B15937  30.608   3.128   7.757 -0.1221 -0.1322  0.1221
68663POPC   C4B15938  30.658   3.061   7.327 -0.0194  0.1367  0.1964
68664POPC   NC315939  23.529   9.859  10.600  0.2418  0.0472 -0.0457
68664POPC   PO415940  23.705  10.203  10.653  0.0174 -0.5698  0.0629
68664POPC   GL115941  23.854  10.016  10.319 -0.3118  0.1995  0.1328
68664POPC   GL215942  24.156  10.085  10.314  0.0641 -0.1081  0.3782
68664POPC   C1A15943  23.931  10.102   9.867 -0.0685 -0.3535  0.0562
68664POPC   D2A15944  23.680   9.999   9.487  0.0254 -0.0534  0.3563
68664POPC   C3A15945  23.620   9.563   9.270  0.1245  0.2011  0.0922
68664POPC   C4A15946  23.311   9.465   8.960 -0.1285  0.2069  0.0976
68664POPC   C1B15947  24.152   9.603  10.242 -0.0190 -0.3183 -0.0038
68664POPC   C2B15948  24.402   9.183  10.281 -0.1346 -0.2256  0.0182
68664POPC   C3B15949  24.638   8.806  10.419 -0.2157  0.0314  0.1864
68664POPC   C4B15950  24.601   8.338  10.524 -0.0110  0.0796 -0.3071
68665POPC   NC315951  25.763  13.531   9.585  0.1679  0.2690  0.0548
68665POPC   PO415952  25.590  13.654   9.242 -0.3221  0.0103  0.0099
68665POPC   GL115953  25.505  13.664   8.873 -0.2912 -0.1489 -0.1320
68665POPC   GL215954  25.468  13.933   8.816 -0.1574 -0.1432  0.0167
68665POPC   C1A15955  25.691  13.504   8.476 -0.0139 -0.2053  0.2272
68665POPC   D2A15956  25.696  13.250   8.046  0.0337 -0.0324  0.1653
68665POPC   C3A15957  26.084  13.307   7.810 -0.1926 -0.1420 -0.1797
68665POPC   C4A15958  26.145  13.277   7.380  0.3295 -0.1988  0.0884
68665POPC   C1B15959  25.319  13.919   8.403 -0.1705  0.3428 -0.0143
68665POPC   C2B15960  25.578  13.765   8.026 -0.2672  0.0622 -0.1582
68665POPC   C3B15961  25.909  13.777   7.746  0.2506  0.1025 -0.1016
68665POPC   C4B15962  26.367  13.791   7.720 -0.1357 -0.2864 -0.2013
68666POPC   NC315963  22.275  11.074   8.953 -0.0435 -0.0686  0.1901
68666POPC   PO415964  21.887  11.010   8.869  0.0467 -0.1009 -0.1809
68666POPC   GL115965  22.139  10.694   8.718  0.0728  0.0700  0.1023
68666POPC   GL215966  21.926  10.548   8.579  0.1167 -0.0279 -0.1179
68666POPC   C1A15967  22.378  10.641   8.352  0.0759  0.0189 -0.2719
68666POPC   D2A15968  22.462  10.411   7.939  0.1879  0.1603  0.0221
68666POPC   C3A15969  22.795  10.135   7.698 -0.0272 -0.2559  0.2236
68666POPC   C4A15970  23.143  10.119   7.370  0.0837 -0.2000  0.0249
68666POPC   C1B15971  21.884  10.411   8.122 -0.0087 -0.0613 -0.0372
68666POPC   C2B15972  21.729  10.123   7.820 -0.1000  0.0840 -0.0403
68666POPC   C3B15973  21.566   9.732   7.591 -0.0534 -0.1198 -0.0866
68666POPC   C4B15974  21.208   9.429   7.550  0.0224  0.1313  0.1943
68667POPC   NC315975  21.310   5.684  11.880  0.2522 -0.0837 -0.0322
68667POPC   PO415976  21.216   5.317  11.678  0.3767  0.0725 -0.0840
68667POPC   GL115977  21.496   5.369  11.444  0.1369 -0.1152  0.2934
68667POPC   GL215978  21.335   5.586  11.280 -0.0310 -0.0213 -0.0321
68667POPC   C1A15979  21.950   5.223  11.374  0.0295 -0.0437 -0.0274
68667POPC   D2A15980  22.195   5.222  10.999 -0.0766 -0.2953 -0.1765
68667POPC   C3A15981  22.536   5.108  10.776 -0.0443  0.0980 -0.0746
68667POPC   C4A15982  22.842   4.801  10.727  0.0215 -0.0764  0.2031
68667POPC   C1B15983  21.709   5.566  11.070  0.3492 -0.0454  0.1405
68667POPC   C2B15984  21.997   5.549  10.648  0.0530 -0.0436 -0.2980
68667POPC   C3B15985  22.377   5.455  10.365  0.0597 -0.0025 -0.0425
68667POPC   C4B15986  22.593   5.456   9.964 -0.3877 -0.2366 -0.2948
68668POPC   NC315987  27.953   9.625  14.144 -0.2124  0.2888  0.2449
68668POPC   PO415988  27.802   9.813  14.489 -0.0991 -0.2269 -0.0670
68668POPC   GL115989  27.604   9.544  14.418  0.0809 -0.3281  0.1557
68668POPC   GL215990  27.389   9.299  14.298 -0.1093  0.1010 -0.2227
68668POPC   C1A15991  27.530   9.291  14.795 -0.1867 -0.0512  0.0812
68668POPC   D2A15992  27.554   9.158  15.256  0.2223 -0.0064 -0.0790
68668POPC   C3A15993  27.693   8.737  15.372  0.4806 -0.1494  0.1758
68668POPC   C4A15994  27.943   8.460  15.215 -0.0403  0.1411 -0.0051
68668POPC   C1B15995  27.291   8.858  14.114  0.0022  0.0655 -0.1669
68668POPC   C2B15996  27.292   8.407  14.252 -0.1584 -0.1482  0.0828
68668POPC   C3B15997  26.943   8.079  14.332 -0.0638  0.1589  0.1279
68668POPC   C4B15998  26.828   7.660  14.278  0.1196  0.1200  0.2963
68669POPC   NC315999  20.580   6.559  10.295  0.1870  0.0046 -0.1211
68669POPC   PO416000  20.571   6.583   9.931 -0.2262 -0.0527 -0.1511
68669POPC   GL116001  20.822   6.627   9.601  0.2607  0.1126 -0.0331
68669POPC   GL216002  21.042   6.689   9.736  0.2299  0.0191  0.0498
68669POPC   C1A16003  20.865   6.791   9.164 -0.2597  0.2065  0.2435
68669POPC   D2A16004  20.991   6.826   8.748 -0.4274 -0.0653  0.0474
68669POPC   C3A16005  21.440   6.937   8.617  0.2513  0.0105 -0.0358
68669POPC   C4A16006  21.774   7.161   8.323  0.1346  0.3550 -0.3461
68669POPC   C1B16007  21.243   6.450   9.389  0.0764 -0.1361 -0.0197
68669POPC   C2B16008  21.466   6.541   9.031  0.0295  0.2492  0.1322
68669POPC   C3B16009  21.602   6.333   8.626  0.0419  0.0399 -0.0009
68669POPC   C4B16010  21.712   6.330   8.214  0.0557 -0.1140 -0.2055
68670POPC   NC316011  29.087   0.959  14.448  0.1642  0.0032  0.3529
68670POPC   PO416012  29.375   0.933  14.718 -0.0860  0.2543 -0.0347
68670POPC   GL116013  29.054   1.035  14.945  0.2017  0.0432 -0.2435
68670POPC   GL216014  28.950   1.275  14.851  0.2160  0.0998  0.1379
68670POPC   C1A16015  28.872   1.221  15.336  0.1669 -0.0875  0.3670
68670POPC   D2A16016  28.736   1.589  15.595 -0.1075  0.3065  0.1749
68670POPC   C3A16017  28.314   1.667  15.610  0.0977 -0.0524 -0.0337
68670POPC   C4A16018  27.946   1.766  15.457  0.2908 -0.1855  0.2865
68670POPC   C1B16019  28.686   1.651  14.859  0.0480  0.3619 -0.0443
68670POPC   C2B16020  28.527   1.913  15.200 -0.1787 -0.1727 -0.1530
68670POPC   C3B16021  28.412   2.285  15.438 -0.0943  0.2344  0.2152
68670POPC   C4B16022  28.177   2.157  15.810  0.0881  0.1090 -0.0600
68671POPC   NC316023  22.242  32.666  15.100  0.1407 -0.2633  0.3379
68671POPC   PO416024  22.184  33.027  14.949 -0.0366 -0.1691  0.0046
68671POPC   GL116025  22.349  33.356  15.155 -0.0576  0.0815  0.0157
68671POPC   GL216026  22.483  33.136  15.400 -0.2484  0.2605  0.1223
68671POPC   C1A16027  22.593  33.629  15.395 -0.2158 -0.0569  0.0020
68671POPC   D2A16028  22.626  34.111  15.414 -0.0511  0.2030 -0.0766
68671POPC   C3A16029  23.018  34.175  15.645 -0.0486  0.0644 -0.0028
68671POPC   C4A16030  23.439  34.291  15.846  0.0018 -0.0569  0.0227
68671POPC   C1B16031  22.720  33.296  15.731 -0.3180 -0.0076 -0.2507
68671POPC   C2B16032  22.875  33.720  15.878  0.2348 -0.0364 -0.1256
68671POPC   C3B16033  23.123  34.027  16.164 -0.2816 -0.0122  0.1682
68671POPC   C4B16034  23.369  34.438  16.301  0.2953  0.0259  0.1345
68672POPC   NC316035  32.744   4.832   9.311 -0.1093 -0.0375  0.2046
68672POPC   PO416036  32.719   4.454   9.426  0.1524  0.2093  0.0061
68672POPC   GL116037  32.701   4.257   9.002  0.0168  0.1167  0.0901
68672POPC   GL216038  32.529   4.536   8.905 -0.0985  0.0123 -0.3744
68672POPC   C1A16039  32.652   4.068   8.571  0.2324  0.0730  0.1402
68672POPC   D2A16040  32.342   4.122   8.280 -0.3028  0.1994 -0.0250
68672POPC   C3A16041  32.469   3.916   7.883 -0.1214 -0.0754  0.1460
68672POPC   C4A16042  32.843   3.994   7.651 -0.1451 -0.0252 -0.3003
68672POPC   C1B16043  32.505   4.528   8.439 -0.1136 -0.2679 -0.0313
68672POPC   C2B16044  32.551   4.517   7.972 -0.2261  0.0248 -0.1377
68672POPC   C3B16045  32.414   4.290   7.612 -0.2148  0.2167  0.2977
68672POPC   C4B16046  32.496   4.148   7.173 -0.1067 -0.1153  0.2703
68673POPC   NC316047  21.667   3.620  10.653 -0.2443  0.1719 -0.1130
68673POPC   PO416048  21.822   3.388  10.364 -0.0563  0.2242  0.1829
68673POPC   GL116049  21.901   3.601  10.049  0.2451 -0.3556 -0.1677
68673POPC   GL216050  21.746   3.598   9.851  0.2771  0.1063  0.2353
68673POPC   C1A16051  22.283   3.649   9.861 -0.2722 -0.0766  0.0923
68673POPC   D2A16052  22.666   3.720   9.596 -0.1294 -0.2058  0.1249
68673POPC   C3A16053  22.803   4.183   9.585  0.0178 -0.0717 -0.0269
68673POPC   C4A16054  22.793   4.611   9.698  0.3474  0.0394 -0.2046
68673POPC   C1B16055  21.893   3.403   9.502 -0.3844  0.1829  0.0680
68673POPC   C2B16056  21.962   3.390   9.026 -0.2689 -0.1361  0.3156
68673POPC   C3B16057  21.964   3.481   8.552 -0.2918  0.0684  0.1200
68673POPC   C4B16058  22.178   3.519   8.107  0.2036 -0.0987 -0.2351
68674POPC   NC316059  24.396  12.172   9.212 -0.2879  0.1762  0.1044
68674POPC   PO416060  24.002  12.150   9.370  0.0996  0.0332  0.1267
68674POPC   GL116061  23.867  11.914   9.139 -0.0649 -0.0280  0.0992
68674POPC   GL216062  24.074  11.895   8.939  0.1101  0.1525  0.1169
68674POPC   C1A16063  23.625  11.501   9.099 -0.1273  0.2400  0.2863
68674POPC   D2A16064  23.688  11.202   8.733 -0.1400 -0.2018 -0.1675
68674POPC   C3A16065  23.801  10.740   8.672  0.1492  0.1246  0.0111
68674POPC   C4A16066  24.007  10.535   8.355 -0.3595 -0.1880  0.0350
68674POPC   C1B16067  24.034  11.529   8.622  0.0502 -0.3329  0.3872
68674POPC   C2B16068  23.903  11.617   8.189 -0.0871  0.1064 -0.0779
68674POPC   C3B16069  24.058  11.926   7.922  0.1174  0.0918  0.0615
68674POPC   C4B16070  23.922  12.295   7.579 -0.0248  0.0263 -0.0215
68675POPC   NC316071  26.426   1.053  12.874 -0.0193 -0.0044  0.2330
68675POPC   PO416072  26.791   0.840  12.805  0.1861 -0.2903 -0.1236
68675POPC   GL116073  26.798   1.235  12.748 -0.3623  0.1818  0.1351
68675POPC   GL216074  26.740   1.219  12.461  0.0766  0.3305  0.1525
68675POPC   C1A16075  26.676   1.547  13.066 -0.0417 -0.0254  0.1573
68675POPC   D2A16076  26.552   1.787  13.408 -0.0665 -0.1090 -0.0145
68675POPC   C3A16077  26.523   2.233  13.431 -0.0111 -0.1383  0.2079
68675POPC   C4A16078  26.411   2.574  13.091  0.1056  0.0963 -0.1100
68675POPC   C1B16079  26.431   1.532  12.554 -0.0183  0.2169 -0.1034
68675POPC   C2B16080  26.471   1.963  12.649 -0.0131  0.0209  0.0077
68675POPC   C3B16081  26.225   2.301  12.688  0.1631  0.1233  0.0219
68675POPC   C4B16082  26.059   2.713  12.529 -0.2601  0.1677  0.2142
68676POPC   NC316083  19.227  15.390   8.181 -0.1000  0.2184 -0.1060
68676POPC   PO416084  19.328  15.766   8.235  0.0017 -0.1972  0.3224
68676POPC   GL116085  19.482  15.670   7.905 -0.2108  0.1069  0.1237
68676POPC   GL216086  19.390  15.886   7.734  0.1461 -0.1287 -0.0539
68676POPC   C1A16087  19.789  15.637   7.573 -0.0898 -0.2213 -0.0680
68676POPC   D2A16088  19.885  15.690   7.123  0.0077  0.3618 -0.2385
68676POPC   C3A16089  19.813  16.044   6.813 -0.2243 -0.2951  0.2457
68676POPC   C4A16090  19.452  16.173   6.568 -0.0208  0.1274  0.0769
68676POPC   C1B16091  19.086  15.730   7.356 -0.2076 -0.1559  0.3619
68676POPC   C2B16092  18.998  15.869   6.919  0.1832 -0.0428 -0.2300
68676POPC   C3B16093  18.944  16.149   6.539  0.1064 -0.2014  0.0021
68676POPC   C4B16094  18.819  16.228   6.097  0.2244  0.1544 -0.2085
68677POPC   NC316095  28.085   2.011  10.393 -0.3032 -0.0506 -0.2063
68677POPC   PO416096  28.357   2.098  10.648  0.0173 -0.0976 -0.1044
68677POPC   GL116097  28.193   2.307  10.861 -0.2252  0.0938  0.2678
68677POPC   GL216098  28.330   2.550  10.900 -0.0106  0.2614 -0.0042
68677POPC   C1A16099  27.901   2.539  10.646 -0.2864  0.1372 -0.0101
68677POPC   D2A16100  27.574   2.615  10.362  0.2997  0.3453  0.1526
68677POPC   C3A16101  27.221   2.895  10.316 -0.0184 -0.0751  0.1869
68677POPC   C4A16102  26.787   3.001  10.234  0.0544  0.1545  0.2219
68677POPC   C1B16103  28.102   2.971  10.825 -0.1647  0.0239  0.2195
68677POPC   C2B16104  27.898   3.309  11.084  0.0985 -0.1028 -0.1421
68677POPC   C3B16105  27.523   3.603  10.909 -0.0159  0.0672  0.0868
68677POPC   C4B16106  27.119   3.758  10.734 -0.0933 -0.0319 -0.0389
68678POPC   NC316107  17.726  16.137   8.391 -0.1379  0.0966 -0.0137
68678POPC   PO416108  17.944  16.026   8.061  0.1640  0.1291 -0.0890
68678POPC   GL116109  17.848  16.173   7.619  0.0747  0.1382 -0.1651
68678POPC   GL216110  17.874  15.894   7.557 -0.1287 -0.0520 -0.1210
68678POPC   C1A16111  17.786  16.311   7.182 -0.2966  0.1584  0.2329
68678POPC   D2A16112  17.687  16.393   6.799  0.0540 -0.0323 -0.2969
68678POPC   C3A16113  17.576  16.100   6.556  0.1048  0.0338 -0.2547
68678POPC   C4A16114  17.200  16.092   6.295 -0.0673  0.1211  0.0825
68678POPC   C1B16115  18.180  15.984   7.167 -0.0392  0.1888 -0.2034
68678POPC   C2B16116  18.095  16.048   6.728  0.0355  0.0278  0.1710
68678POPC   C3B16117  17.954  16.337   6.354 -0.0724 -0.2536 -0.4374
68678POPC   C4B16118  17.582  16.592   6.236 -0.0967  0.0017  0.4914
68679POPC   NC316119  25.015  15.894   9.937 -0.1447  0.0506  0.0846
68679POPC   PO416120  25.296  15.790   9.679  0.2034 -0.0727  0.0290
68679POPC   GL116121  25.063  15.986   9.502 -0.1223 -0.2165 -0.3097
68679POPC   GL216122  25.222  16.037   9.184 -0.2016 -0.0196 -0.2585
68679POPC   C1A16123  24.965  16.421   9.422 -0.0960  0.0387 -0.0363
68679POPC   D2A16124  25.085  16.872   9.228 -0.1976  0.0400  0.0065
68679POPC   C3A16125  25.078  17.110   8.853 -0.2832  0.2252  0.0679
68679POPC   C4A16126  25.382  17.119   8.503  0.1384  0.0040 -0.1481
68679POPC   C1B16127  25.136  16.232   8.727  0.1151  0.3206 -0.0280
68679POPC   C2B16128  25.023  16.694   8.567 -0.1568 -0.0709 -0.3518
68679POPC   C3B16129  24.975  16.979   8.224 -0.3294 -0.2221  0.0260
68679POPC   C4B16130  24.942  17.084   7.726  0.0361 -0.0944 -0.2090
68680POPC   NC316131  17.133   5.691   8.911  0.3403 -0.1144  0.0885
68680POPC   PO416132  17.410   5.384   8.913 -0.1963  0.1175 -0.1279
68680POPC   GL116133  17.520   5.400   8.571 -0.0475 -0.0269  0.1942
68680POPC   GL216134  17.359   5.290   8.425 -0.0424  0.2607 -0.0240
68680POPC   C1A16135  17.807   5.492   8.216 -0.2231  0.1161 -0.2685
68680POPC   D2A16136  17.907   5.509   7.750  0.0120  0.1617 -0.1808
68680POPC   C3A16137  17.873   5.820   7.423 -0.2438  0.0420 -0.0113
68680POPC   C4A16138  17.980   6.038   7.082 -0.3164  0.0429 -0.0526
68680POPC   C1B16139  17.370   5.382   7.969 -0.0152 -0.1827 -0.1761
68680POPC   C2B16140  17.314   5.530   7.531 -0.1581 -0.0490  0.3659
68680POPC   C3B16141  17.137   5.481   7.079  0.1336 -0.0831  0.0382
68680POPC   C4B16142  16.811   5.695   6.791 -0.1265  0.3043 -0.1553
68681POPC   NC316143  20.602   0.607  15.372 -0.2388 -0.0767  0.0746
68681POPC   PO416144  20.757   0.956  15.291  0.0084 -0.2273  0.2735
68681POPC   GL116145  20.845   0.784  15.664 -0.4650  0.2375 -0.2195
68681POPC   GL216146  21.061   0.975  15.718  0.1011  0.1976  0.4070
68681POPC   C1A16147  20.863   0.470  16.028  0.0521  0.2296 -0.0242
68681POPC   D2A16148  20.910   0.602  16.486  0.2283 -0.0083 -0.1078
68681POPC   C3A16149  21.211   0.891  16.584  0.0984 -0.0447 -0.0542
68681POPC   C4A16150  21.264   1.367  16.781  0.2881  0.1686  0.1246
68681POPC   C1B16151  21.383   1.074  16.022  0.2025 -0.0345 -0.1848
68681POPC   C2B16152  21.613   1.160  16.405 -0.0174  0.0792 -0.0895
68681POPC   C3B16153  21.812   1.449  16.690 -0.0324 -0.0414 -0.2345
68681POPC   C4B16154  21.926   1.914  16.546  0.6351  0.0137 -0.0385
68682POPC   NC316155  16.958   1.465  15.829 -0.2928  0.0252  0.1330
68682POPC   PO416156  17.147   1.309  16.135  0.0451 -0.0524  0.1893
68682POPC   GL116157  16.927   1.538  16.306 -0.2624  0.1440 -0.2760
68682POPC   GL216158  16.925   1.577  16.630 -0.1365  0.1581  0.2730
68682POPC   C1A16159  16.866   1.987  16.220  0.2607 -0.0752  0.1171
68682POPC   D2A16160  16.499   2.279  16.150  0.2857  0.1438  0.1039
68682POPC   C3A16161  16.124   2.196  16.408  0.0918 -0.0406  0.1545
68682POPC   C4A16162  15.819   2.295  16.779 -0.1888 -0.1829 -0.1304
68682POPC   C1B16163  16.832   1.677  17.053 -0.1350  0.0268  0.0766
68682POPC   C2B16164  16.907   1.524  17.455  0.0027 -0.2885 -0.0149
68682POPC   C3B16165  16.784   1.330  17.877 -0.0037  0.1599  0.0392
68682POPC   C4B16166  16.522   1.186  18.169  0.1490 -0.1036 -0.3019
68683POPC   NC316167  16.611   3.023   8.916  0.2645 -0.1758 -0.2856
68683POPC   PO416168  16.309   2.853   9.111  0.2425  0.0144  0.1085
68683POPC   GL116169  16.209   2.862   8.712 -0.3068  0.0691  0.1808
68683POPC   GL216170  16.441   2.637   8.639 -0.0503  0.2454 -0.1930
68683POPC   C1A16171  16.419   3.051   8.371 -0.2755 -0.1077  0.1785
68683POPC   D2A16172  16.624   3.426   8.139 -0.0776  0.0431  0.1184
68683POPC   C3A16173  16.903   3.564   7.783  0.2145  0.0302 -0.3703
68683POPC   C4A16174  16.929   4.015   7.633  0.1089 -0.2169  0.0250
68683POPC   C1B16175  16.522   2.651   8.150  0.4458 -0.0077  0.0030
68683POPC   C2B16176  16.201   2.777   7.821  0.0116 -0.0623  0.4082
68683POPC   C3B16177  15.960   2.806   7.408  0.0505 -0.1580 -0.2262
68683POPC   C4B16178  15.833   2.884   6.988 -0.1465 -0.0354  0.1288
68684POPC   NC316179  23.080  12.854   8.927 -0.1982 -0.0970  0.2766
68684POPC   PO416180  23.318  12.613   8.758  0.1858  0.1940  0.2039
68684POPC   GL116181  23.393  12.297   8.489  0.0287  0.6062 -0.0703
68684POPC   GL216182  23.694  12.267   8.556  0.0891  0.0726 -0.2896
68684POPC   C1A16183  23.182  12.125   8.132 -0.2572  0.1651  0.1738
68684POPC   D2A16184  23.265  12.221   7.655 -0.1366  0.3159  0.0172
68684POPC   C3A16185  23.095  12.595   7.511  0.1915 -0.1115 -0.1042
68684POPC   C4A16186  22.854  12.731   7.205  0.2946 -0.1551 -0.1130
68684POPC   C1B16187  24.096  12.011   8.484  0.2132  0.2380  0.1448
68684POPC   C2B16188  24.411  11.836   8.230  0.2953  0.2074 -0.1259
68684POPC   C3B16189  24.513  11.674   7.838 -0.4288 -0.2433 -0.5478
68684POPC   C4B16190  24.487  11.425   7.426  0.0020 -0.1597 -0.3140
68685POPC   NC316191  28.410  15.051   9.189  0.0047  0.1014 -0.1592
68685POPC   PO416192  28.208  15.178   8.905 -0.0260  0.1434 -0.1300
68685POPC   GL116193  28.049  14.971   8.527 -0.0850 -0.2613 -0.0728
68685POPC   GL216194  28.294  15.066   8.348 -0.0021 -0.2300  0.2133
68685POPC   C1A16195  27.587  14.895   8.361 -0.2268 -0.3241 -0.1359
68685POPC   D2A16196  27.286  14.963   7.995  0.0225 -0.0700 -0.0581
68685POPC   C3A16197  27.349  14.815   7.575  0.2919  0.2621 -0.1308
68685POPC   C4A16198  27.417  15.073   7.161 -0.1610  0.3035 -0.0078
68685POPC   C1B16199  28.339  14.917   7.947  0.1742 -0.4692  0.2793
68685POPC   C2B16200  28.558  14.846   7.544  0.1727  0.0790  0.0976
68685POPC   C3B16201  28.654  14.927   7.108  0.1621  0.0203 -0.1936
68685POPC   C4B16202  28.758  15.283   6.875  0.2259  0.2489 -0.0621
68686POPC   NC316203  21.699   8.039  10.430  0.1273  0.1589  0.1393
68686POPC   PO416204  21.426   7.897  10.705 -0.3824 -0.0965 -0.0519
68686POPC   GL116205  21.570   7.630  10.535 -0.0681 -0.0841 -0.1473
68686POPC   GL216206  21.658   7.381  10.503 -0.0367  0.0892  0.1242
68686POPC   C1A16207  21.846   7.616  10.165  0.1763  0.0231  0.1677
68686POPC   D2A16208  22.129   7.328   9.849 -0.1606 -0.0197  0.0357
68686POPC   C3A16209  22.451   7.105   9.601  0.0806 -0.0993  0.0446
68686POPC   C4A16210  22.647   7.256   9.241 -0.2902 -0.0225  0.0828
68686POPC   C1B16211  22.036   7.220  10.356  0.0325  0.1106 -0.1146
68686POPC   C2B16212  22.469   7.321  10.179 -0.0758 -0.5508 -0.2405
68686POPC   C3B16213  22.693   7.554   9.852  0.1119  0.3645 -0.2146
68686POPC   C4B16214  22.933   7.609   9.493 -0.0824 -0.4217 -0.1753
68687POPC   NC316215  32.654   8.083   8.974 -0.0445  0.2338  0.1415
68687POPC   PO416216  32.653   7.956   9.381 -0.1989  0.0463 -0.1581
68687POPC   GL116217  32.436   7.626   9.133 -0.1317 -0.1688 -0.3808
68687POPC   GL216218  32.452   7.334   9.077 -0.2638 -0.1319  0.1528
68687POPC   C1A16219  31.967   7.519   9.047  0.0664 -0.2276 -0.0077
68687POPC   D2A16220  31.552   7.385   8.879 -0.1627  0.0867  0.2421
68687POPC   C3A16221  31.472   7.524   8.393  0.0168 -0.0032  0.1229
68687POPC   C4A16222  31.118   7.847   8.355 -0.0098 -0.0259  0.1369
68687POPC   C1B16223  32.547   7.541   8.684 -0.1200 -0.2401  0.1775
68687POPC   C2B16224  32.501   7.886   8.394 -0.2208 -0.1647  0.3505
68687POPC   C3B16225  32.421   8.327   8.420 -0.0232 -0.0648 -0.0066
68687POPC   C4B16226  31.971   8.378   8.292  0.1477 -0.1129 -0.1520
68688POPC   NC316227  19.853  12.497   8.343 -0.2331  0.3935  0.2227
68688POPC   PO416228  19.654  12.790   8.206 -0.1199 -0.1742  0.2052
68688POPC   GL116229  19.654  12.509   7.895  0.0999 -0.1392  0.2682
68688POPC   GL216230  19.463  12.346   7.949 -0.0505  0.2342 -0.1899
68688POPC   C1A16231  19.622  12.653   7.466 -0.0053 -0.1985  0.3443
68688POPC   D2A16232  19.550  12.831   7.048  0.0405  0.0202  0.0511
68688POPC   C3A16233  19.731  13.200   6.846  0.3630 -0.0237  0.1214
68688POPC   C4A16234  19.904  13.159   6.417  0.1286 -0.0475 -0.2675
68688POPC   C1B16235  19.731  12.181   7.595  0.3080 -0.0008  0.3558
68688POPC   C2B16236  19.660  11.932   7.223  0.1734  0.1250 -0.1214
68688POPC   C3B16237  19.536  11.850   6.754  0.0651  0.1350 -0.4036
68688POPC   C4B16238  19.424  11.940   6.319 -0.0238 -0.1161 -0.1090
68689POPC   NC316239  25.497   0.666  10.445 -0.2702  0.0596 -0.0295
68689POPC   PO416240  25.849   0.681  10.248 -0.0212 -0.0300 -0.0817
68689POPC   GL116241  25.722   1.035  10.248  0.5407 -0.0867 -0.3244
68689POPC   GL216242  25.615   1.266  10.460  0.0792  0.0091 -0.1121
68689POPC   C1A16243  25.733   1.373   9.917  0.0818 -0.0586  0.2226
68689POPC   D2A16244  25.563   1.732   9.694  0.0893 -0.0617  0.1542
68689POPC   C3A16245  25.661   2.033   9.353  0.0694  0.1276 -0.0105
68689POPC   C4A16246  25.729   2.391   9.087 -0.1324 -0.0129 -0.0539
68689POPC   C1B16247  25.466   1.649  10.404 -0.1485 -0.0309  0.1436
68689POPC   C2B16248  25.276   1.958  10.116 -0.1748  0.0065 -0.0590
68689POPC   C3B16249  25.338   2.298   9.758  0.1030  0.0943 -0.2547
68689POPC   C4B16250  25.288   2.404   9.361 -0.3821  0.0074 -0.1575
68690POPC   NC316251  30.895   0.679   8.364  0.2421  0.0054 -0.4434
68690POPC   PO416252  30.739   0.988   8.580  0.0743 -0.1142  0.1067
68690POPC   GL116253  30.532   0.849   8.155 -0.3420  0.2394 -0.2329
68690POPC   GL216254  30.386   1.057   8.112 -0.0272  0.0046  0.0760
68690POPC   C1A16255  30.851   0.862   7.821  0.1950  0.1909  0.1068
68690POPC   D2A16256  30.924   0.847   7.352  0.0243  0.1162  0.1102
68690POPC   C3A16257  31.028   1.268   7.204 -0.4506  0.0176 -0.1236
68690POPC   C4A16258  31.435   1.334   6.923  0.2427  0.3783 -0.2419
68690POPC   C1B16259  30.410   0.946   7.651 -0.2091 -0.0800  0.0067
68690POPC   C2B16260  30.429   1.026   7.207 -0.1924 -0.2542  0.1010
68690POPC   C3B16261  30.404   0.945   6.756 -0.1010 -0.4559  0.2852
68690POPC   C4B16262  30.598   0.762   6.380 -0.2738  0.1196 -0.0880
68691POPC   NC316263  20.697   1.398  15.074  0.0393  0.0398 -0.2082
68691POPC   PO416264  20.966   1.687  15.123  0.0938  0.0210 -0.0563
68691POPC   GL116265  21.184   1.721  15.481 -0.0054 -0.3129 -0.0335
68691POPC   GL216266  21.075   1.460  15.615  0.0171 -0.0239 -0.1079
68691POPC   C1A16267  21.492   2.008  15.535  0.0050  0.0599 -0.0082
68691POPC   D2A16268  21.915   1.875  15.736 -0.2329  0.2278  0.0199
68691POPC   C3A16269  22.091   2.009  16.103 -0.2141  0.3216  0.1576
68691POPC   C4A16270  22.615   2.051  16.202  0.0185  0.1046  0.2406
68691POPC   C1B16271  21.387   1.664  15.878 -0.1923  0.0792 -0.1822
68691POPC   C2B16272  21.603   2.080  16.013  0.1805 -0.0651  0.1837
68691POPC   C3B16273  21.834   2.424  16.233  0.2057 -0.1437  0.0526
68691POPC   C4B16274  21.995   2.826  16.416 -0.0335  0.0812 -0.1212
68692POPC   NC316275  16.901   6.483   9.326 -0.2210  0.2994 -0.1651
68692POPC   PO416276  16.931   6.083   9.177  0.1309 -0.1251 -0.0032
68692POPC   GL116277  16.716   5.864   8.924  0.4884  0.0660 -0.5401
68692POPC   GL216278  16.558   5.961   8.690 -0.1967  0.1351 -0.0462
68692POPC   C1A16279  16.253   5.815   9.083 -0.2959  0.0086  0.0624
68692POPC   D2A16280  15.868   5.760   8.845  0.0405 -0.0935 -0.1608
68692POPC   C3A16281  15.813   5.454   8.487 -0.2099  0.1870 -0.0707
68692POPC   C4A16282  15.654   5.414   8.038 -0.0102  0.1212 -0.1881
68692POPC   C1B16283  16.671   5.901   8.256 -0.1659  0.0085 -0.1072
68692POPC   C2B16284  16.560   5.827   7.819  0.4445  0.0249  0.0723
68692POPC   C3B16285  16.216   5.988   7.503  0.0060 -0.1485  0.1362
68692POPC   C4B16286  15.773   5.888   7.277 -0.1073  0.1298  0.0789
68693POPC   NC316287  29.905  13.235   9.301 -0.0101  0.3601  0.0260
68693POPC   PO416288  29.627  13.504   9.269 -0.1445 -0.2644 -0.1504
68693POPC   GL116289  29.562  13.305   8.867 -0.0191  0.2932  0.2370
68693POPC   GL216290  29.744  13.054   8.843 -0.1959  0.4310  0.0452
68693POPC   C1A16291  29.122  13.247   8.642  0.0905  0.0681 -0.0403
68693POPC   D2A16292  28.704  13.140   8.422 -0.0061  0.0136  0.0837
68693POPC   C3A16293  28.591  13.111   7.965 -0.1716  0.0780 -0.0333
68693POPC   C4A16294  28.517  12.997   7.522  0.0581  0.1432 -0.0829
68693POPC   C1B16295  29.561  13.156   8.376 -0.0996  0.1402  0.0705
68693POPC   C2B16296  29.602  13.077   7.960  0.0911 -0.1767 -0.0539
68693POPC   C3B16297  29.577  12.969   7.529 -0.0366 -0.1821 -0.0021
68693POPC   C4B16298  29.506  12.754   7.092  0.1783  0.0220  0.1358
68694POPC   NC316299  30.647  15.677   8.413  0.2850  0.0598  0.1096
68694POPC   PO416300  30.948  15.475   8.297  0.0697 -0.0076 -0.2275
68694POPC   GL116301  31.061  15.592   7.945  0.0122  0.2116  0.1867
68694POPC   GL216302  31.352  15.444   7.886  0.0314 -0.5259 -0.4153
68694POPC   C1A16303  30.797  15.743   7.592  0.4493 -0.0685 -0.0008
68694POPC   D2A16304  30.786  15.611   7.133 -0.2314  0.0710 -0.0629
68694POPC   C3A16305  31.048  15.866   6.865 -0.2818 -0.0275 -0.1189
68694POPC   C4A16306  30.914  16.237   6.546  0.1797  0.0045 -0.0013
68694POPC   C1B16307  31.140  15.357   7.507 -0.2402  0.0525 -0.0673
68694POPC   C2B16308  31.083  15.166   7.103 -0.1072 -0.0315  0.2677
68694POPC   C3B16309  30.736  14.916   6.865 -0.1756  0.0991  0.2603
68694POPC   C4B16310  30.336  14.642   6.768 -0.3468  0.3240 -0.3712
68695POPC   NC316311  26.382   0.572  10.845  0.0202  0.0125  0.0200
68695POPC   PO416312  26.456   0.907  11.070 -0.2710 -0.1178  0.0281
68695POPC   GL116313  26.265   1.337  10.998 -0.1765 -0.2477 -0.1611
68695POPC   GL216314  26.338   1.368  10.708 -0.1532  0.0135 -0.1475
68695POPC   C1A16315  26.109   1.723  11.193 -0.0559 -0.0520 -0.2909
68695POPC   D2A16316  26.096   2.190  11.189  0.0268  0.0885  0.0369
68695POPC   C3A16317  26.457   2.271  11.091  0.2785 -0.0248 -0.1604
68695POPC   C4A16318  26.846   2.171  10.919  0.0795 -0.3926 -0.2231
68695POPC   C1B16319  25.977   1.634  10.466  0.0844  0.1072  0.1427
68695POPC   C2B16320  25.911   1.909  10.144  0.0748 -0.1316  0.1869
68695POPC   C3B16321  25.852   2.168   9.805  0.0571  0.0446 -0.0675
68695POPC   C4B16322  25.705   2.571   9.613  0.2881  0.2078  0.5344
68696POPC   NC316323  27.059  15.553   9.110  0.2103  0.3149  0.0521
68696POPC   PO416324  26.688  15.463   8.979 -0.0039 -0.2762 -0.1330
68696POPC   GL116325  26.717  15.683   8.684  0.1884  0.1507 -0.3118
68696POPC   GL216326  26.946  15.888   8.689  0.2185 -0.3475 -0.0936
68696POPC   C1A16327  26.721  15.729   8.225  0.0677  0.0462  0.0210
68696POPC   D2A16328  26.833  16.024   7.915 -0.2372  0.0486  0.3884
68696POPC   C3A16329  26.569  16.280   7.588 -0.0294  0.0306  0.1646
68696POPC   C4A16330  26.350  16.251   7.185  0.0195 -0.0749 -0.0737
68696POPC   C1B16331  27.233  16.052   8.336 -0.1362  0.2340  0.3751
68696POPC   C2B16332  27.500  16.384   8.103 -0.0169 -0.2647  0.0091
68696POPC   C3B16333  27.456  16.602   7.682  0.1465  0.3538  0.0946
68696POPC   C4B16334  27.373  17.049   7.560 -0.0183  0.1316 -0.2030
68697POPC   NC316335  31.428   0.474   8.906  0.4231  0.0954 -0.0837
68697POPC   PO416336  31.258   0.832   8.713  0.0809  0.0543  0.0932
68697POPC   GL116337  31.307   0.970   8.389  0.0553  0.3602 -0.0694
68697POPC   GL216338  31.340   0.833   8.181  0.1046  0.0526  0.1167
68697POPC   C1A16339  31.312   1.379   8.115  0.0490  0.1874 -0.2231
68697POPC   D2A16340  31.281   1.590   7.694  0.2276 -0.2090 -0.1348
68697POPC   C3A16341  31.266   1.756   7.295  0.0812  0.0447 -0.0793
68697POPC   C4A16342  30.907   2.115   7.183  0.1720  0.2366  0.0578
68697POPC   C1B16343  31.369   1.074   7.714  0.0080  0.0595  0.4229
68697POPC   C2B16344  31.660   1.269   7.411 -0.1746  0.1120  0.2620
68697POPC   C3B16345  32.029   1.350   7.322 -0.0797 -0.0647 -0.2588
68697POPC   C4B16346  32.245   1.790   7.217  0.4201  0.1538 -0.0080
68698POPC   NC316347  19.127  13.167   7.728  0.1420 -0.0015  0.0978
68698POPC   PO416348  18.951  13.503   7.870  0.1089  0.2133 -0.0578
68698POPC   GL116349  18.935  13.857   7.707 -0.2504 -0.1334 -0.0338
68698POPC   GL216350  19.085  14.068   7.718  0.1216  0.2512  0.2398
68698POPC   C1A16351  18.922  13.904   7.254  0.0840  0.0914 -0.0136
68698POPC   D2A16352  19.165  14.129   6.942 -0.0124  0.4525 -0.0965
68698POPC   C3A16353  19.033  13.856   6.621 -0.0903 -0.2410 -0.0208
68698POPC   C4A16354  18.694  13.741   6.349 -0.1393  0.0970  0.1811
68698POPC   C1B16355  19.385  13.878   7.382 -0.1753  0.2793  0.0904
68698POPC   C2B16356  19.626  13.991   7.025  0.0616  0.0864 -0.2349
68698POPC   C3B16357  19.708  14.225   6.641  0.0976 -0.0079 -0.1804
68698POPC   C4B16358  19.436  14.514   6.349 -0.2925 -0.0277  0.0567
68699POPC   NC316359  30.532   0.887   9.050 -0.1698  0.4507 -0.0654
68699POPC   PO416360  30.430   1.236   9.019 -0.2078 -0.2313  0.0954
68699POPC   GL116361  30.346   1.507   8.748  0.1587 -0.1179  0.0314
68699POPC   GL216362  30.066   1.627   8.806 -0.0515  0.0127 -0.0483
68699POPC   C1A16363  30.446   1.546   8.274  0.2781 -0.4623  0.0471
68699POPC   D2A16364  30.900   1.677   8.106  0.0423 -0.0120  0.1076
68699POPC   C3A16365  30.952   1.978   7.739  0.0397 -0.2012  0.3106
68699POPC   C4A16366  30.585   2.225   7.524 -0.0028 -0.0961 -0.3715
68699POPC   C1B16367  29.944   1.980   8.562 -0.1618 -0.2126 -0.0449
68699POPC   C2B16368  29.923   2.229   8.135 -0.1520 -0.2363  0.5007
68699POPC   C3B16369  30.054   2.335   7.701 -0.0256  0.0936 -0.2899
68699POPC   C4B16370  29.856   2.556   7.389 -0.0356  0.0808  0.1419
68700POPC   NC316371  21.538   3.987  11.982  0.0457 -0.1094  0.3829
68700POPC   PO416372  21.695   3.920  12.332 -0.1101  0.1171 -0.1403
68700POPC   GL116373  21.977   3.871  12.623 -0.0027 -0.2678  0.3309
68700POPC   GL216374  22.095   4.016  12.844  0.2724 -0.2560  0.1398
68700POPC   C1A16375  22.373   3.703  12.513 -0.0384  0.0259  0.0577
68700POPC   D2A16376  22.739   3.697  12.247 -0.0090 -0.0973 -0.0368
68700POPC   C3A16377  22.944   4.062  12.387 -0.3384  0.0258  0.1347
68700POPC   C4A16378  22.794   4.451  12.324 -0.2905  0.2734 -0.0418
68700POPC   C1B16379  22.403   4.263  13.071  0.3380 -0.0832  0.0243
68700POPC   C2B16380  22.748   4.295  13.329 -0.3488  0.1527 -0.2192
68700POPC   C3B16381  23.255   4.379  13.332 -0.1837  0.0696 -0.1339
68700POPC   C4B16382  23.690   4.258  13.270  0.0715  0.0821 -0.3811
68701POPC   NC316383  19.519  10.018   8.813  0.0549  0.2680 -0.3283
68701POPC   PO416384  19.345  10.266   8.619 -0.0637 -0.1029 -0.0203
68701POPC   GL116385  19.085  10.355   8.379  0.1702  0.3997 -0.6731
68701POPC   GL216386  18.964  10.592   8.350  0.0846 -0.2722  0.0269
68701POPC   C1A16387  19.256  10.300   7.933 -0.1319 -0.0230 -0.0354
68701POPC   D2A16388  19.489  10.372   7.570 -0.1869  0.1161  0.0388
68701POPC   C3A16389  19.492  10.159   7.116 -0.1635 -0.1198 -0.0240
68701POPC   C4A16390  19.226  10.201   6.733 -0.1027  0.0118  0.0578
68701POPC   C1B16391  18.723  10.506   7.932  0.0983 -0.3661 -0.1402
68701POPC   C2B16392  18.817  10.215   7.593 -0.2079  0.1148 -0.0790
68701POPC   C3B16393  18.779   9.805   7.422  0.0407  0.0133 -0.1107
68701POPC   C4B16394  18.601   9.562   7.023 -0.2525  0.0140 -0.1882
68702POPC   NC316395  22.932  12.414   8.522  0.3318  0.1071 -0.1236
68702POPC   PO416396  22.804  12.749   8.413 -0.0906  0.4266 -0.2758
68702POPC   GL116397  22.865  12.825   8.092  0.0078  0.2434 -0.1803
68702POPC   GL216398  22.953  13.101   8.097  0.1402  0.1310  0.1081
68702POPC   C1A16399  22.722  12.956   7.677 -0.0546 -0.2285 -0.1706
68702POPC   D2A16400  22.534  13.165   7.299 -0.0098 -0.0601 -0.1571
68702POPC   C3A16401  22.603  13.322   6.842  0.1837  0.0895  0.2256
68702POPC   C4A16402  22.761  13.095   6.467 -0.2389  0.0237  0.0228
68702POPC   C1B16403  23.307  13.066   7.793 -0.1319 -0.3633 -0.1124
68702POPC   C2B16404  23.339  12.960   7.321 -0.1705 -0.0829  0.0499
68702POPC   C3B16405  23.282  12.679   6.972 -0.0533 -0.0555  0.0025
68702POPC   C4B16406  23.099  12.371   6.725  0.1672  0.0812 -0.2363
68703POPC   NC316407  30.879  13.573   8.366 -0.0544  0.1327 -0.0764
68703POPC   PO416408  30.538  13.455   8.509  0.1434  0.3848 -0.3407
68703POPC   GL116409  30.217  13.334   8.339  0.1441  0.0435  0.0225
68703POPC   GL216410  30.160  13.032   8.457  0.0781 -0.1351  0.0195
68703POPC   C1A16411  29.859  13.509   8.097 -0.0992 -0.2230 -0.0475
68703POPC   D2A16412  29.364  13.534   8.121 -0.1438 -0.0594 -0.2049
68703POPC   C3A16413  29.114  13.086   8.109 -0.4390 -0.0823 -0.0131
68703POPC   C4A16414  28.963  12.797   7.759  0.0454 -0.0470 -0.1124
68703POPC   C1B16415  30.157  13.050   8.017 -0.0462 -0.0154 -0.2163
68703POPC   C2B16416  30.078  12.895   7.611 -0.1841 -0.2382 -0.0710
68703POPC   C3B16417  29.984  12.747   7.227  0.2456 -0.1640 -0.0981
68703POPC   C4B16418  30.074  12.563   6.821  0.2817  0.1966  0.0217
68704POPC   NC316419  22.146   1.019  13.881  0.3840 -0.0157  0.0219
68704POPC   PO416420  22.501   1.073  14.030 -0.0605  0.0951 -0.0476
68704POPC   GL116421  22.804   1.215  14.187  0.0115  0.0731 -0.1688
68704POPC   GL216422  22.841   1.278  14.457  0.1101  0.3569 -0.2697
68704POPC   C1A16423  23.118   1.544  14.156 -0.0130  0.2251 -0.0724
68704POPC   D2A16424  23.280   1.723  13.766 -0.1480 -0.2281  0.2122
68704POPC   C3A16425  23.184   2.223  13.826 -0.0624  0.0964  0.2025
68704POPC   C4A16426  23.178   2.661  14.008 -0.0953 -0.0644 -0.0499
68704POPC   C1B16427  22.783   1.681  14.651  0.0196 -0.1628 -0.1309
68704POPC   C2B16428  22.768   2.032  14.897 -0.1238  0.3028  0.1407
68704POPC   C3B16429  22.863   2.334  15.274 -0.1486  0.1866  0.1289
68704POPC   C4B16430  23.293   2.535  15.403  0.0519  0.0378  0.4276
68705POPC   NC316431  20.291  14.035   8.273  0.2017  0.0904  0.2268
68705POPC   PO416432  19.894  13.957   8.264 -0.1452  0.1621 -0.0387
68705POPC   GL116433  20.052  13.694   7.968  0.0777  0.2026  0.0089
68705POPC   GL216434  20.340  13.735   7.840 -0.3032 -0.2642  0.0108
68705POPC   C1A16435  19.919  13.558   7.571  0.2061  0.1146  0.2533
68705POPC   D2A16436  20.042  13.562   7.085 -0.2129 -0.2801  0.1634
68705POPC   C3A16437  19.953  13.773   6.689 -0.1842  0.0603 -0.1553
68705POPC   C4A16438  19.744  13.706   6.278  0.1957 -0.1579  0.0669
68705POPC   C1B16439  20.343  13.783   7.414  0.1411 -0.0136 -0.3546
68705POPC   C2B16440  20.545  14.098   7.123 -0.1718 -0.0986  0.0910
68705POPC   C3B16441  20.546  14.360   6.746  0.3015 -0.2890 -0.0651
68705POPC   C4B16442  20.542  14.639   6.344  0.1328 -0.6121  0.0459
68706POPC   NC316443  27.000  13.818   8.946  0.2803 -0.2093  0.1345
68706POPC   PO416444  27.272  13.757   9.194  0.1507  0.1648  0.1836
68706POPC   GL116445  27.490  13.713   8.816 -0.1976 -0.1034 -0.0671
68706POPC   GL216446  27.534  13.413   8.838  0.1491  0.0362 -0.0935
68706POPC   C1A16447  27.616  13.747   8.376 -0.1668 -0.0394 -0.0536
68706POPC   D2A16448  27.809  13.668   7.960 -0.1535  0.1920  0.0047
68706POPC   C3A16449  28.009  13.845   7.604 -0.0892  0.0547  0.0433
68706POPC   C4A16450  28.002  14.097   7.269 -0.1713 -0.0701  0.0861
68706POPC   C1B16451  27.259  13.044   8.656 -0.4087  0.0239 -0.1447
68706POPC   C2B16452  27.067  12.726   8.389 -0.3480 -0.0888 -0.1883
68706POPC   C3B16453  26.909  12.350   8.543  0.1948  0.2934  0.2868
68706POPC   C4B16454  26.520  12.072   8.599 -0.2475  0.1032 -0.2159
68707POPC   NC316455  30.912   6.850  10.868 -0.2755 -0.0099 -0.0407
68707POPC   PO416456  31.179   6.636  10.670  0.1435  0.1089 -0.1908
68707POPC   GL116457  30.760   6.481  10.597 -0.0345  0.0224  0.0939
68707POPC   GL216458  30.785   6.329  10.333 -0.0673 -0.0017  0.0166
68707POPC   C1A16459  30.310   6.376  10.669  0.2010  0.2301  0.3697
68707POPC   D2A16460  29.918   6.342  10.450  0.0297  0.2169 -0.1404
68707POPC   C3A16461  29.951   6.468  10.026 -0.1662  0.0654  0.0225
68707POPC   C4A16462  29.872   6.489   9.597  0.0252  0.2930 -0.1317
68707POPC   C1B16463  30.579   6.239   9.957  0.1461  0.1182  0.1624
68707POPC   C2B16464  30.323   6.243   9.553 -0.1979  0.0103 -0.2139
68707POPC   C3B16465  30.336   6.240   9.104  0.0441 -0.1132 -0.0223
68707POPC   C4B16466  30.377   6.358   8.671  0.1265  0.0495  0.1121
68708POPC   NC316467  19.523   8.444   9.371  0.2158  0.1583  0.1927
68708POPC   PO416468  19.600   8.035   9.215  0.0361 -0.2492  0.0145
68708POPC   GL116469  19.553   8.219   8.854 -0.2578  0.1381  0.0055
68708POPC   GL216470  19.813   8.376   8.826 -0.0484 -0.1488 -0.1279
68708POPC   C1A16471  19.635   8.148   8.363 -0.1615  0.2673  0.2261
68708POPC   D2A16472  19.753   8.283   7.917  0.1796  0.0027 -0.2735
68708POPC   C3A16473  19.455   8.489   7.623  0.0109 -0.3418  0.1642
68708POPC   C4A16474  19.289   8.853   7.459  0.1111  0.3182 -0.1182
68708POPC   C1B16475  20.000   8.515   8.408  0.0054 -0.1686  0.1011
68708POPC   C2B16476  20.103   8.654   8.011 -0.1404  0.0843 -0.1889
68708POPC   C3B16477  20.475   8.521   7.741 -0.2631  0.0140  0.0367
68708POPC   C4B16478  20.594   8.182   7.438  0.2306 -0.1585 -0.0859
68709POPC   NC316479  21.780  14.213   8.096  0.2306  0.3243 -0.3015
68709POPC   PO416480  21.731  13.832   8.138 -0.0078  0.3489  0.0059
68709POPC   GL116481  21.624  13.995   7.696 -0.1322 -0.2314 -0.0456
68709POPC   GL216482  21.359  14.100   7.721  0.2692 -0.1870  0.2090
68709POPC   C1A16483  21.453  13.974   7.216 -0.3715 -0.1028 -0.0256
68709POPC   D2A16484  21.328  14.330   6.970 -0.0988  0.0765  0.3294
68709POPC   C3A16485  21.629  14.549   6.685  0.0907 -0.4054  0.2787
68709POPC   C4A16486  21.922  14.539   6.389 -0.0558 -0.3113  0.0808
68709POPC   C1B16487  21.349  14.434   7.406  0.0646 -0.0592 -0.5080
68709POPC   C2B16488  21.320  14.807   7.058 -0.1613  0.3013  0.0189
68709POPC   C3B16489  21.334  14.969   6.595  0.1688 -0.1491  0.3681
68709POPC   C4B16490  21.471  14.881   6.133  0.4101 -0.0492  0.3768
68710POPC   NC316491  21.827   7.671  11.917 -0.0471 -0.1659 -0.1291
68710POPC   PO416492  21.598   7.831  12.203  0.2477  0.0560 -0.1240
68710POPC   GL116493  21.778   7.579  12.360 -0.5530 -0.0082 -0.1019
68710POPC   GL216494  21.829   7.544  12.646 -0.2669 -0.0556 -0.3164
68710POPC   C1A16495  22.237   7.648  12.329 -0.0849  0.2110  0.1937
68710POPC   D2A16496  22.715   7.591  12.220  0.1248  0.1195  0.0554
68710POPC   C3A16497  22.977   7.573  11.910 -0.0925 -0.0597 -0.0514
68710POPC   C4A16498  23.305   7.302  11.652 -0.0310  0.2600  0.2280
68710POPC   C1B16499  22.191   7.218  12.701 -0.0694  0.1307  0.4029
68710POPC   C2B16500  22.436   7.070  12.394 -0.0573  0.2256  0.1081
68710POPC   C3B16501  22.755   6.932  12.105 -0.2220  0.1131  0.1070
68710POPC   C4B16502  23.126   6.767  11.854  0.0220 -0.3358 -0.1743
68711POPC   NC316503  30.150   4.263  12.199 -0.0347 -0.0407 -0.1672
68711POPC   PO416504  30.212   4.132  12.596 -0.2996 -0.1627 -0.0959
68711POPC   GL116505  29.943   3.871  12.450  0.1118  0.0363  0.0089
68711POPC   GL216506  29.688   3.797  12.568 -0.1810 -0.2238 -0.0367
68711POPC   C1A16507  29.642   4.172  12.165 -0.1565  0.1508  0.2061
68711POPC   D2A16508  29.254   4.414  12.025 -0.3727 -0.1153  0.2947
68711POPC   C3A16509  29.004   4.799  11.904 -0.0070  0.4727  0.0561
68711POPC   C4A16510  28.858   5.170  12.001  0.3224 -0.1350 -0.3269
68711POPC   C1B16511  29.265   3.685  12.705  0.1249  0.2699  0.3206
68711POPC   C2B16512  28.873   3.864  12.909 -0.0937 -0.0534  0.0129
68711POPC   C3B16513  28.397   3.856  12.844 -0.1996 -0.0847 -0.4166
68711POPC   C4B16514  27.955   3.944  12.998  0.0905 -0.2945 -0.0142
68712POPC   NC316515  30.491   5.126  12.456  0.3673  0.0568 -0.1182
68712POPC   PO416516  30.408   4.791  12.537 -0.2580  0.0866 -0.1593
68712POPC   GL116517  30.089   4.690  12.600 -0.1734 -0.1586 -0.0630
68712POPC   GL216518  29.896   4.670  12.397 -0.0347  0.1743  0.0134
68712POPC   C1A16519  29.693   4.766  12.851 -0.0088 -0.1251  0.1358
68712POPC   D2A16520  29.326   5.069  12.732  0.2097 -0.2744  0.0610
68712POPC   C3A16521  28.969   5.287  12.472  0.0090  0.0980 -0.1851
68712POPC   C4A16522  28.701   5.610  12.251  0.0566 -0.0001 -0.0238
68712POPC   C1B16523  29.434   4.683  12.465 -0.0532  0.0439  0.0650
68712POPC   C2B16524  29.022   4.694  12.362  0.2716 -0.0295 -0.0974
68712POPC   C3B16525  28.545   4.576  12.379  0.0201  0.1430 -0.0952
68712POPC   C4B16526  28.251   4.271  12.613  0.0434 -0.0186 -0.0851
68713POPC   NC316527  19.594   3.084  15.511  0.2638  0.3855  0.0544
68713POPC   PO416528  19.784   2.737  15.486  0.1578  0.0863  0.1321
68713POPC   GL116529  19.977   2.909  15.818  0.1978 -0.1663 -0.2885
68713POPC   GL216530  19.738   2.856  16.044  0.1460  0.1467  0.2071
68713POPC   C1A16531  20.271   3.140  16.105 -0.0591  0.0902 -0.0493
68713POPC   D2A16532  20.468   3.559  15.986  0.0341  0.0135 -0.0654
68713POPC   C3A16533  20.938   3.531  16.049 -0.0006 -0.1478 -0.1401
68713POPC   C4A16534  21.176   3.935  16.145 -0.0937 -0.1222 -0.1735
68713POPC   C1B16535  19.689   2.869  16.494  0.2366 -0.1722  0.2759
68713POPC   C2B16536  19.822   2.777  16.934 -0.0246 -0.1847  0.3013
68713POPC   C3B16537  19.837   3.033  17.344  0.1391  0.1313  0.2220
68713POPC   C4B16538  19.615   3.305  17.649  0.0110 -0.1794  0.1228
68714POPC   NC316539  29.754   1.195   9.802  0.3659 -0.1529  0.2407
68714POPC   PO416540  29.881   1.474   9.580 -0.2179  0.0193 -0.0250
68714POPC   GL116541  29.609   1.842   9.360 -0.1626 -0.0140 -0.1437
68714POPC   GL216542  29.591   1.643   9.205  0.2555  0.3337  0.3138
68714POPC   C1A16543  29.541   2.111   9.043  0.0479 -0.0805 -0.1314
68714POPC   D2A16544  29.285   2.516   9.076 -0.1364  0.0933  0.2028
68714POPC   C3A16545  29.344   2.704   8.628 -0.0179 -0.1809 -0.0243
68714POPC   C4A16546  29.184   2.864   8.235 -0.1047 -0.3763 -0.0210
68714POPC   C1B16547  29.558   1.773   8.724  0.1937  0.2692  0.0821
68714POPC   C2B16548  29.285   1.779   8.345 -0.2007  0.3099 -0.2476
68714POPC   C3B16549  28.994   2.022   8.115  0.2025 -0.3282  0.1559
68714POPC   C4B16550  29.037   2.438   7.916 -0.1045  0.1568 -0.1793
68715POPC   NC316551  20.870   6.940  10.153  0.0075  0.1587  0.1070
68715POPC   PO416552  20.926   6.796  10.553 -0.1173  0.1232  0.0312
68715POPC   GL116553  21.190   6.521  10.830  0.2208 -0.3615  0.3254
68715POPC   GL216554  21.456   6.553  10.620  0.1898 -0.2344 -0.0647
68715POPC   C1A16555  21.429   6.468  11.173 -0.0460 -0.0845  0.1776
68715POPC   D2A16556  21.816   6.475  11.406  0.0330  0.4574  0.1451
68715POPC   C3A16557  22.191   6.706  11.174 -0.1411  0.0085 -0.2445
68715POPC   C4A16558  22.451   6.520  10.868 -0.1916 -0.5027  0.0808
68715POPC   C1B16559  21.731   6.432  10.241  0.1446  0.1248  0.0344
68715POPC   C2B16560  21.988   6.247   9.981 -0.0873 -0.2300  0.2215
68715POPC   C3B16561  22.462   6.339   9.976  0.2243  0.0930  0.2380
68715POPC   C4B16562  22.851   6.297  10.070 -0.0625 -0.2732  0.0766
68716POPC   NC316563  29.692   2.588  12.723 -0.0223  0.0189  0.1122
68716POPC   PO416564  29.927   2.889  12.634 -0.0780  0.2023 -0.1103
68716POPC   GL116565  29.500   2.957  12.441  0.3682 -0.1552  0.0301
68716POPC   GL216566  29.227   2.808  12.399  0.1511  0.1154  0.0824
68716POPC   C1A16567  29.183   3.289  12.395 -0.2924  0.0552 -0.0535
68716POPC   D2A16568  28.804   3.552  12.506 -0.3588  0.0844 -0.0310
68716POPC   C3A16569  28.647   3.847  12.112 -0.0992 -0.0993  0.0569
68716POPC   C4A16570  28.775   4.254  12.015  0.0244  0.1520 -0.3136
68716POPC   C1B16571  28.850   2.989  12.593  0.1319 -0.1558 -0.1342
68716POPC   C2B16572  28.493   3.246  12.786  0.0980  0.4038  0.0967
68716POPC   C3B16573  28.149   3.451  12.919 -0.3026 -0.0677 -0.0077
68716POPC   C4B16574  27.927   3.509  13.270 -0.0807  0.2318  0.1955
68717POPC   NC316575  32.447   5.877   9.205  0.1772 -0.2261  0.1965
68717POPC   PO416576  32.664   6.230   9.188  0.1277  0.0677  0.0308
68717POPC   GL116577  32.633   6.118   8.771 -0.1552 -0.0306 -0.0387
68717POPC   GL216578  32.509   5.925   8.627  0.1833  0.0554 -0.1168
68717POPC   C1A16579  32.480   6.462   8.499 -0.0818  0.2530  0.3513
68717POPC   D2A16580  32.264   6.534   8.101  0.0806  0.1350 -0.0341
68717POPC   C3A16581  32.035   6.240   7.814  0.1875  0.1909  0.2565
68717POPC   C4A16582  31.775   5.981   7.613  0.2416 -0.2626 -0.0959
68717POPC   C1B16583  32.360   5.865   8.132 -0.0167  0.1108 -0.2523
68717POPC   C2B16584  32.261   5.745   7.687  0.2098 -0.3107  0.0341
68717POPC   C3B16585  32.139   5.893   7.241  0.2961  0.0820  0.1184
68717POPC   C4B16586  31.750   6.020   6.947 -0.0139  0.0487 -0.1913
68718POPC   NC316587  20.579  14.472   8.251  0.0573 -0.2593  0.0216
68718POPC   PO416588  20.848  14.706   8.439  0.3298 -0.5535 -0.0509
68718POPC   GL116589  21.149  14.593   8.178 -0.4231 -0.2024 -0.2398
68718POPC   GL216590  21.098  14.359   8.079 -0.1605  0.1528 -0.0296
68718POPC   C1A16591  21.440  14.645   7.874 -0.1889  0.1767  0.0753
68718POPC   D2A16592  21.559  14.918   7.577 -0.0335 -0.1810 -0.0267
68718POPC   C3A16593  21.976  14.896   7.361 -0.0955  0.1786 -0.0384
68718POPC   C4A16594  22.251  14.855   7.016 -0.0443  0.0110 -0.1945
68718POPC   C1B16595  20.989  14.549   7.698  0.3667 -0.1812  0.0379
68718POPC   C2B16596  20.957  14.927   7.407 -0.3057  0.4489 -0.1572
68718POPC   C3B16597  20.915  15.105   6.950  0.0066  0.1571 -0.0692
68718POPC   C4B16598  21.135  15.445   6.731 -0.5067  0.2056 -0.2748
68719POPC   NC316599  16.786   4.156   9.205 -0.2787 -0.0950  0.1479
68719POPC   PO416600  17.164   4.109   9.051 -0.3038 -0.0843 -0.2313
68719POPC   GL116601  17.238   4.109   8.672  0.1100  0.4496 -0.0468
68719POPC   GL216602  17.067   4.337   8.552  0.0916 -0.0372 -0.0702
68719POPC   C1A16603  17.528   3.819   8.497  0.1032  0.2549 -0.0395
68719POPC   D2A16604  17.931   3.833   8.236 -0.3860  0.1308 -0.0116
68719POPC   C3A16605  17.944   3.953   7.804  0.3168  0.1701  0.0761
68719POPC   C4A16606  17.950   4.213   7.442  0.2539  0.0814 -0.2005
68719POPC   C1B16607  17.395   4.182   8.239 -0.1790  0.0331 -0.1136
68719POPC   C2B16608  17.373   4.242   7.810  0.2419 -0.0926 -0.0948
68719POPC   C3B16609  17.435   4.581   7.493 -0.0549 -0.1625 -0.1287
68719POPC   C4B16610  17.319   4.909   7.252 -0.2907  0.1844  0.0132
68720POPC   NC316611  28.906   1.800   9.995  0.0537  0.0578  0.0832
68720POPC   PO416612  29.132   2.156   9.896 -0.1145 -0.3398 -0.2663
68720POPC   GL116613  28.880   2.453   9.786 -0.1332 -0.4407 -0.1913
68720POPC   GL216614  28.981   2.643   9.537  0.0919 -0.1589  0.0875
68720POPC   C1A16615  28.530   2.787   9.798  0.2326 -0.0887 -0.1867
68720POPC   D2A16616  28.104   3.082   9.817  0.0456 -0.2799 -0.0024
68720POPC   C3A16617  27.772   2.786   9.889  0.1411 -0.0146 -0.1045
68720POPC   C4A16618  27.347   2.709   9.833  0.3809  0.0407 -0.0574
68720POPC   C1B16619  28.946   2.990   9.240  0.4966  0.2172  0.1184
68720POPC   C2B16620  28.814   3.381   9.038 -0.0421 -0.2279  0.3272
68720POPC   C3B16621  28.808   3.837   8.965  0.0455  0.1199  0.0596
68720POPC   C4B16622  28.455   4.110   8.908  0.1620 -0.0858  0.2426
68721POPC   NC316623  19.563   5.955   9.459  0.1700 -0.1491  0.0905
68721POPC   PO416624  19.817   5.772   9.727  0.1546 -0.0702  0.0304
68721POPC   GL116625  20.082   5.969   9.419  0.3228 -0.1781 -0.4337
68721POPC   GL216626  20.124   5.781   9.246 -0.0507  0.4081 -0.1108
68721POPC   C1A16627  20.390   6.220   9.151 -0.1813  0.1187 -0.4131
68721POPC   D2A16628  20.572   6.522   8.888  0.0869 -0.3309 -0.1191
68721POPC   C3A16629  20.750   6.477   8.433  0.1111 -0.1860  0.0785
68721POPC   C4A16630  20.959   6.280   8.055  0.1195  0.4367 -0.0914
68721POPC   C1B16631  20.486   5.838   8.881  0.0048 -0.4397  0.3384
68721POPC   C2B16632  20.828   5.713   8.588  0.2990 -0.0995 -0.0481
68721POPC   C3B16633  21.024   5.510   8.241 -0.0763  0.0698  0.2212
68721POPC   C4B16634  21.329   5.311   7.915  0.0724  0.2870  0.1950
68722POPC   NC316635  25.491  11.790  16.100  0.1180 -0.2510 -0.0453
68722POPC   PO416636  25.174  12.034  16.099 -0.2404 -0.2342 -0.1561
68722POPC   GL116637  25.251  11.827  16.579 -0.1913  0.1215 -0.0537
68722POPC   GL216638  25.382  11.575  16.622 -0.0604  0.2274 -0.0887
68722POPC   C1A16639  25.125  11.720  16.986  0.1643 -0.1986  0.1043
68722POPC   D2A16640  25.069  11.496  17.386 -0.0795 -0.3525 -0.1418
68722POPC   C3A16641  25.186  11.710  17.778  0.3488  0.0425  0.1809
68722POPC   C4A16642  25.124  11.984  18.131  0.3891  0.1514  0.0454
68722POPC   C1B16643  25.556  11.419  16.983  0.0869  0.2765 -0.0107
68722POPC   C2B16644  25.469  11.121  17.348  0.1084 -0.2395  0.1676
68722POPC   C3B16645  25.286  11.200  17.738 -0.0926 -0.0264 -0.3575
68722POPC   C4B16646  25.081  11.315  18.107 -0.5435  0.0773  0.0581
68723POPC   NC316647  16.145   0.275   8.268 -0.0497  0.2411 -0.0837
68723POPC   PO416648  16.197   0.661   8.381 -0.1664  0.1334 -0.3080
68723POPC   GL116649  16.051   0.837   8.033  0.2449  0.1635  0.0376
68723POPC   GL216650  16.236   1.082   8.112 -0.1139  0.0425  0.3443
68723POPC   C1A16651  16.194   0.861   7.597 -0.0297  0.1154  0.3264
68723POPC   D2A16652  16.457   0.922   7.235  0.0425  0.1153  0.1990
68723POPC   C3A16653  16.329   0.758   6.838  0.1177  0.1665  0.1805
68723POPC   C4A16654  16.304   0.512   6.467 -0.0646  0.2379 -0.1537
68723POPC   C1B16655  16.453   1.238   7.764 -0.1453 -0.3218  0.1068
68723POPC   C2B16656  16.573   1.450   7.351 -0.2391  0.3783  0.0411
68723POPC   C3B16657  16.549   1.694   6.936 -0.0863 -0.0442  0.3889
68723POPC   C4B16658  16.483   1.860   6.463  0.2719 -0.0449  0.0717
68724POPC   NC316659  16.350   4.628   9.237  0.0823 -0.2135 -0.2825
68724POPC   PO416660  16.368   4.290   8.991 -0.0700  0.1207 -0.2506
68724POPC   GL116661  16.356   4.138   8.548 -0.2909  0.0639  0.3663
68724POPC   GL216662  16.450   3.906   8.404 -0.2524  0.2230 -0.2194
68724POPC   C1A16663  16.508   4.381   8.216 -0.3558  0.0695 -0.0308
68724POPC   D2A16664  16.497   4.459   7.779  0.1771 -0.1273 -0.0567
68724POPC   C3A16665  16.554   4.773   7.450 -0.2092  0.0325 -0.1502
68724POPC   C4A16666  16.786   4.766   7.096 -0.3334 -0.2632 -0.2724
68724POPC   C1B16667  16.507   3.971   7.951 -0.2331 -0.2557  0.1107
68724POPC   C2B16668  16.297   4.019   7.594  0.0472 -0.0321 -0.1301
68724POPC   C3B16669  15.975   3.719   7.437 -0.0095  0.0937  0.1580
68724POPC   C4B16670  15.780   3.351   7.585  0.1249  0.0817  0.2885
68725POPC   NC316671  23.564   0.492  13.527  0.0400  0.1319 -0.2000
68725POPC   PO416672  23.884   0.726  13.485  0.1911 -0.1167 -0.3064
68725POPC   GL116673  24.118   0.867  13.664 -0.1047 -0.2147  0.1435
68725POPC   GL216674  24.122   1.191  13.608 -0.0403  0.0267 -0.0897
68725POPC   C1A16675  24.066   1.044  14.068 -0.2082  0.0751 -0.0750
68725POPC   D2A16676  24.003   1.341  14.357  0.1266 -0.0562 -0.2336
68725POPC   C3A16677  24.217   1.693  14.546 -0.0440  0.3566  0.1261
68725POPC   C4A16678  24.653   1.809  14.657  0.2135 -0.0040  0.0227
68725POPC   C1B16679  24.165   1.514  13.902 -0.4142 -0.1555 -0.0807
68725POPC   C2B16680  24.199   1.944  14.115  0.3673  0.1053  0.1983
68725POPC   C3B16681  24.457   2.206  14.380 -0.1499  0.0232  0.2364
68725POPC   C4B16682  24.761   2.500  14.570  0.1246  0.0476 -0.2806
68726POPC   NC316683  32.268   9.417   9.554 -0.3129  0.0659 -0.2032
68726POPC   PO416684  31.913   9.385   9.404 -0.0584 -0.0649  0.3649
68726POPC   GL116685  31.678   9.312   9.058  0.2510 -0.1105  0.4281
68726POPC   GL216686  31.443   9.477   9.037 -0.3275 -0.0694 -0.1950
68726POPC   C1A16687  31.762   9.483   8.631 -0.0520 -0.2243 -0.3639
68726POPC   D2A16688  31.989   9.226   8.259 -0.0268  0.1754 -0.4693
68726POPC   C3A16689  31.974   8.893   7.966 -0.1687  0.0396 -0.1600
68726POPC   C4A16690  32.047   8.974   7.492 -0.0025  0.0340  0.1619
68726POPC   C1B16691  31.008   9.321   8.968 -0.1540 -0.0609 -0.1121
68726POPC   C2B16692  30.846   9.101   8.586 -0.3734  0.0710 -0.0259
68726POPC   C3B16693  30.857   9.114   8.109  0.0307  0.1051 -0.1786
68726POPC   C4B16694  30.930   9.208   7.659  0.1780 -0.2323 -0.1834
68727POPC   NC316695  30.829   2.936  10.004  0.0935  0.0984  0.0303
68727POPC   PO416696  30.508   3.151  10.073 -0.1814 -0.3805 -0.1752
68727POPC   GL116697  30.180   3.340  10.150  0.2535  0.1464  0.1459
68727POPC   GL216698  29.948   3.210  10.112  0.0531  0.1287  0.0095
68727POPC   C1A16699  30.194   3.743   9.977 -0.0792 -0.0266 -0.2241
68727POPC   D2A16700  30.424   4.036   9.721  0.3381  0.0812 -0.0047
68727POPC   C3A16701  30.452   4.003   9.215  0.0723  0.2514  0.0843
68727POPC   C4A16702  30.170   3.862   8.830 -0.2666  0.2311 -0.0381
68727POPC   C1B16703  29.786   3.480   9.776  0.1378 -0.0278  0.2669
68727POPC   C2B16704  29.496   3.768   9.563 -0.0082  0.0718  0.0141
68727POPC   C3B16705  29.577   4.196   9.395  0.1950  0.1228  0.1686
68727POPC   C4B16706  29.502   4.553   9.121  0.0925 -0.0684 -0.0388
68728POPC   NC316707  18.037  12.134  16.864  0.1462 -0.2745 -0.0639
68728POPC   PO416708  18.130  12.473  16.686 -0.1056 -0.0311 -0.0223
68728POPC   GL116709  17.955  12.621  16.999 -0.0191 -0.1796  0.1833
68728POPC   GL216710  18.217  12.697  17.150  0.0789  0.1952 -0.1624
68728POPC   C1A16711  17.819  12.370  17.381  0.2932 -0.0135 -0.2762
68728POPC   D2A16712  17.585  12.550  17.755  0.0611 -0.3490  0.0479
68728POPC   C3A16713  17.595  12.484  18.255  0.2851 -0.0274  0.2442
68728POPC   C4A16714  17.473  12.455  18.685  0.1585 -0.2235  0.0648
68728POPC   C1B16715  18.434  12.593  17.612 -0.0740 -0.0264 -0.5109
68728POPC   C2B16716  18.606  12.416  18.002 -0.1436 -0.0044 -0.0225
68728POPC   C3B16717  18.863  12.216  18.324 -0.1251  0.3348 -0.0754
68728POPC   C4B16718  19.128  11.922  18.636 -0.0629 -0.0190  0.1203
68729POPC   NC316719  24.825   0.743  12.533  0.1855 -0.3404  0.1406
68729POPC   PO416720  24.992   0.783  12.185  0.1108 -0.1212 -0.0075
68729POPC   GL116721  24.941   1.185  12.190 -0.1670 -0.0170 -0.1371
68729POPC   GL216722  24.914   1.241  12.400  0.2233  0.1124 -0.2418
68729POPC   C1A16723  25.226   1.565  12.219  0.0146 -0.2185 -0.2793
68729POPC   D2A16724  25.064   2.038  12.217  0.1388  0.1009 -0.4116
68729POPC   C3A16725  25.190   2.351  12.556  0.0225 -0.0169 -0.3348
68729POPC   C4A16726  25.308   2.303  13.011  0.2263 -0.0529 -0.0550
68729POPC   C1B16727  25.204   1.466  12.747  0.2298 -0.2501  0.1878
68729POPC   C2B16728  25.034   1.918  12.799 -0.0608 -0.0191  0.1322
68729POPC   C3B16729  24.785   2.285  13.025  0.0017 -0.0948  0.2281
68729POPC   C4B16730  24.584   2.358  13.417  0.0720  0.2214 -0.0279
68730POPC   NC316731  18.219  14.301   8.412  0.3451  0.2427 -0.0222
68730POPC   PO416732  18.121  14.372   8.030 -0.4962  0.1308  0.0711
68730POPC   GL116733  18.208  14.234   7.635 -0.0566  0.0361  0.4282
68730POPC   GL216734  17.922  14.076   7.667 -0.3432 -0.0527 -0.3070
68730POPC   C1A16735  18.469  14.033   7.293  0.0203 -0.1853  0.0727
68730POPC   D2A16736  18.528  13.825   6.849  0.2786  0.0104 -0.2685
68730POPC   C3A16737  18.738  13.431   6.730  0.3952 -0.1768  0.0520
68730POPC   C4A16738  18.909  13.044   6.487  0.2047  0.0729  0.0421
68730POPC   C1B16739  17.977  14.146   7.210 -0.1426  0.0865  0.1073
68730POPC   C2B16740  18.140  14.214   6.761 -0.0656 -0.0220  0.1382
68730POPC   C3B16741  18.040  14.387   6.393  0.0663 -0.0419 -0.1375
68730POPC   C4B16742  18.259  14.315   6.013  0.3292  0.2704  0.0061
68731POPC   NC316743  21.662   2.166  13.174 -0.0490  0.0050 -0.0056
68731POPC   PO416744  22.050   2.257  13.117  0.0185 -0.0008 -0.0795
68731POPC   GL116745  22.363   2.445  13.370  0.0077  0.1445  0.3665
68731POPC   GL216746  22.372   2.754  13.423 -0.0443  0.2786  0.3737
68731POPC   C1A16747  22.790   2.468  13.554  0.0780 -0.1322  0.1815
68731POPC   D2A16748  22.717   2.945  13.766  0.0632 -0.1061  0.0583
68731POPC   C3A16749  23.054   3.096  13.997  0.2091 -0.1550 -0.2745
68731POPC   C4A16750  23.556   3.153  14.089 -0.1278 -0.2518  0.2155
68731POPC   C1B16751  22.617   3.096  13.174  0.0118 -0.0037 -0.0309
68731POPC   C2B16752  22.987   3.372  12.957  0.1459  0.1252  0.0168
68731POPC   C3B16753  23.252   3.694  12.728 -0.0296  0.1159 -0.0619
68731POPC   C4B16754  23.462   3.940  12.344 -0.1949  0.1435  0.4781
68732POPC   NC316755  16.551   1.394   8.492  0.0527 -0.0528 -0.0239
68732POPC   PO416756  16.588   1.017   8.556 -0.0985  0.1546 -0.0803
68732POPC   GL116757  16.685   0.966   8.113  0.2817  0.5752  0.0493
68732POPC   GL216758  16.780   1.161   8.102  0.3766 -0.0483  0.0816
68732POPC   C1A16759  16.751   0.912   7.646 -0.5714  0.2955 -0.0673
68732POPC   D2A16760  16.962   1.071   7.248 -0.0621  0.0966 -0.0007
68732POPC   C3A16761  16.743   1.211   6.915 -0.1681  0.3304 -0.1327
68732POPC   C4A16762  16.806   1.391   6.473 -0.1740  0.3844  0.0814
68732POPC   C1B16763  16.924   1.374   7.692  0.2486  0.4551  0.0014
68732POPC   C2B16764  17.070   1.637   7.315  0.2647 -0.2326 -0.0442
68732POPC   C3B16765  17.166   1.565   6.864  0.0913  0.3022  0.2969
68732POPC   C4B16766  17.504   1.773   6.677 -0.5914  0.2145 -0.0526
68733POPC   NC316767  29.823   2.298  13.463  0.4661  0.1099  0.2314
68733POPC   PO416768  29.876   2.581  13.181 -0.3495 -0.0368  0.2256
68733POPC   GL116769  29.651   2.870  13.293 -0.0486 -0.0292  0.1543
68733POPC   GL216770  29.724   3.070  13.049  0.1631  0.2654  0.0563
68733POPC   C1A16771  29.197   3.055  13.343 -0.2338  0.1584  0.1805
68733POPC   D2A16772  28.744   3.019  13.329 -0.1952 -0.1837  0.4459
68733POPC   C3A16773  28.348   2.792  13.573  0.1104 -0.1908 -0.0340
68733POPC   C4A16774  27.967   2.544  13.352 -0.0742 -0.3188 -0.1820
68733POPC   C1B16775  29.316   3.202  12.839  0.0399 -0.0196 -0.1656
68733POPC   C2B16776  28.951   3.371  13.031 -0.0358 -0.1858  0.0798
68733POPC   C3B16777  28.542   3.485  13.197  0.0259  0.1107 -0.1194
68733POPC   C4B16778  28.439   3.503  13.676 -0.1628 -0.1053  0.1248
68734POPC   NC316779  21.964   9.694  10.001  0.0189 -0.0707 -0.1812
68734POPC   PO416780  22.043   9.822   9.653 -0.0911 -0.0194  0.0544
68734POPC   GL116781  22.295   9.634   9.454  0.2004  0.1445  0.4199
68734POPC   GL216782  22.088   9.358   9.326  0.2091  0.0188 -0.2477
68734POPC   C1A16783  22.622   9.344   9.381  0.5212  0.2639 -0.1478
68734POPC   D2A16784  22.882   8.983   9.175  0.2293 -0.1050 -0.0755
68734POPC   C3A16785  22.911   8.557   9.303 -0.3602 -0.0889 -0.1006
68734POPC   C4A16786  22.795   8.523   9.730  0.2330 -0.0508  0.0858
68734POPC   C1B16787  22.335   9.556   8.910 -0.4303  0.1399 -0.1282
68734POPC   C2B16788  22.600   9.683   8.557  0.2435  0.1608 -0.1666
68734POPC   C3B16789  22.923   9.442   8.378  0.1612 -0.0814 -0.2710
68734POPC   C4B16790  23.256   9.393   8.052  0.2365  0.0429 -0.0802
68735POPC   NC316791  17.905   5.519   8.852 -0.0846  0.1873 -0.2247
68735POPC   PO416792  18.125   5.833   9.007 -0.0441  0.2613 -0.0989
68735POPC   GL116793  18.257   5.861   8.669  0.1370  0.2652 -0.2138
68735POPC   GL216794  18.225   5.594   8.481  0.0175 -0.3222 -0.0528
68735POPC   C1A16795  17.998   5.964   8.228 -0.2090  0.0210  0.3695
68735POPC   D2A16796  17.622   5.905   7.913 -0.3503  0.0515 -0.1254
68735POPC   C3A16797  17.453   6.010   7.599  0.1819 -0.3409  0.3396
68735POPC   C4A16798  17.264   6.281   7.311  0.0350 -0.0951 -0.0123
68735POPC   C1B16799  18.311   5.611   8.016  0.2078  0.1191 -0.3010
68735POPC   C2B16800  18.332   5.742   7.553 -0.1060 -0.0186  0.0307
68735POPC   C3B16801  18.468   5.712   7.115  0.1967  0.0706  0.0658
68735POPC   C4B16802  18.645   5.579   6.690 -0.1833  0.0137  0.1921
68736POPC   NC316803  22.462   2.907  11.737 -0.1374 -0.0078  0.2786
68736POPC   PO416804  22.109   3.058  11.779  0.1179  0.0213  0.0909
68736POPC   GL116805  22.382   3.291  12.021  0.0831  0.0287 -0.2370
68736POPC   GL216806  22.382   3.509  11.838 -0.2637 -0.3261  0.1000
68736POPC   C1A16807  22.817   3.183  12.018 -0.1049  0.1291  0.2133
68736POPC   D2A16808  23.155   3.547  11.964 -0.0887 -0.0982 -0.0050
68736POPC   C3A16809  23.373   3.735  11.613  0.0764  0.1726 -0.2476
68736POPC   C4A16810  23.762   3.924  11.448 -0.0561 -0.1386 -0.0489
68736POPC   C1B16811  22.768   3.775  11.662  0.1467  0.1597  0.1331
68736POPC   C2B16812  23.010   4.121  11.435 -0.3838 -0.2750 -0.0777
68736POPC   C3B16813  23.442   4.291  11.432 -0.0563 -0.1077  0.2396
68736POPC   C4B16814  23.706   4.537  11.167  0.2173  0.2389 -0.1406
68737POPC   NC316815  28.835   9.854  12.606 -0.1594 -0.3565  0.1803
68737POPC   PO416816  28.732   9.956  12.236 -0.0152  0.1960  0.0274
68737POPC   GL116817  28.792   9.578  12.101 -0.2079 -0.1180  0.3865
68737POPC   GL216818  28.851   9.539  11.823  0.2196 -0.1214 -0.2574
68737POPC   C1A16819  28.477   9.244  12.037  0.2498 -0.0099 -0.0124
68737POPC   D2A16820  28.133   8.898  11.996 -0.1162 -0.0890 -0.0960
68737POPC   C3A16821  28.153   8.553  11.686  0.4057 -0.2057  0.3928
68737POPC   C4A16822  27.896   8.479  11.298 -0.0502  0.0732  0.1715
68737POPC   C1B16823  28.670   9.199  11.518  0.0208  0.2769  0.2393
68737POPC   C2B16824  28.899   8.764  11.491 -0.0957 -0.2196 -0.0286
68737POPC   C3B16825  28.900   8.386  11.187 -0.1180  0.2393  0.2255
68737POPC   C4B16826  28.868   7.947  11.114 -0.0480  0.3467 -0.2906
68738POPC   NC316827  20.451   5.123   9.729  0.2157 -0.1952  0.1290
68738POPC   PO416828  20.125   5.176   9.518 -0.0830  0.1133  0.2513
68738POPC   GL116829  20.339   5.094   9.209 -0.0420  0.1371  0.0153
68738POPC   GL216830  20.436   5.395   9.231 -0.2059  0.3170  0.1514
68738POPC   C1A16831  20.280   4.954   8.748 -0.3440 -0.0036  0.3039
68738POPC   D2A16832  20.300   4.764   8.302 -0.0836  0.2702  0.0602
68738POPC   C3A16833  20.348   5.099   7.916 -0.0088  0.0260  0.0257
68738POPC   C4A16834  20.467   5.515   7.836 -0.0044  0.0769  0.0716
68738POPC   C1B16835  20.684   5.266   8.885 -0.1265 -0.2095 -0.2066
68738POPC   C2B16836  21.011   5.187   8.615 -0.0988 -0.1125 -0.2544
68738POPC   C3B16837  21.434   5.162   8.557  0.0191 -0.3454 -0.1791
68738POPC   C4B16838  21.771   4.874   8.368 -0.2072  0.0023 -0.4252
68739POPC   NC316839  31.200   4.554   9.697  0.0151 -0.0633 -0.1889
68739POPC   PO416840  31.430   4.266   9.804  0.1452  0.1232  0.1604
68739POPC   GL116841  31.150   4.171   9.512  0.4161  0.0181 -0.1064
68739POPC   GL216842  30.926   4.010   9.652  0.1088 -0.1609  0.0717
68739POPC   C1A16843  31.100   4.470   9.167 -0.1169  0.0186  0.2110
68739POPC   D2A16844  31.184   4.597   8.745  0.2182 -0.0180 -0.3461
68739POPC   C3A16845  31.127   4.279   8.477  0.1781 -0.0592  0.3777
68739POPC   C4A16846  31.359   3.860   8.389  0.4279  0.0716 -0.0069
68739POPC   C1B16847  30.692   4.352   9.480 -0.0465 -0.0323  0.0648
68739POPC   C2B16848  30.444   4.760   9.467 -0.0140 -0.1585  0.1097
68739POPC   C3B16849  30.442   5.094   9.230  0.1412 -0.0239  0.2161
68739POPC   C4B16850  30.285   5.283   8.851 -0.3972 -0.0920  0.3171
68740POPC   NC316851  18.479   9.377   8.796  0.1057  0.1988 -0.2064
68740POPC   PO416852  18.826   9.535   8.734  0.1335  0.2125  0.1604
68740POPC   GL116853  18.858   9.403   8.420 -0.2704 -0.0248  0.0290
68740POPC   GL216854  18.553   9.382   8.296 -0.2362  0.1919  0.2564
68740POPC   C1A16855  18.985   9.400   7.936  0.1962  0.1903 -0.2117
68740POPC   D2A16856  19.086   9.271   7.488 -0.1312  0.2885  0.1668
68740POPC   C3A16857  19.500   9.242   7.227  0.0605  0.1750  0.1332
68740POPC   C4A16858  19.942   9.229   7.318 -0.4672  0.0647 -0.0977
68740POPC   C1B16859  18.648   9.024   7.951  0.1088 -0.2040  0.2156
68740POPC   C2B16860  18.776   8.911   7.466 -0.0003  0.0515  0.0363
68740POPC   C3B16861  18.904   8.565   7.249  0.2038 -0.0114  0.0016
68740POPC   C4B16862  18.617   8.225   7.214  0.0976  0.1460 -0.3209
68741POPC   NC316863  25.008  10.942  10.515 -0.0181  0.1427  0.3418
68741POPC   PO416864  25.271  10.681  10.729  0.1365 -0.2453  0.0472
68741POPC   GL116865  25.212  10.424  10.482 -0.0901 -0.3575 -0.0915
68741POPC   GL216866  25.142  10.167  10.573  0.0508  0.1455  0.0943
68741POPC   C1A16867  25.344  10.249  10.071  0.0398 -0.2425 -0.1627
68741POPC   D2A16868  25.340  10.111   9.640 -0.3116  0.3017 -0.0946
68741POPC   C3A16869  25.199  10.252   9.257 -0.0977  0.1844  0.1612
68741POPC   C4A16870  25.111   9.969   8.859  0.2040 -0.0062 -0.1241
68741POPC   C1B16871  25.275   9.755  10.466 -0.1817 -0.1479  0.0929
68741POPC   C2B16872  25.430   9.327  10.349  0.2096  0.0459 -0.1610
68741POPC   C3B16873  25.650   9.009  10.087 -0.1544  0.0251 -0.0092
68741POPC   C4B16874  25.540   9.038   9.643  0.2240  0.1738  0.0819
68742POPC   NC316875  23.585  12.268   9.045 -0.1874  0.2061 -0.2745
68742POPC   PO416876  23.146  12.195   8.973  0.0037  0.3481  0.1827
68742POPC   GL116877  23.375  11.848   8.902  0.0042 -0.1143  0.0987
68742POPC   GL216878  23.565  11.848   8.684  0.1619  0.2637  0.0668
68742POPC   C1A16879  23.211  11.449   8.763  0.0283 -0.2016  0.1580
68742POPC   D2A16880  22.888  11.252   8.394  0.0479  0.0863  0.1413
68742POPC   C3A16881  23.103  11.158   7.977  0.1983 -0.2696 -0.2596
68742POPC   C4A16882  23.388  10.806   7.850  0.1095 -0.3064 -0.1448
68742POPC   C1B16883  23.354  11.652   8.314 -0.0315 -0.0183  0.0107
68742POPC   C2B16884  23.149  11.687   7.828 -0.2750 -0.0172 -0.2229
68742POPC   C3B16885  23.125  11.738   7.375 -0.1291  0.0770 -0.0677
68742POPC   C4B16886  23.576  11.786   7.276  0.0185 -0.0019  0.0643
68743POPC   NC316887  18.427   2.572   9.216  0.2115 -0.0866  0.0263
68743POPC   PO416888  18.690   2.886   9.264 -0.1267  0.0961 -0.3236
68743POPC   GL116889  18.948   2.893   9.007  0.1364  0.2153 -0.2707
68743POPC   GL216890  18.967   3.093   8.756 -0.0998 -0.0709 -0.0083
68743POPC   C1A16891  19.331   2.738   8.786  0.0591 -0.0311  0.2684
68743POPC   D2A16892  19.647   2.589   8.514  0.1125 -0.1710  0.4834
68743POPC   C3A16893  19.581   2.565   8.031  0.1095  0.1854 -0.1117
68743POPC   C4A16894  19.505   2.492   7.547 -0.1786  0.0822 -0.0201
68743POPC   C1B16895  19.149   2.975   8.341 -0.3513  0.1030 -0.0192
68743POPC   C2B16896  19.223   2.926   7.865 -0.1565 -0.0249  0.2178
68743POPC   C3B16897  19.518   2.980   7.479 -0.2285 -0.1073 -0.2487
68743POPC   C4B16898  19.889   2.838   7.246 -0.0891 -0.0122  0.2225
68744POPC   NC316899  23.197  15.664   9.002  0.0711  0.0242 -0.1428
68744POPC   PO416900  23.310  15.315   9.156  0.0413 -0.1703  0.0410
68744POPC   GL116901  23.457  15.161   8.837 -0.0862 -0.1275  0.0391
68744POPC   GL216902  23.414  15.314   8.638  0.0198  0.0456  0.1192
68744POPC   C1A16903  23.908  15.115   8.620  0.1759 -0.0645  0.2749
68744POPC   D2A16904  24.372  15.226   8.535  0.3761 -0.0319 -0.4933
68744POPC   C3A16905  24.380  15.415   8.123  0.1044 -0.1884 -0.0435
68744POPC   C4A16906  24.436  15.277   7.673 -0.0598 -0.0552  0.0104
68744POPC   C1B16907  23.742  15.563   8.467  0.1148 -0.2952 -0.1209
68744POPC   C2B16908  23.970  15.619   8.040 -0.0716  0.1437  0.3027
68744POPC   C3B16909  24.143  15.840   7.702  0.0038 -0.1087 -0.0955
68744POPC   C4B16910  24.051  15.924   7.262 -0.2224 -0.0680 -0.0382
68745POPC   NC316911  18.419   4.172   8.909 -0.1395 -0.3480  0.0822
68745POPC   PO416912  18.413   4.489   9.100  0.2294  0.0233 -0.3997
68745POPC   GL116913  18.483   4.740   8.733 -0.0382 -0.0872  0.1009
68745POPC   GL216914  18.296   4.657   8.541  0.1322 -0.0814 -0.1280
68745POPC   C1A16915  18.699   4.839   8.319 -0.1127  0.1633 -0.2659
68745POPC   D2A16916  18.828   4.791   7.856 -0.0021 -0.0715  0.2355
68745POPC   C3A16917  18.788   5.121   7.559  0.2511  0.1009  0.2402
68745POPC   C4A16918  18.930   5.468   7.305  0.2946 -0.0876 -0.0071
68745POPC   C1B16919  18.349   4.556   8.124 -0.1471 -0.0787  0.2133
68745POPC   C2B16920  18.418   4.445   7.621  0.3894  0.0445 -0.2358
68745POPC   C3B16921  18.313   4.453   7.173  0.2297 -0.1591 -0.1450
68745POPC   C4B16922  18.092   4.305   6.796  0.0136  0.1723  0.3277
68746POPC   NC316923  25.885  16.284   9.500  0.0078  0.0575  0.0776
68746POPC   PO416924  26.203  16.116   9.646  0.2265  0.0661 -0.1429
68746POPC   GL116925  26.184  16.051   9.224  0.1056 -0.1236 -0.0705
68746POPC   GL216926  25.924  16.082   9.086 -0.2384  0.1851 -0.3226
68746POPC   C1A16927  26.388  16.325   8.899  0.0417  0.1371 -0.2260
68746POPC   D2A16928  26.489  16.693   8.697 -0.1232  0.0667 -0.0131
68746POPC   C3A16929  26.430  16.905   8.304  0.1485 -0.1721 -0.0574
68746POPC   C4A16930  26.308  17.286   8.058  0.1446  0.3287 -0.1601
68746POPC   C1B16931  25.864  16.338   8.655  0.0245 -0.1330 -0.0805
68746POPC   C2B16932  26.031  16.503   8.273 -0.1844 -0.2295  0.0932
68746POPC   C3B16933  26.076  16.844   7.923  0.2570  0.1158  0.0095
68746POPC   C4B16934  26.146  17.213   7.588  0.0375 -0.3156 -0.0807
68747POPC   NC316935  28.437   1.001   8.725  0.0715  0.1566 -0.1072
68747POPC   PO416936  28.311   0.674   8.802  0.2132  0.0389 -0.0592
68747POPC   GL116937  28.003   0.869   8.626 -0.1210 -0.1030  0.1399
68747POPC   GL216938  27.813   0.864   8.361  0.2091  0.0591 -0.3939
68747POPC   C1A16939  28.140   1.264   8.421 -0.1892  0.1564 -0.2338
68747POPC   D2A16940  27.856   1.481   8.077  0.0447  0.1177 -0.0880
68747POPC   C3A16941  27.391   1.498   8.012 -0.0216  0.3079 -0.1044
68747POPC   C4A16942  26.963   1.566   8.306 -0.1333 -0.0881  0.0344
68747POPC   C1B16943  27.994   0.511   8.132 -0.0614  0.3375 -0.0881
68747POPC   C2B16944  28.244   0.477   7.726  0.3383  0.3193  0.2023
68747POPC   C3B16945  28.234   0.130   7.360  0.0509 -0.0101  0.0105
68747POPC   C4B16946  28.177   0.080   6.927 -0.2554 -0.1317 -0.1818
68748POPC   NC316947  25.672  14.379   9.475 -0.0239 -0.2615  0.2292
68748POPC   PO416948  25.936  14.328   9.207  0.0014  0.1370  0.0351
68748POPC   GL116949  25.751  14.602   9.026  0.0468 -0.2198  0.1255
68748POPC   GL216950  25.529  14.418   8.873 -0.0710  0.2636 -0.1591
68748POPC   C1A16951  25.927  14.662   8.570 -0.2006 -0.0514 -0.1760
68748POPC   D2A16952  25.655  14.738   8.187 -0.0158 -0.1069 -0.1055
68748POPC   C3A16953  25.703  14.865   7.768  0.1018 -0.1747  0.1528
68748POPC   C4A16954  25.491  15.040   7.375 -0.1686  0.0075 -0.2169
68748POPC   C1B16955  25.385  14.396   8.435  0.1436 -0.0526 -0.1225
68748POPC   C2B16956  25.270  14.190   7.990 -0.1173  0.0061 -0.1095
68748POPC   C3B16957  25.369  14.171   7.539 -0.0085  0.1174  0.1910
68748POPC   C4B16958  25.195  14.425   7.109 -0.3600  0.0433 -0.1982
68749POPC   NC316959  24.695  12.807   9.200  0.2821 -0.1712  0.0421
68749POPC   PO416960  24.337  12.727   9.227 -0.0364 -0.0939 -0.2863
68749POPC   GL116961  24.384  12.664   8.842  0.1361  0.0135 -0.3637
68749POPC   GL216962  24.357  12.430   8.715  0.3180 -0.0650 -0.2833
68749POPC   C1A16963  24.445  12.825   8.396 -0.0183  0.0404  0.1389
68749POPC   D2A16964  24.589  12.653   7.988  0.0873 -0.0705 -0.1358
68749POPC   C3A16965  24.472  12.236   7.790 -0.1929  0.1900  0.1102
68749POPC   C4A16966  24.293  11.933   7.456 -0.0702  0.1747  0.0991
68749POPC   C1B16967  24.535  12.297   8.313  0.1673 -0.2718 -0.1560
68749POPC   C2B16968  24.854  12.084   8.122  0.0630 -0.0967 -0.1057
68749POPC   C3B16969  24.969  11.849   7.745 -0.4546 -0.0426 -0.1396
68749POPC   C4B16970  25.008  11.656   7.360 -0.0942  0.0273 -0.3473
68750POPC   NC316971  23.569   0.416   9.668 -0.0830 -0.0047 -0.1234
68750POPC   PO416972  23.870   0.153   9.797 -0.0814  0.0011 -0.0519
68750POPC   GL116973  23.999   0.325   9.399  0.4528  0.1023  0.0643
68750POPC   GL216974  23.762   0.320   9.215  0.0986  0.2896 -0.3507
68750POPC   C1A16975  24.254   0.534   9.084  0.4561 -0.0538  0.0633
68750POPC   D2A16976  24.349   0.723   8.696 -0.2100  0.2877  0.1203
68750POPC   C3A16977  24.669   0.761   8.342 -0.3596 -0.1333 -0.0176
68750POPC   C4A16978  24.711   1.075   8.003 -0.1889 -0.0537 -0.2235
68750POPC   C1B16979  23.852   0.460   8.783  0.0157 -0.1065  0.0530
68750POPC   C2B16980  23.988   0.618   8.378  0.0351  0.0977  0.0493
68750POPC   C3B16981  24.130   0.922   8.094  0.2724  0.1441  0.0301
68750POPC   C4B16982  24.350   0.965   7.700  0.2037 -0.1637 -0.0993
68751POPC   NC316983  29.039   2.168   9.369 -0.0480  0.2204 -0.1834
68751POPC   PO416984  29.199   1.780   9.534 -0.2108 -0.0323 -0.1246
68751POPC   GL116985  29.111   1.828   9.118 -0.0789  0.0593  0.1948
68751POPC   GL216986  28.858   1.840   8.982  0.2086 -0.3017 -0.0021
68751POPC   C1A16987  29.178   2.090   8.722 -0.1521  0.1929  0.0761
68751POPC   D2A16988  29.426   2.245   8.294  0.0969 -0.3911 -0.0176
68751POPC   C3A16989  29.519   1.965   7.973 -0.1238  0.1042  0.1584
68751POPC   C4A16990  29.604   2.060   7.531 -0.3449  0.2064  0.0067
68751POPC   C1B16991  28.789   1.835   8.578  0.1668  0.1589  0.1577
68751POPC   C2B16992  28.548   2.138   8.316 -0.1787 -0.1043 -0.4657
68751POPC   C3B16993  28.575   2.374   7.945 -0.5131  0.1190  0.1797
68751POPC   C4B16994  28.359   2.493   7.539  0.0988  0.1508 -0.1086
68752POPC   NC316995  20.400  13.274   8.069  0.2355 -0.0866 -0.2609
68752POPC   PO416996  20.666  13.553   8.155  0.1191 -0.2695 -0.1098
68752POPC   GL116997  20.742  13.383   7.733 -0.2116 -0.0654 -0.2637
68752POPC   GL216998  20.726  13.532   7.479 -0.1194  0.2327 -0.0478
68752POPC   C1A16999  20.673  12.929   7.587 -0.0651 -0.0341 -0.0741
68752POPC   D2A17000  20.550  12.772   7.185  0.0888  0.1421  0.0865
68752POPC   C3A17001  20.805  12.608   6.848 -0.0830 -0.0210  0.0204
68752POPC   C4A17002  21.091  12.604   6.469  0.0073  0.2281  0.0719
68752POPC   C1B17003  20.638  13.612   7.026  0.2744  0.2327 -0.0648
68752POPC   C2B17004  20.513  13.844   6.574  0.0119 -0.0555  0.0761
68752POPC   C3B17005  20.612  14.153   6.238 -0.2840 -0.1124 -0.2169
68752POPC   C4B17006  20.906  14.439   6.047  0.1700 -0.1677 -0.0908
68753POPC   NC317007  21.181   4.749  13.527 -0.3440 -0.0355  0.2468
68753POPC   PO417008  21.177   5.058  13.667 -0.1235 -0.0278 -0.1098
68753POPC   GL117009  21.459   4.955  13.798  0.5760 -0.0966  0.0790
68753POPC   GL217010  21.654   5.032  13.644 -0.0132 -0.2968 -0.2000
68753POPC   C1A17011  21.706   5.102  14.177 -0.1524 -0.1315  0.0894
68753POPC   D2A17012  21.990   5.329  14.464  0.2445 -0.0812 -0.3109
68753POPC   C3A17013  22.463   5.156  14.633 -0.2673 -0.1242  0.0869
68753POPC   C4A17014  22.906   5.017  14.554  0.1127  0.0725 -0.0144
68753POPC   C1B17015  21.989   5.294  13.836  0.3871 -0.0125 -0.1265
68753POPC   C2B17016  22.403   5.421  14.135 -0.2345 -0.1206 -0.3133
68753POPC   C3B17017  22.816   5.525  14.240  0.1940  0.1730  0.1374
68753POPC   C4B17018  23.281   5.515  14.184  0.1779 -0.0859 -0.0192
68754POPC   NC317019  22.477   8.844  11.852  0.0004  0.0986 -0.2648
68754POPC   PO417020  22.110   8.841  12.025  0.1419 -0.0457 -0.2410
68754POPC   GL117021  22.297   8.514  12.173  0.0286 -0.1997 -0.0999
68754POPC   GL217022  22.484   8.589  12.397 -0.1020  0.4817 -0.0526
68754POPC   C1A17023  22.647   8.328  11.937  0.2257 -0.0363  0.2154
68754POPC   D2A17024  22.879   8.034  11.625 -0.0076 -0.1913 -0.2367
68754POPC   C3A17025  23.317   7.774  11.589  0.2025  0.2800 -0.0853
68754POPC   C4A17026  23.700   7.603  11.428 -0.0593 -0.0968 -0.2727
68754POPC   C1B17027  22.938   8.574  12.284  0.2835  0.0346  0.2140
68754POPC   C2B17028  23.326   8.295  12.423  0.0793  0.0407 -0.0185
68754POPC   C3B17029  23.519   7.966  12.745 -0.0841 -0.1949 -0.1539
68754POPC   C4B17030  23.872   7.854  13.014 -0.0973  0.1781 -0.0156
68755POPC   NC317031  25.465  14.830   9.306  0.0613  0.0025 -0.1691
68755POPC   PO417032  25.850  14.951   9.394 -0.1065  0.2582 -0.3600
68755POPC   GL117033  25.865  15.026   9.035  0.2519 -0.3020  0.0877
68755POPC   GL217034  26.122  15.027   8.835  0.0679 -0.1808  0.1012
68755POPC   C1A17035  25.480  14.863   8.766  0.0912 -0.0227  0.0722
68755POPC   D2A17036  25.195  14.859   8.424  0.0889  0.1378 -0.0339
68755POPC   C3A17037  25.211  14.725   7.977 -0.2352  0.0495  0.0358
68755POPC   C4A17038  25.119  14.654   7.525 -0.0985  0.0619 -0.1846
68755POPC   C1B17039  25.893  15.099   8.448  0.2015 -0.2332 -0.0778
68755POPC   C2B17040  25.848  15.274   8.017 -0.0635 -0.2259 -0.0666
68755POPC   C3B17041  25.926  15.277   7.545 -0.1882  0.1331 -0.0079
68755POPC   C4B17042  25.978  15.527   7.221  0.0038  0.1682 -0.1273
68756POPC   NC317043  23.759  15.392  15.492 -0.3762  0.1458 -0.2444
68756POPC   PO417044  24.075  15.140  15.506 -0.0568 -0.0262  0.3414
68756POPC   GL117045  24.242  15.294  15.797  0.0034  0.1142 -0.2329
68756POPC   GL217046  24.059  15.325  15.995  0.2633  0.0560  0.2032
68756POPC   C1A17047  24.512  15.685  15.885  0.1180  0.2343  0.1060
68756POPC   D2A17048  24.648  15.862  16.243 -0.0644 -0.0612  0.1038
68756POPC   C3A17049  24.343  15.918  16.582  0.1939  0.3588  0.0626
68756POPC   C4A17050  24.243  16.059  16.976  0.1517 -0.1380 -0.0389
68756POPC   C1B17051  24.361  15.403  16.329  0.0496 -0.1411 -0.0146
68756POPC   C2B17052  24.274  15.411  16.793  0.2748  0.1043  0.1580
68756POPC   C3B17053  23.995  15.683  17.065  0.2124  0.1449 -0.1069
68756POPC   C4B17054  23.635  15.888  17.251 -0.2152 -0.1259 -0.3420
68757POPC   NC317055  26.280  14.658   9.122  0.6183 -0.2072  0.2801
68757POPC   PO417056  26.591  14.907   9.062  0.3142 -0.1614  0.1630
68757POPC   GL117057  26.653  15.078   8.707 -0.3843 -0.4101  0.0423
68757POPC   GL217058  26.577  14.817   8.593  0.2558  0.2832  0.2412
68757POPC   C1A17059  26.733  15.254   8.321  0.2371  0.1262  0.0277
68757POPC   D2A17060  26.899  15.333   7.856  0.0833  0.0347 -0.2206
68757POPC   C3A17061  26.914  15.620   7.551 -0.2364  0.2442  0.1315
68757POPC   C4A17062  27.206  15.662   7.237  0.3744  0.0469  0.5100
68757POPC   C1B17063  26.318  14.969   8.206 -0.0358 -0.0494  0.0247
68757POPC   C2B17064  26.319  14.946   7.777  0.2531  0.0087 -0.1798
68757POPC   C3B17065  26.079  14.759   7.419  0.0382  0.4247 -0.0103
68757POPC   C4B17066  25.646  14.582   7.335  0.2702 -0.2185 -0.0254
68758POPC   NC317067  23.177   1.703  10.550 -0.2785  0.2162  0.1596
68758POPC   PO417068  23.277   1.339  10.388 -0.0060 -0.0623  0.0578
68758POPC   GL117069  23.226   1.621  10.065 -0.0315 -0.1874 -0.7334
68758POPC   GL217070  22.944   1.557  10.063 -0.1969  0.2197 -0.3026
68758POPC   C1A17071  23.473   2.065  10.080 -0.0755 -0.0420 -0.2051
68758POPC   D2A17072  23.762   2.455  10.064  0.3666 -0.1518 -0.2478
68758POPC   C3A17073  23.589   2.847  10.296 -0.1637  0.1267  0.0661
68758POPC   C4A17074  23.751   3.241  10.333  0.2076 -0.0522 -0.0325
68758POPC   C1B17075  23.084   1.771   9.676  0.2640  0.0433 -0.0501
68758POPC   C2B17076  23.110   1.838   9.224 -0.3947  0.1472  0.3983
68758POPC   C3B17077  23.356   1.974   8.802  0.1022 -0.4536  0.0719
68758POPC   C4B17078  23.311   2.100   8.353 -0.1646  0.4222  0.3408
68759POPC   NC317079  19.663  13.239   8.536  0.1290 -0.0923 -0.0630
68759POPC   PO417080  19.965  13.424   8.330 -0.0495 -0.1295 -0.2382
68759POPC   GL117081  19.946  13.231   7.948 -0.1067  0.0691  0.2147
68759POPC   GL217082  20.013  12.920   7.860 -0.1915  0.1717  0.1145
68759POPC   C1A17083  20.276  13.234   7.588  0.1626 -0.0368  0.1163
68759POPC   D2A17084  20.421  13.218   7.177 -0.0890  0.1235 -0.0421
68759POPC   C3A17085  20.349  13.292   6.748 -0.0590  0.0976 -0.0836
68759POPC   C4A17086  20.256  13.513   6.368 -0.2382  0.2315  0.1853
68759POPC   C1B17087  20.151  12.675   7.473  0.2724 -0.2806  0.1764
68759POPC   C2B17088  20.013  12.309   7.171  0.1124  0.2014 -0.2374
68759POPC   C3B17089  20.136  11.989   6.867 -0.0483  0.1130  0.1411
68759POPC   C4B17090  20.006  11.774   6.495  0.0940 -0.0809  0.0981
68760POPC   NC317091  17.089   3.722   8.796  0.0176 -0.1668  0.1752
68760POPC   PO417092  16.776   3.956   8.747  0.0394  0.0792  0.1333
68760POPC   GL117093  16.900   4.034   8.281  0.1659  0.2755 -0.2824
68760POPC   GL217094  17.041   3.833   8.306  0.2725  0.1819  0.2629
68760POPC   C1A17095  16.939   4.452   8.015 -0.1460 -0.0181  0.1950
68760POPC   D2A17096  16.950   4.548   7.539  0.3895  0.0175 -0.1198
68760POPC   C3A17097  16.605   4.265   7.334  0.0250  0.0175 -0.0990
68760POPC   C4A17098  16.221   4.138   7.114 -0.1256 -0.1096 -0.1233
68760POPC   C1B17099  17.316   3.808   7.945 -0.0685  0.2327  0.2539
68760POPC   C2B17100  17.529   3.859   7.547  0.2225 -0.1764  0.1477
68760POPC   C3B17101  17.560   3.881   7.075 -0.1033 -0.0458  0.1579
68760POPC   C4B17102  17.252   3.971   6.779  0.0854  0.2241  0.1050
68761POPC   NC317103  28.949   1.409  11.981  0.0284 -0.1838  0.2532
68761POPC   PO417104  28.924   1.525  11.589  0.1927  0.0612 -0.0097
68761POPC   GL117105  28.621   1.663  11.779 -0.1593  0.2250 -0.0363
68761POPC   GL217106  28.430   1.611  11.985  0.1359  0.1818  0.0835
68761POPC   C1A17107  28.522   2.108  11.766  0.2898  0.1491 -0.0518
68761POPC   D2A17108  28.238   2.376  11.759 -0.0825 -0.3435 -0.1293
68761POPC   C3A17109  28.044   2.478  12.155 -0.1850 -0.0626 -0.0537
68761POPC   C4A17110  27.714   2.651  12.396  0.0410 -0.0539  0.1682
68761POPC   C1B17111  28.149   1.936  12.035 -0.2417  0.1808  0.2761
68761POPC   C2B17112  27.813   2.194  11.854  0.2981  0.1350  0.1196
68761POPC   C3B17113  27.696   2.641  11.786 -0.0697 -0.0092  0.2283
68761POPC   C4B17114  27.569   3.093  11.838 -0.0569 -0.1136  0.1160
68762POPC   NC317115  18.576  16.813   8.451 -0.0083  0.1943 -0.3219
68762POPC   PO417116  18.641  17.028   8.749  0.2135  0.1063  0.0688
68762POPC   GL117117  18.664  17.232   8.351  0.0547  0.1196 -0.1580
68762POPC   GL217118  18.377  17.342   8.318 -0.1935 -0.3647 -0.0984
68762POPC   C1A17119  18.566  17.035   7.901 -0.1958  0.1473 -0.4617
68762POPC   D2A17120  18.698  17.170   7.456  0.4885 -0.0731  0.2761
68762POPC   C3A17121  18.972  17.483   7.225  0.3484  0.3197 -0.0893
68762POPC   C4A17122  19.330  17.613   7.001  0.0511 -0.0897 -0.4025
68762POPC   C1B17123  18.344  17.509   7.887 -0.0118  0.0191  0.1351
68762POPC   C2B17124  18.600  17.743   7.497 -0.0542 -0.0410  0.1813
68762POPC   C3B17125  18.812  17.921   7.130 -0.0099  0.1099 -0.1445
68762POPC   C4B17126  18.595  18.030   6.747  0.1027  0.0916  0.1347
68763POPC   NC317127  19.236   1.198   9.122  0.1625  0.2190  0.0716
68763POPC   PO417128  19.021   1.473   8.944 -0.0553 -0.2258 -0.3222
68763POPC   GL117129  19.039   1.773   8.592  0.0335 -0.3690 -0.1001
68763POPC   GL217130  18.805   2.015   8.536  0.1226 -0.1318 -0.2789
68763POPC   C1A17131  18.980   1.820   8.127  0.1302  0.2971 -0.1571
68763POPC   D2A17132  19.007   1.828   7.662 -0.0171 -0.0361  0.1991
68763POPC   C3A17133  19.152   2.216   7.387 -0.0386  0.0800 -0.2339
68763POPC   C4A17134  19.138   2.507   7.036 -0.0259  0.0417  0.1114
68763POPC   C1B17135  18.744   2.227   8.129 -0.1060  0.1368 -0.0977
68763POPC   C2B17136  18.664   2.285   7.755  0.0807  0.0708 -0.0367
68763POPC   C3B17137  18.441   2.300   7.296 -0.0784  0.1140  0.1079
68763POPC   C4B17138  18.332   2.143   6.879  0.1884  0.0767  0.1056
68764POPC   NC317139  20.995   3.699   9.814  0.0056 -0.0014  0.0060
68764POPC   PO417140  20.917   4.035   9.622  0.0173  0.0114 -0.0629
68764POPC   GL117141  20.854   4.097   9.253  0.1597  0.1507  0.2353
68764POPC   GL217142  20.685   4.331   9.324 -0.0462  0.0936 -0.1963
68764POPC   C1A17143  21.173   4.347   9.072 -0.2201  0.0383  0.2309
68764POPC   D2A17144  21.597   4.319   8.824 -0.2109 -0.0635  0.0102
68764POPC   C3A17145  21.690   4.334   8.336 -0.0896 -0.1533  0.2357
68764POPC   C4A17146  22.050   4.185   8.039 -0.1672  0.2046 -0.0413
68764POPC   C1B17147  20.767   4.562   8.932  0.2444 -0.2717 -0.0676
68764POPC   C2B17148  20.747   4.761   8.492  0.2425 -0.1988 -0.0261
68764POPC   C3B17149  20.984   4.916   8.155  0.1107 -0.0187  0.0648
68764POPC   C4B17150  21.026   4.994   7.712  0.1616 -0.0896  0.2885
68765POPC   NC317151  30.624  14.714   8.742 -0.0913  0.0800  0.0224
68765POPC   PO417152  30.491  14.550   8.414 -0.2759 -0.1265  0.0172
68765POPC   GL117153  30.360  14.500   7.951 -0.0375 -0.1651 -0.3918
68765POPC   GL217154  30.252  14.204   7.993  0.1981  0.2300 -0.1943
68765POPC   C1A17155  30.599  14.273   7.629  0.0782 -0.2401 -0.3637
68765POPC   D2A17156  31.066  14.146   7.645 -0.0985  0.1069  0.0750
68765POPC   C3A17157  31.158  13.728   7.451  0.1502 -0.2473  0.1851
68765POPC   C4A17158  30.973  13.304   7.408  0.0621  0.0335  0.2053
68765POPC   C1B17159  30.148  13.793   7.875  0.2666 -0.2086 -0.0164
68765POPC   C2B17160  30.071  13.387   7.623 -0.1151 -0.4820 -0.2380
68765POPC   C3B17161  29.970  13.253   7.243 -0.0233  0.1990  0.0377
68765POPC   C4B17162  29.806  13.059   6.850 -0.0341  0.2316 -0.2154
68766POPC   NC317163  21.605   3.199  13.105 -0.2493  0.2021  0.0007
68766POPC   PO417164  21.338   2.930  13.185 -0.3726 -0.2399  0.2776
68766POPC   GL117165  21.569   3.158  13.559 -0.0530 -0.0956  0.1848
68766POPC   GL217166  21.731   2.890  13.693 -0.0222 -0.1568  0.3068
68766POPC   C1A17167  21.981   3.401  13.509  0.1432 -0.1937 -0.1145
68766POPC   D2A17168  22.464   3.383  13.567  0.0620  0.0794 -0.1147
68766POPC   C3A17169  22.829   3.557  13.843  0.0569 -0.0650 -0.0913
68766POPC   C4A17170  23.294   3.596  14.014  0.1859 -0.2799 -0.2178
68766POPC   C1B17171  22.181   2.985  13.850  0.0708 -0.1926 -0.3663
68766POPC   C2B17172  22.442   3.345  14.041 -0.0947 -0.0497 -0.0779
68766POPC   C3B17173  22.724   3.490  14.345 -0.0401 -0.2942  0.2341
68766POPC   C4B17174  23.142   3.553  14.487 -0.0347  0.0393  0.1754
68767POPC   NC317175  20.050   2.607   9.491  0.1847 -0.0555  0.0936
68767POPC   PO417176  19.674   2.574   9.380  0.0733 -0.0499 -0.0177
68767POPC   GL117177  19.527   2.372   9.162 -0.1414  0.0775 -0.2460
68767POPC   GL217178  19.642   2.158   9.135 -0.1300 -0.1383 -0.0260
68767POPC   C1A17179  19.303   2.222   8.798  0.1665 -0.1637 -0.0373
68767POPC   D2A17180  19.422   2.027   8.386 -0.1307 -0.1830 -0.0339
68767POPC   C3A17181  19.430   2.022   7.940  0.1052 -0.0877  0.1054
68767POPC   C4A17182  19.562   1.975   7.536 -0.1998 -0.1854  0.0744
68767POPC   C1B17183  19.807   2.159   8.675  0.1505 -0.3260  0.2981
68767POPC   C2B17184  19.895   2.103   8.231  0.0400 -0.2903  0.1994
68767POPC   C3B17185  20.012   2.132   7.786  0.2021 -0.0411  0.1686
68767POPC   C4B17186  20.029   2.413   7.456  0.2866  0.0813 -0.0209
68768POPC   NC317187  19.622  10.647   8.816 -0.1063 -0.1850 -0.2393
68768POPC   PO417188  19.413  10.758   8.474  0.1033  0.0956  0.1007
68768POPC   GL117189  19.588  10.420   8.277 -0.2608 -0.3827  0.1522
68768POPC   GL217190  19.714  10.087   8.249  0.0441 -0.0508  0.1749
68768POPC   C1A17191  19.976  10.473   7.964 -0.2013  0.0423 -0.0787
68768POPC   D2A17192  20.395  10.445   7.880 -0.0035 -0.2729 -0.1711
68768POPC   C3A17193  20.771  10.195   7.775  0.1877  0.0852  0.0997
68768POPC   C4A17194  21.196   9.948   7.868  0.1666 -0.1323  0.0108
68768POPC   C1B17195  19.816   9.985   7.793 -0.0123  0.4207 -0.2417
68768POPC   C2B17196  19.932  10.277   7.466 -0.0961 -0.2672  0.2195
68768POPC   C3B17197  19.750  10.598   7.213  0.1009 -0.0116  0.2139
68768POPC   C4B17198  19.486  10.911   7.052 -0.6360 -0.1153  0.0597
68769POPC   NC317199  19.677   6.175  10.118  0.1170  0.0704 -0.2993
68769POPC   PO417200  19.774   6.270   9.769 -0.0526  0.0593 -0.2526
68769POPC   GL117201  19.792   6.331   9.418  0.2319  0.1748 -0.0195
68769POPC   GL217202  19.780   6.547   9.283  0.1478  0.3280  0.1712
68769POPC   C1A17203  19.778   6.095   9.056 -0.5002  0.1543 -0.2128
68769POPC   D2A17204  19.927   5.829   8.738 -0.1335 -0.0379 -0.4641
68769POPC   C3A17205  19.740   5.598   8.396  0.0917  0.0616 -0.4536
68769POPC   C4A17206  19.505   5.681   8.015 -0.0683  0.2522  0.0192
68769POPC   C1B17207  19.525   6.702   8.852 -0.1676 -0.1146  0.1384
68769POPC   C2B17208  19.590   6.716   8.373 -0.0651  0.1790 -0.1554
68769POPC   C3B17209  19.787   6.471   7.986 -0.1760  0.0687 -0.1439
68769POPC   C4B17210  19.764   6.156   7.591  0.0880 -0.4309 -0.2555
68770POPC   NC317211  29.935   1.270   9.112  0.0389  0.1053  0.2812
68770POPC   PO417212  29.623   1.094   8.911 -0.1726 -0.2126  0.1419
68770POPC   GL117213  29.756   1.354   8.640  0.0491 -0.2164 -0.2211
68770POPC   GL217214  29.596   1.353   8.411  0.1180  0.4148 -0.0890
68770POPC   C1A17215  29.946   1.557   8.203  0.0816 -0.2241  0.0263
68770POPC   D2A17216  30.011   1.792   7.897 -0.0861 -0.1769  0.2071
68770POPC   C3A17217  30.193   1.953   7.452 -0.1893 -0.0037  0.1847
68770POPC   C4A17218  29.959   2.119   7.046  0.0121  0.1727 -0.2026
68770POPC   C1B17219  29.461   1.440   7.979 -0.1831  0.1546 -0.0375
68770POPC   C2B17220  29.621   1.388   7.530  0.1434  0.0564 -0.5382
68770POPC   C3B17221  29.797   1.581   7.102  0.2030 -0.0961  0.0768
68770POPC   C4B17222  30.004   1.729   6.670  0.1621  0.1040 -0.0491
68771POPC   NC317223  24.449  13.220   9.349  0.0011  0.0949 -0.1317
68771POPC   PO417224  24.786  13.310   9.186 -0.1103  0.0561  0.2892
68771POPC   GL117225  24.741  13.451   8.798 -0.2994 -0.1104 -0.1113
68771POPC   GL217226  24.972  13.609   8.701  0.2413  0.2063  0.0383
68771POPC   C1A17227  24.461  13.652   8.542 -0.4063  0.3823  0.2011
68771POPC   D2A17228  24.137  13.673   8.191 -0.1643  0.3121 -0.0971
68771POPC   C3A17229  24.370  13.626   7.832  0.0404 -0.2343 -0.0068
68771POPC   C4A17230  24.760  13.501   7.605  0.0241 -0.3156 -0.0718
68771POPC   C1B17231  24.773  13.368   8.296  0.4897 -0.2029 -0.0366
68771POPC   C2B17232  24.824  13.123   7.930  0.1165  0.1294  0.0909
68771POPC   C3B17233  24.847  12.775   7.599 -0.1234  0.1380  0.1276
68771POPC   C4B17234  25.104  12.713   7.223  0.2207  0.0608  0.2704
68772POPC   NC317235  21.209   5.558  13.434 -0.0571  0.1468  0.0529
68772POPC   PO417236  21.516   5.342  13.299  0.1143 -0.2941  0.0643
68772POPC   GL117237  21.883   5.529  13.306  0.2328  0.1415  0.2869
68772POPC   GL217238  21.893   5.680  13.024 -0.1105 -0.1595 -0.1030
68772POPC   C1A17239  22.314   5.382  13.398 -0.0224  0.1317 -0.2023
68772POPC   D2A17240  22.739   5.150  13.446 -0.0328 -0.1897 -0.0612
68772POPC   C3A17241  23.001   5.143  13.017  0.1400  0.1561 -0.1464
68772POPC   C4A17242  22.974   5.505  12.682 -0.0336 -0.3533 -0.1690
68772POPC   C1B17243  22.335   5.767  12.971  0.1150  0.0685  0.0271
68772POPC   C2B17244  22.734   5.639  13.092 -0.0221 -0.3398  0.0315
68772POPC   C3B17245  23.195   5.548  13.228 -0.1779 -0.2612  0.1326
68772POPC   C4B17246  23.622   5.607  13.444  0.2757 -0.1804 -0.2251
68773POPC   NC317247  21.134  15.187   8.877  0.0792 -0.1096  0.0838
68773POPC   PO417248  21.246  14.814   8.741 -0.0443  0.2575 -0.1314
68773POPC   GL117249  21.125  15.072   8.345 -0.3480  0.1024  0.2183
68773POPC   GL217250  21.256  15.010   8.100  0.2227 -0.0605 -0.0735
68773POPC   C1A17251  20.900  15.369   8.098 -0.1737  0.2355 -0.2126
68773POPC   D2A17252  20.707  15.339   7.674  0.3423  0.0650  0.1319
68773POPC   C3A17253  20.829  15.487   7.218 -0.0089 -0.2170 -0.0269
68773POPC   C4A17254  20.887  15.843   6.933 -0.0076  0.1094 -0.1177
68773POPC   C1B17255  21.193  15.280   7.740 -0.0906  0.0359  0.1834
68773POPC   C2B17256  21.310  15.254   7.321  0.2334 -0.0467 -0.1444
68773POPC   C3B17257  21.567  15.226   6.936 -0.1674 -0.0918 -0.0517
68773POPC   C4B17258  21.857  14.955   6.750 -0.2063 -0.0443 -0.2388
68774POPC   NC317259  20.921  13.585   8.623 -0.2170  0.0198  0.3553
68774POPC   PO417260  21.197  13.386   8.404 -0.0687  0.3332  0.1423
68774POPC   GL117261  21.088  13.406   8.112 -0.1104 -0.2813 -0.1904
68774POPC   GL217262  21.393  13.463   7.944  0.1441  0.3173  0.0216
68774POPC   C1A17263  21.145  13.063   7.714  0.0520 -0.0623  0.0768
68774POPC   D2A17264  20.987  13.153   7.328  0.2532 -0.2891 -0.1410
68774POPC   C3A17265  21.149  13.092   6.888  0.1749 -0.0315 -0.3599
68774POPC   C4A17266  21.282  13.080   6.432 -0.1556  0.0390 -0.0345
68774POPC   C1B17267  21.213  13.612   7.596  0.1650  0.0636 -0.0176
68774POPC   C2B17268  21.202  13.574   7.187  0.1913  0.2608 -0.1321
68774POPC   C3B17269  21.020  13.562   6.728 -0.0129  0.5192  0.1574
68774POPC   C4B17270  20.832  13.629   6.306  0.1681 -0.0714  0.0662
68775POPC   NC317271  32.433   2.805   9.476 -0.0299 -0.0287  0.1838
68775POPC   PO417272  32.362   3.064   9.225  0.0976  0.0392  0.2032
68775POPC   GL117273  32.343   3.155   8.820 -0.0827  0.1246  0.2603
68775POPC   GL217274  32.394   3.359   8.661  0.1180 -0.3096 -0.2205
68775POPC   C1A17275  32.304   2.925   8.388  0.0786  0.0855  0.2340
68775POPC   D2A17276  32.393   2.859   7.975  0.0294 -0.4832 -0.0698
68775POPC   C3A17277  32.006   3.096   8.020  0.0407 -0.1247 -0.0868
68775POPC   C4A17278  31.709   3.253   7.735  0.0332 -0.0868 -0.1587
68775POPC   C1B17279  31.976   3.311   8.616 -0.2090  0.2539 -0.2544
68775POPC   C2B17280  31.695   3.436   8.266  0.0864 -0.1113  0.0588
68775POPC   C3B17281  31.235   3.387   8.124  0.0612  0.1092  0.0526
68775POPC   C4B17282  30.980   3.435   7.712  0.1807  0.2003  0.1942
68776POPC   NC317283  26.568   0.471  11.789 -0.2356  0.0081 -0.0402
68776POPC   PO417284  26.761   0.740  11.962 -0.3169 -0.0417 -0.0898
68776POPC   GL117285  26.526   1.101  11.956 -0.2544  0.0245 -0.2050
68776POPC   GL217286  26.773   1.248  11.953 -0.0679  0.2334 -0.2811
68776POPC   C1A17287  26.416   1.549  11.952  0.2664  0.2487 -0.1963
68776POPC   D2A17288  26.414   1.987  12.007 -0.2224 -0.2463 -0.1543
68776POPC   C3A17289  26.627   2.316  12.278 -0.1793  0.1616  0.1878
68776POPC   C4A17290  26.735   2.715  12.466  0.1765 -0.2028  0.2642
68776POPC   C1B17291  26.799   1.671  12.227  0.3950 -0.4321 -0.2094
68776POPC   C2B17292  27.071   2.032  12.341  0.1652 -0.0536 -0.0493
68776POPC   C3B17293  27.233   2.474  12.487 -0.1352 -0.1011 -0.2484
68776POPC   C4B17294  27.351   2.863  12.715 -0.0756  0.1982  0.1295
68777POPC   NC317295  23.333  17.167   9.665 -0.0267 -0.1455 -0.0309
68777POPC   PO417296  23.538  17.103   9.350  0.2274  0.1269 -0.2500
68777POPC   GL117297  23.544  17.314   9.115 -0.1646  0.5749  0.4200
68777POPC   GL217298  23.740  17.165   8.932 -0.1650  0.3396  0.1720
68777POPC   C1A17299  23.528  17.542   8.727  0.2292  0.3642 -0.1015
68777POPC   D2A17300  23.478  17.949   8.460 -0.1250 -0.0217  0.0816
68777POPC   C3A17301  23.531  18.305   8.238 -0.0474 -0.0146  0.3033
68777POPC   C4A17302  23.325  18.686   8.047  0.2930  0.1541  0.3708
68777POPC   C1B17303  24.112  17.345   8.829 -0.3470  0.0223  0.2088
68777POPC   C2B17304  24.294  17.578   8.481 -0.2272 -0.2271  0.0673
68777POPC   C3B17305  24.369  17.729   8.055  0.2070  0.0448  0.4364
68777POPC   C4B17306  24.006  17.733   7.703 -0.2865 -0.2105  0.2362
68778POPC   NC317307  18.372   1.006   8.616  0.2443 -0.1811  0.2777
68778POPC   PO417308  18.115   0.692   8.510  0.2378  0.0336  0.0281
68778POPC   GL117309  18.183   0.822   8.095 -0.1800 -0.1406 -0.1444
68778POPC   GL217310  18.130   0.588   7.958 -0.1222  0.0628  0.1258
68778POPC   C1A17311  17.920   0.993   7.725 -0.0753 -0.0300 -0.0038
68778POPC   D2A17312  17.980   1.080   7.281  0.1108  0.0453  0.2166
68778POPC   C3A17313  18.147   1.233   6.830  0.1742  0.2576 -0.2657
68778POPC   C4A17314  18.048   0.865   6.513 -0.0266 -0.2011  0.1806
68778POPC   C1B17315  18.378   0.904   7.612  0.0739  0.2202 -0.0624
68778POPC   C2B17316  18.504   1.158   7.265 -0.1983 -0.2132  0.0881
68778POPC   C3B17317  18.871   1.380   7.131  0.1135 -0.3262 -0.1982
68778POPC   C4B17318  19.227   1.722   7.226 -0.1601  0.1276 -0.2497
68779POPC   NC317319  31.851   5.075  15.166 -0.1158  0.0620  0.2488
68779POPC   PO417320  31.618   4.929  14.906  0.1436  0.1308  0.0128
68779POPC   GL117321  31.425   4.999  15.294  0.1205 -0.1580  0.2179
68779POPC   GL217322  31.450   4.856  15.496  0.0697  0.0613  0.3139
68779POPC   C1A17323  31.349   5.301  15.635  0.0912 -0.0004 -0.0900
68779POPC   D2A17324  31.254   5.524  15.989 -0.1854 -0.2583 -0.1478
68779POPC   C3A17325  31.021   5.588  16.351  0.1760  0.0059 -0.2372
68779POPC   C4A17326  30.938   5.290  16.714 -0.0332 -0.1742 -0.0495
68779POPC   C1B17327  31.219   4.907  15.873 -0.1282 -0.3021 -0.3354
68779POPC   C2B17328  30.871   5.139  16.088 -0.0160 -0.1146 -0.1342
68779POPC   C3B17329  30.432   5.047  16.111 -0.1833  0.0663  0.3399
68779POPC   C4B17330  30.091   4.800  16.292 -0.0932 -0.0212 -0.0196
68780POPC   NC317331  26.122  13.556  15.901 -0.0937  0.0772  0.1683
68780POPC   PO417332  26.380  13.628  16.194  0.0821  0.1001 -0.2178
68780POPC   GL117333  26.687  13.786  16.353  0.1588 -0.1402  0.1189
68780POPC   GL217334  26.792  14.057  16.396 -0.2019  0.0100  0.1518
68780POPC   C1A17335  26.723  13.723  16.780 -0.0898  0.1655  0.0211
68780POPC   D2A17336  26.733  13.440  17.150 -0.1359  0.1866 -0.2560
68780POPC   C3A17337  26.826  13.390  17.616 -0.0399 -0.0510  0.3926
68780POPC   C4A17338  26.900  13.479  18.065  0.0397  0.1146 -0.1734
68780POPC   C1B17339  26.889  14.201  16.800  0.0088 -0.0862 -0.0532
68780POPC   C2B17340  27.210  14.295  17.113  0.2191 -0.0886  0.2372
68780POPC   C3B17341  27.237  14.397  17.559  0.0242  0.0635 -0.3050
68780POPC   C4B17342  27.162  14.641  17.935 -0.1466  0.0176 -0.0051
68781POPC   NC317343  31.053   4.954  14.208  0.1106  0.2385  0.3387
68781POPC   PO417344  30.873   4.750  13.955 -0.1574 -0.1259 -0.4398
68781POPC   GL117345  30.628   4.777  14.359  0.0083  0.0305  0.1568
68781POPC   GL217346  30.574   4.998  14.498 -0.3551 -0.1810  0.1391
68781POPC   C1A17347  30.445   4.508  14.707  0.1506 -0.1690  0.0224
68781POPC   D2A17348  30.222   4.513  15.074 -0.0744  0.0781 -0.0690
68781POPC   C3A17349  29.790   4.668  15.069  0.1073  0.1465 -0.1489
68781POPC   C4A17350  29.341   4.775  15.154 -0.0825 -0.3357  0.0586
68781POPC   C1B17351  30.325   5.315  14.266 -0.2028 -0.0401  0.0199
68781POPC   C2B17352  30.043   5.632  14.495 -0.3767 -0.0379 -0.0766
68781POPC   C3B17353  29.602   5.685  14.559 -0.0299  0.0001 -0.0248
68781POPC   C4B17354  29.195   5.633  14.739 -0.0685  0.1047 -0.0387
68782POPC   NC317355  21.231   2.157  13.983 -0.1061 -0.1712 -0.1103
68782POPC   PO417356  21.455   1.924  14.213  0.1729  0.4757 -0.2961
68782POPC   GL117357  21.673   2.185  14.396  0.0945 -0.3226  0.0202
68782POPC   GL217358  21.913   2.142  14.316 -0.2272  0.0117 -0.0674
68782POPC   C1A17359  21.584   2.248  14.836  0.0787 -0.2887 -0.1722
68782POPC   D2A17360  21.636   2.370  15.287  0.3189 -0.3151 -0.0830
68782POPC   C3A17361  21.972   2.324  15.620 -0.0090 -0.1094  0.0166
68782POPC   C4A17362  22.262   2.462  15.933  0.0521 -0.0965 -0.0618
68782POPC   C1B17363  22.079   2.221  14.688 -0.2432 -0.1686  0.0359
68782POPC   C2B17364  22.272   2.287  15.101  0.1849  0.0000 -0.5269
68782POPC   C3B17365  22.478   2.285  15.542  0.1775 -0.4209 -0.1549
68782POPC   C4B17366  22.885   2.322  15.810  0.0166  0.2744 -0.1893
68783POPC   NC317367  24.687  15.110   9.540 -0.0161 -0.3155  0.0743
68783POPC   PO417368  25.046  15.149   9.409  0.2484 -0.1642  0.1220
68783POPC   GL117369  25.202  15.551   9.222 -0.1000  0.1296 -0.0289
68783POPC   GL217370  25.371  15.393   9.058 -0.0071 -0.2905 -0.0292
68783POPC   C1A17371  25.187  15.719   8.762 -0.1679 -0.0970 -0.3786
68783POPC   D2A17372  25.199  15.756   8.337  0.0156 -0.1409 -0.0496
68783POPC   C3A17373  25.140  16.053   7.993 -0.2535  0.1281  0.0759
68783POPC   C4A17374  25.353  16.079   7.549  0.0834 -0.1856 -0.1094
68783POPC   C1B17375  25.419  15.293   8.583 -0.0406  0.1696  0.0811
68783POPC   C2B17376  25.287  15.256   8.133  0.1430 -0.3772 -0.0689
68783POPC   C3B17377  25.306  15.402   7.702 -0.0088 -0.1005  0.1031
68783POPC   C4B17378  25.332  15.596   7.239  0.4276  0.0267 -0.2672
68784POPC   NC317379  32.084   8.452   9.712  0.0025 -0.1272  0.1800
68784POPC   PO417380  32.442   8.347   9.565  0.1148 -0.2069  0.0505
68784POPC   GL117381  32.291   8.632   9.311 -0.1058 -0.1326  0.3380
68784POPC   GL217382  32.043   8.474   9.204  0.1117 -0.0558 -0.0174
68784POPC   C1A17383  32.338   8.619   8.826  0.0087  0.0147 -0.0279
68784POPC   D2A17384  32.301   8.780   8.397 -0.1307  0.1799  0.0164
68784POPC   C3A17385  32.371   8.661   7.947  0.1508  0.1395  0.1623
68784POPC   C4A17386  32.467   8.557   7.468  0.0063 -0.2559  0.0429
68784POPC   C1B17387  31.770   8.450   8.787  0.2112 -0.1171 -0.3255
68784POPC   C2B17388  31.486   8.290   8.422 -0.2108  0.2080  0.1352
68784POPC   C3B17389  31.132   8.277   8.105  0.0587  0.4837  0.2043
68784POPC   C4B17390  30.735   8.261   7.895 -0.1426 -0.1278  0.0673
68785POPC   NC317391  26.530   0.928  10.454  0.1698 -0.1565 -0.1198
68785POPC   PO417392  26.372   0.674  10.258 -0.2261 -0.0114  0.0433
68785POPC   GL117393  26.139   0.948  10.090 -0.0471  0.0045 -0.4594
68785POPC   GL217394  26.245   1.217  10.160 -0.3272 -0.0388 -0.0506
68785POPC   C1A17395  26.110   1.110   9.638  0.1224  0.1029 -0.1682
68785POPC   D2A17396  25.848   1.444   9.439 -0.1170 -0.1746 -0.3267
68785POPC   C3A17397  25.881   1.494   9.017 -0.2499 -0.0416 -0.1560
68785POPC   C4A17398  25.656   1.506   8.626 -0.0935 -0.0734 -0.0295
68785POPC   C1B17399  26.226   1.596   9.901  0.0114 -0.1758 -0.1361
68785POPC   C2B17400  26.276   1.986   9.596  0.0228 -0.2061  0.1045
68785POPC   C3B17401  26.214   2.399   9.366 -0.0058 -0.0131  0.0853
68785POPC   C4B17402  26.184   2.607   8.949 -0.1660 -0.0866 -0.1391
68786POPC   NC317403  29.683   1.432  14.522 -0.2525 -0.4143  0.0686
68786POPC   PO417404  30.044   1.506  14.616  0.3231  0.1136  0.3004
68786POPC   GL117405  29.708   1.600  14.960  0.1198  0.0659 -0.4496
68786POPC   GL217406  29.870   1.872  14.918 -0.2825 -0.0454 -0.1080
68786POPC   C1A17407  29.749   1.602  15.417  0.1523  0.0007  0.1697
68786POPC   D2A17408  29.746   1.749  15.830  0.1868 -0.0354  0.0715
68786POPC   C3A17409  30.077   1.963  16.122  0.1106 -0.3108 -0.0820
68786POPC   C4A17410  30.010   2.205  16.489  0.2114 -0.3510  0.2039
68786POPC   C1B17411  29.731   2.155  15.176  0.0246 -0.1532  0.3777
68786POPC   C2B17412  29.475   2.048  15.529  0.1258  0.0293 -0.3141
68786POPC   C3B17413  29.098   2.210  15.835 -0.0627  0.3762  0.0204
68786POPC   C4B17414  28.702   2.050  15.860  0.2505  0.0470 -0.1875
68787POPC   NC317415  23.287  16.603   9.414 -0.0289 -0.0975  0.0400
68787POPC   PO417416  23.498  16.270   9.365  0.1934  0.2407 -0.0500
68787POPC   GL117417  23.760  16.284   9.142  0.3938 -0.0208  0.2584
68787POPC   GL217418  23.753  16.521   9.001  0.0185  0.0636  0.4274
68787POPC   C1A17419  24.172  16.302   8.996 -0.1260  0.1976 -0.0598
68787POPC   D2A17420  24.386  16.355   8.579  0.2835  0.2399  0.1318
68787POPC   C3A17421  24.496  16.733   8.329 -0.3333  0.0960  0.0578
68787POPC   C4A17422  24.549  16.838   7.929 -0.0333  0.1276  0.2051
68787POPC   C1B17423  23.993  16.810   8.748  0.0352  0.1406  0.0184
68787POPC   C2B17424  23.985  17.160   8.418 -0.0515 -0.2189 -0.0231
68787POPC   C3B17425  23.900  17.541   8.152 -0.0464  0.1278 -0.0015
68787POPC   C4B17426  23.521  17.800   7.979 -0.0639  0.1631  0.1894
68788POPC   NC317427  17.299  15.150   8.047 -0.2379 -0.1551 -0.1136
68788POPC   PO417428  17.197  14.846   7.814  0.0059 -0.0807  0.1003
68788POPC   GL117429  17.198  15.005   7.477  0.0128  0.0411  0.0563
68788POPC   GL217430  17.039  15.282   7.491  0.1421 -0.2812  0.0248
68788POPC   C1A17431  16.862  15.068   7.106 -0.4430  0.2014 -0.0434
68788POPC   D2A17432  16.610  14.969   6.753  0.2974  0.2132  0.1553
68788POPC   C3A17433  16.331  14.602   6.599  0.4223 -0.2005  0.1015
68788POPC   C4A17434  16.088  14.302   6.388 -0.2539  0.2694  0.1819
68788POPC   C1B17435  17.098  15.606   7.199  0.0026  0.0311 -0.3741
68788POPC   C2B17436  17.091  15.839   6.798 -0.1983 -0.1248 -0.1093
68788POPC   C3B17437  16.818  15.771   6.426 -0.1475 -0.0380  0.0070
68788POPC   C4B17438  16.702  15.712   5.957  0.1226 -0.0608 -0.0728
68789POPC   NC317439  19.920   9.849   9.332 -0.1311 -0.1511 -0.0273
68789POPC   PO417440  19.754   9.560   9.080  0.0210  0.0949  0.3298
68789POPC   GL117441  19.814   9.370   8.697 -0.0235 -0.0794 -0.0126
68789POPC   GL217442  19.789   9.542   8.533  0.1893  0.0714 -0.1461
68789POPC   C1A17443  19.488   9.209   8.355 -0.0160 -0.0264  0.0181
68789POPC   D2A17444  19.414   9.133   7.928  0.1002 -0.0542  0.2110
68789POPC   C3A17445  19.736   9.401   7.771  0.2582  0.2034 -0.1242
68789POPC   C4A17446  19.811   9.650   7.411  0.0630 -0.1065  0.4062
68789POPC   C1B17447  19.985   9.648   8.135  0.0410 -0.2065 -0.2885
68789POPC   C2B17448  20.202   9.532   7.751  0.0021 -0.2482  0.0765
68789POPC   C3B17449  20.467   9.335   7.388 -0.0087  0.0156 -0.1521
68789POPC   C4B17450  20.862   9.283   7.151 -0.2662 -0.0830 -0.2140
68790POPC   NC317451   0.107   2.358   8.997  0.0371  0.1009  0.1364
68790POPC   PO417452  -0.262   2.400   9.156  0.0492  0.4506  0.2759
68790POPC   GL117453  -0.259   2.405   8.671  0.0716  0.0594 -0.2649
68790POPC   GL217454  -0.135   2.697   8.729  0.2034  0.1777  0.4062
68790POPC   C1A17455  -0.312   2.509   8.240 -0.1287 -0.0234 -0.1738
68790POPC   D2A17456  -0.360   2.372   7.799 -0.2114 -0.0544 -0.2563
68790POPC   C3A17457  -0.385   2.510   7.327 -0.1772  0.2594  0.1927
68790POPC   C4A17458  -0.578   2.253   6.960  0.0455 -0.1092 -0.1201
68790POPC   C1B17459  -0.060   3.010   8.431 -0.0131  0.0535  0.0204
68790POPC   C2B17460  -0.140   3.325   8.067  0.0457  0.0481 -0.3460
68790POPC   C3B17461  -0.163   3.499   7.702  0.1396 -0.2248  0.0053
68790POPC   C4B17462  -0.308   3.733   7.338  0.0387  0.2055  0.4417
68791POPC   NC317463  24.393  11.359   9.834  0.0196 -0.2125  0.2871
68791POPC   PO417464  24.119  11.222   9.582  0.2338  0.0237 -0.1233
68791POPC   GL117465  24.486  11.004   9.535 -0.3477 -0.2612  0.1499
68791POPC   GL217466  24.542  10.892   9.725  0.0195 -0.2652 -0.2476
68791POPC   C1A17467  24.561  10.922   9.068 -0.2497 -0.1012  0.4537
68791POPC   D2A17468  24.806  10.944   8.679  0.1527  0.2968 -0.0086
68791POPC   C3A17469  24.880  11.065   8.225  0.1150 -0.2032  0.1854
68791POPC   C4A17470  24.781  11.259   7.843 -0.1363  0.1081  0.2978
68791POPC   C1B17471  24.472  10.546   9.488 -0.2265 -0.0369  0.1304
68791POPC   C2B17472  24.538  10.250   9.072 -0.1498  0.0004  0.0722
68791POPC   C3B17473  24.591  10.110   8.652 -0.0535  0.0315  0.1665
68791POPC   C4B17474  24.597   9.760   8.330 -0.0561 -0.1470  0.1292
68792POPC   NC317475  28.144  15.573  15.169 -0.1329 -0.1502 -0.3237
68792POPC   PO417476  28.013  15.877  15.403  0.0758 -0.2814 -0.1868
68792POPC   GL117477  27.849  16.167  15.563 -0.3334  0.3017 -0.2108
68792POPC   GL217478  27.648  16.132  15.815  0.0524 -0.0399  0.0627
68792POPC   C1A17479  27.701  16.613  15.611 -0.1284  0.2694  0.0375
68792POPC   D2A17480  27.494  16.962  15.872  0.1097 -0.1256  0.1362
68792POPC   C3A17481  27.654  17.227  16.236 -0.3790  0.2062 -0.0618
68792POPC   C4A17482  28.045  17.429  16.499 -0.1027  0.2065 -0.2003
68792POPC   C1B17483  27.484  16.479  16.041  0.1552  0.1149  0.2676
68792POPC   C2B17484  27.503  16.805  16.361 -0.1010 -0.1473  0.0207
68792POPC   C3B17485  27.780  17.034  16.713 -0.3041  0.1324 -0.2031
68792POPC   C4B17486  28.070  17.229  16.979  0.0604  0.5723  0.3546
68793POPC   NC317487  16.817  14.700   7.503  0.0129 -0.0747  0.0108
68793POPC   PO417488  16.451  14.760   7.556  0.0006 -0.3788  0.1431
68793POPC   GL117489  16.401  14.766   7.205  0.0628 -0.2467 -0.1322
68793POPC   GL217490  16.271  14.944   7.088 -0.1090 -0.4180  0.1428
68793POPC   C1A17491  16.764  14.528   6.987 -0.1157  0.0385  0.0463
68793POPC   D2A17492  17.120  14.270   6.859 -0.0693  0.2783  0.1958
68793POPC   C3A17493  17.204  14.182   6.343  0.0242 -0.2647 -0.2149
68793POPC   C4A17494  17.470  14.380   6.005 -0.0694 -0.2829 -0.2957
68793POPC   C1B17495  16.142  15.205   6.807  0.1392  0.0081  0.1102
68793POPC   C2B17496  15.973  15.524   6.575 -0.0523 -0.2736  0.4408
68793POPC   C3B17497  15.898  15.822   6.246  0.0555  0.2853 -0.1654
68793POPC   C4B17498  15.797  16.107   5.874  0.6172  0.2362 -0.3998
68794POPC   NC317499  16.848   9.078   8.752 -0.1917  0.0612 -0.3875
68794POPC   PO417500  16.931   8.705   8.867  0.2286 -0.2580  0.0118
68794POPC   GL117501  16.811   8.646   8.509 -0.2765  0.3336  0.1200
68794POPC   GL217502  16.616   8.714   8.307  0.0732  0.1782 -0.0746
68794POPC   C1A17503  16.802   8.236   8.278 -0.1818 -0.3147 -0.2886
68794POPC   D2A17504  16.679   8.165   7.909 -0.3785  0.3485  0.1534
68794POPC   C3A17505  16.281   8.378   7.843 -0.0422  0.1324  0.1125
68794POPC   C4A17506  16.137   8.788   7.589 -0.1956 -0.1615 -0.1656
68794POPC   C1B17507  16.274   8.940   8.111 -0.1554  0.0583  0.2204
68794POPC   C2B17508  16.116   9.230   7.787  0.1517  0.3649  0.0616
68794POPC   C3B17509  15.965   9.436   7.360 -0.0470 -0.0040 -0.1465
68794POPC   C4B17510  15.709   9.785   7.438  0.3258 -0.0641  0.0467
68795POPC   NC317511  22.461  13.000   8.166  0.0861  0.0481  0.0160
68795POPC   PO417512  22.563  13.338   8.277  0.2579  0.0062  0.0032
68795POPC   GL117513  22.644  13.566   8.014  0.2368  0.3406 -0.1377
68795POPC   GL217514  22.469  13.548   7.776  0.1490  0.1771 -0.0909
68795POPC   C1A17515  22.986  13.458   7.708  0.1909  0.0961  0.1250
68795POPC   D2A17516  23.005  13.292   7.327 -0.3412  0.0157  0.3607
68795POPC   C3A17517  23.121  13.250   6.858  0.0618  0.2398 -0.0113
68795POPC   C4A17518  23.524  13.156   6.709  0.2399 -0.3063 -0.0649
68795POPC   C1B17519  22.647  13.696   7.426 -0.0954 -0.1791  0.0164
68795POPC   C2B17520  22.702  13.731   6.979  0.1062  0.1635 -0.1774
68795POPC   C3B17521  22.903  13.837   6.565  0.2625 -0.0025 -0.0974
68795POPC   C4B17522  22.757  14.265   6.464  0.3946 -0.1414  0.1590
68796POPC   NC317523  29.384  13.841   8.695 -0.2651 -0.0903  0.1609
68796POPC   PO417524  29.668  14.102   8.609  0.0771  0.0624  0.0612
68796POPC   GL117525  29.498  13.982   8.257 -0.2292 -0.1463 -0.3669
68796POPC   GL217526  29.695  14.155   8.106  0.1972 -0.0932 -0.0025
68796POPC   C1A17527  29.169  13.980   7.927 -0.0169 -0.2777  0.0518
68796POPC   D2A17528  29.156  14.002   7.475 -0.1492  0.0959 -0.2172
68796POPC   C3A17529  29.055  13.661   7.213 -0.0763  0.1108 -0.2224
68796POPC   C4A17530  28.896  13.363   6.872  0.2292 -0.2449  0.1038
68796POPC   C1B17531  29.652  13.898   7.760 -0.3630  0.1663  0.0770
68796POPC   C2B17532  29.555  13.457   7.499  0.0661 -0.3539 -0.3252
68796POPC   C3B17533  29.330  13.237   7.112  0.3243  0.1366  0.0052
68796POPC   C4B17534  29.334  13.060   6.687 -0.0666  0.0801 -0.0535
68797POPC   NC317535  18.669  13.701   8.267 -0.1652 -0.0644  0.1706
68797POPC   PO417536  18.508  13.349   8.128  0.1145 -0.1146 -0.5760
68797POPC   GL117537  18.497  13.269   7.757  0.0548 -0.2443 -0.1167
68797POPC   GL217538  18.558  13.489   7.542 -0.2078  0.2234 -0.0870
68797POPC   C1A17539  18.641  13.028   7.396 -0.0157  0.1198  0.0392
68797POPC   D2A17540  18.554  12.827   6.933 -0.1658  0.0009 -0.1843
68797POPC   C3A17541  18.392  12.914   6.545  0.1932  0.0131  0.0171
68797POPC   C4A17542  18.413  13.320   6.246 -0.0516 -0.0110  0.2283
68797POPC   C1B17543  18.963  13.420   7.184  0.0992  0.1485 -0.3778
68797POPC   C2B17544  19.196  13.153   6.916  0.1084 -0.1378  0.2224
68797POPC   C3B17545  19.367  13.025   6.529  0.1205  0.2662  0.1266
68797POPC   C4B17546  19.482  12.952   6.086 -0.2080 -0.0679  0.2444
68798POPC   NC317547  21.647   3.128   9.966  0.1461  0.0314 -0.2318
68798POPC   PO417548  21.803   2.839  10.192  0.0069  0.1691 -0.1666
68798POPC   GL117549  22.170   3.033  10.159 -0.2015 -0.1016 -0.3005
68798POPC   GL217550  22.167   3.153   9.832  0.1074  0.1092  0.2126
68798POPC   C1A17551  22.579   2.934   9.961 -0.0954  0.0406  0.0488
68798POPC   D2A17552  22.907   3.207   9.823  0.0886 -0.2627  0.3708
68798POPC   C3A17553  22.976   3.272   9.399 -0.1314  0.3173 -0.0716
68798POPC   C4A17554  23.105   3.383   8.951  0.0208  0.0976  0.2388
68798POPC   C1B17555  22.434   3.250   9.477 -0.1498  0.0059  0.1050
68798POPC   C2B17556  22.637   3.509   9.163  0.0826  0.1607  0.0913
68798POPC   C3B17557  22.839   3.784   8.841 -0.1071  0.1245  0.0582
68798POPC   C4B17558  22.904   4.081   8.491 -0.0769 -0.2010 -0.4200
68799POPC   NC317559  21.927   8.519  12.687 -0.0913  0.2541  0.0913
68799POPC   PO417560  22.023   8.256  12.959 -0.1075  0.2371 -0.1354
68799POPC   GL117561  22.169   8.063  12.644 -0.1364  0.0164  0.3655
68799POPC   GL217562  22.004   8.034  12.385 -0.1420  0.0306 -0.1714
68799POPC   C1A17563  22.565   8.035  12.372 -0.3758  0.2144  0.2682
68799POPC   D2A17564  23.037   8.039  12.085 -0.2138  0.0802  0.1366
68799POPC   C3A17565  23.292   7.721  12.279  0.1816 -0.0445  0.0583
68799POPC   C4A17566  23.618   7.540  12.048 -0.5305  0.3266 -0.0046
68799POPC   C1B17567  22.180   8.016  11.957 -0.0085 -0.2877  0.0889
68799POPC   C2B17568  22.486   7.710  11.747  0.0936  0.1452  0.5670
68799POPC   C3B17569  22.676   7.539  11.371 -0.0674  0.2592  0.0250
68799POPC   C4B17570  23.078   7.528  11.236  0.1334  0.2149  0.0550
68800POPC   NC317571  17.127   8.256   8.737  0.0072 -0.0772 -0.0879
68800POPC   PO417572  16.831   8.255   8.988  0.0914  0.2997 -0.1321
68800POPC   GL117573  16.637   8.070   8.649  0.0093 -0.0039  0.2190
68800POPC   GL217574  16.796   7.875   8.669  0.0108 -0.0383 -0.0062
68800POPC   C1A17575  16.270   8.212   8.441  0.0070 -0.4766 -0.0920
68800POPC   D2A17576  16.102   7.964   8.078 -0.0077  0.2906  0.0780
68800POPC   C3A17577  16.295   7.930   7.635 -0.2846 -0.3700 -0.1832
68800POPC   C4A17578  16.618   8.240   7.377  0.2327  0.3426 -0.5474
68800POPC   C1B17579  16.481   7.802   8.323 -0.0515  0.2293 -0.2764
68800POPC   C2B17580  16.282   7.451   8.106  0.1390  0.1088 -0.0413
68800POPC   C3B17581  16.085   7.177   7.838  0.1404  0.3488 -0.0972
68800POPC   C4B17582  15.962   6.949   7.416  0.2441  0.2187  0.1595
68801POPC   NC317583  20.905   4.826  10.028  0.0599 -0.0793  0.1460
68801POPC   PO417584  20.933   5.097   9.730  0.1424  0.0152  0.2288
68801POPC   GL117585  21.077   5.471   9.677 -0.1426  0.4183 -0.1954
68801POPC   GL217586  21.233   5.589   9.948  0.1813 -0.1991 -0.2215
68801POPC   C1A17587  21.315   5.775   9.434 -0.0931  0.4490  0.0830
68801POPC   D2A17588  21.431   6.022   9.035  0.1351 -0.0956  0.1768
68801POPC   C3A17589  21.879   5.914   8.954  0.2096 -0.2216  0.1834
68801POPC   C4A17590  22.297   5.777   8.825 -0.0232 -0.0980 -0.2204
68801POPC   C1B17591  21.646   5.583   9.780 -0.0122 -0.0428 -0.0776
68801POPC   C2B17592  21.829   5.644   9.336  0.2614 -0.0028  0.1812
68801POPC   C3B17593  22.260   5.529   9.285  0.0640 -0.3423  0.0263
68801POPC   C4B17594  22.701   5.488   9.438 -0.1781 -0.1826 -0.2069
68802POPC   NC317595  31.196   3.521   9.701 -0.0853  0.1334  0.2863
68802POPC   PO417596  30.897   3.438   9.942 -0.3281 -0.1639  0.0262
68802POPC   GL117597  30.516   3.503   9.751 -0.0209 -0.2567 -0.0415
68802POPC   GL217598  30.608   3.581   9.471  0.2070 -0.0206 -0.0037
68802POPC   C1A17599  30.149   3.626   9.447  0.1656  0.0269  0.2786
68802POPC   D2A17600  29.949   3.977   9.243 -0.0834 -0.2738 -0.1953
68802POPC   C3A17601  29.869   4.229   8.863  0.4730  0.1520 -0.0494
68802POPC   C4A17602  29.976   4.555   8.509 -0.1759  0.1172  0.2521
68802POPC   C1B17603  30.436   3.392   9.112  0.2622  0.0288 -0.0440
68802POPC   C2B17604  30.404   3.427   8.668  0.0875  0.3342  0.0484
68802POPC   C3B17605  30.232   3.643   8.363 -0.1891  0.0067  0.1275
68802POPC   C4B17606  30.094   4.100   8.348 -0.2376  0.3106 -0.1675
68803POPC   NC317607  31.535   9.050  10.121  0.2595 -0.3048  0.1352
68803POPC   PO417608  31.257   9.062  10.448 -0.3842 -0.2505 -0.0964
68803POPC   GL117609  31.048   8.903  10.196  0.0212  0.1823  0.1501
68803POPC   GL217610  31.137   8.733   9.986  0.0962 -0.0139  0.0973
68803POPC   C1A17611  30.625   8.924   9.976 -0.0341 -0.0720 -0.1851
68803POPC   D2A17612  30.276   8.945   9.672  0.0647 -0.0200  0.2568
68803POPC   C3A17613  29.850   9.124   9.681  0.2076 -0.1641  0.2318
68803POPC   C4A17614  29.748   9.582   9.590  0.1832  0.2425 -0.2060
68803POPC   C1B17615  30.812   8.546   9.697  0.1934 -0.3607  0.1428
68803POPC   C2B17616  30.386   8.554   9.456  0.2569  0.2251 -0.1260
68803POPC   C3B17617  30.072   8.412   9.122 -0.2020  0.0596  0.4158
68803POPC   C4B17618  29.699   8.121   8.834  0.2933 -0.0923  0.1977
68804POPC   NC317619  17.292   3.266   9.360 -0.0854  0.0994  0.1291
68804POPC   PO417620  17.160   3.090   9.005 -0.1391  0.1875  0.1169
68804POPC   GL117621  17.249   3.141   8.604 -0.3708 -0.1660 -0.2102
68804POPC   GL217622  17.125   3.376   8.434 -0.2371  0.1276 -0.2327
68804POPC   C1A17623  17.629   3.320   8.378  0.2114  0.0544 -0.2283
68804POPC   D2A17624  17.727   3.483   7.923  0.0425  0.3716 -0.1686
68804POPC   C3A17625  17.759   3.360   7.459 -0.0749  0.0604  0.2269
68804POPC   C4A17626  17.709   3.332   7.039 -0.3980 -0.0528  0.1825
68804POPC   C1B17627  17.289   3.282   8.029 -0.0432  0.1421  0.1033
68804POPC   C2B17628  17.254   3.409   7.527  0.4569  0.0317 -0.2590
68804POPC   C3B17629  17.125   3.698   7.233  0.1432 -0.2363 -0.1626
68804POPC   C4B17630  17.177   4.201   7.254  0.1026  0.0292 -0.0065
68805POPC   NC317631  27.963  16.657   9.224 -0.2279 -0.1611 -0.0092
68805POPC   PO417632  27.754  16.625   9.539  0.0764  0.0203 -0.0453
68805POPC   GL117633  27.676  17.031   9.260  0.4160  0.1797  0.3923
68805POPC   GL217634  27.523  16.869   9.075 -0.1589 -0.3388 -0.2563
68805POPC   C1A17635  27.923  17.233   8.880  0.1667  0.0831 -0.3626
68805POPC   D2A17636  27.837  17.553   8.602  0.2423 -0.4034 -0.1639
68805POPC   C3A17637  28.088  17.608   8.262 -0.3383  0.0407  0.1804
68805POPC   C4A17638  28.183  17.814   7.879 -0.0795 -0.0516  0.0736
68805POPC   C1B17639  27.361  17.154   8.736 -0.1101  0.0179 -0.0159
68805POPC   C2B17640  27.265  17.561   8.512 -0.1855  0.2327  0.0125
68805POPC   C3B17641  27.115  17.622   8.047 -0.0288 -0.1450 -0.3957
68805POPC   C4B17642  27.029  17.959   7.804  0.3502  0.0051  0.1887
68806POPC   NC317643  21.488   3.894  13.541 -0.0573  0.3085 -0.1824
68806POPC   PO417644  21.318   4.042  13.859  0.2608  0.0817 -0.0342
68806POPC   GL117645  21.522   4.187  14.042 -0.0337 -0.3133 -0.0020
68806POPC   GL217646  21.382   4.392  14.157  0.2336 -0.0725 -0.3321
68806POPC   C1A17647  21.984   4.204  14.024  0.0258 -0.0261  0.1415
68806POPC   D2A17648  22.446   4.350  14.157  0.1264 -0.3609  0.0629
68806POPC   C3A17649  22.680   4.004  14.496  0.1853 -0.4076 -0.0828
68806POPC   C4A17650  22.972   3.900  14.866 -0.1154  0.0988  0.1134
68806POPC   C1B17651  21.757   4.606  14.278 -0.0348 -0.0083 -0.2221
68806POPC   C2B17652  22.175   4.835  14.376 -0.1914 -0.3064 -0.1475
68806POPC   C3B17653  22.550   4.937  14.085 -0.2168 -0.2290 -0.0472
68806POPC   C4B17654  22.938   5.126  14.014 -0.0584 -0.0524 -0.1597
68807POPC   NC317655  30.325   3.693  14.514 -0.1885 -0.3808  0.0861
68807POPC   PO417656  30.478   3.835  14.161 -0.2506  0.0572  0.0623
68807POPC   GL117657  30.397   4.167  14.414  0.1810 -0.2230  0.0844
68807POPC   GL217658  30.283   4.444  14.252  0.1742  0.4905  0.2713
68807POPC   C1A17659  29.964   4.312  14.604 -0.3210  0.2057  0.2664
68807POPC   D2A17660  29.506   4.264  14.455  0.0520  0.0541 -0.1073
68807POPC   C3A17661  29.299   3.908  14.222 -0.1492  0.1289  0.0068
68807POPC   C4A17662  28.930   3.665  14.386 -0.5080 -0.2227  0.1461
68807POPC   C1B17663  29.840   4.585  14.191  0.1254  0.2207 -0.1415
68807POPC   C2B17664  29.468   4.783  14.068  0.2665  0.1519 -0.1655
68807POPC   C3B17665  29.328   5.114  13.812  0.0578 -0.2785  0.2060
68807POPC   C4B17666  29.248   5.600  13.816  0.2862 -0.0568 -0.0394
68808POPC   NC317667  20.823   8.709  15.444 -0.0680  0.1157 -0.1217
68808POPC   PO417668  20.923   8.779  15.829 -0.0015  0.1438  0.0542
68808POPC   GL117669  21.105   8.551  16.106 -0.1872 -0.1473 -0.1596
68808POPC   GL217670  21.369   8.405  16.159 -0.0502 -0.0951  0.0155
68808POPC   C1A17671  20.956   8.221  16.457 -0.0187 -0.3245 -0.0723
68808POPC   D2A17672  20.965   7.979  16.840 -0.1628  0.2254  0.2716
68808POPC   C3A17673  21.334   7.678  16.867 -0.1678  0.1080  0.2129
68808POPC   C4A17674  21.731   7.612  17.082  0.1644  0.1030 -0.0240
68808POPC   C1B17675  21.401   8.269  16.663  0.1669  0.2301  0.0916
68808POPC   C2B17676  21.689   8.094  16.965 -0.1106  0.0986 -0.0934
68808POPC   C3B17677  21.913   8.076  17.381 -0.1212  0.1009  0.0816
68808POPC   C4B17678  22.165   7.667  17.433 -0.2140  0.0996  0.4306
68809POPC   NC317679  30.094  12.714   9.014  0.1637 -0.0040  0.4059
68809POPC   PO417680  30.237  12.362   8.944 -0.0218  0.0555  0.0810
68809POPC   GL117681  29.861  12.269   8.758  0.2876  0.3338  0.2409
68809POPC   GL217682  29.783  12.550   8.711 -0.0839 -0.2039  0.0775
68809POPC   C1A17683  29.903  12.233   8.254 -0.0607  0.0313  0.2176
68809POPC   D2A17684  29.575  12.162   7.894  0.0565  0.0117 -0.1159
68809POPC   C3A17685  29.609  12.119   7.409  0.1581  0.2842  0.1436
68809POPC   C4A17686  29.683  12.270   7.022  0.0516 -0.1361 -0.3062
68809POPC   C1B17687  29.874  12.697   8.287  0.2927 -0.1060 -0.4001
68809POPC   C2B17688  29.746  12.622   7.850  0.1637  0.1175  0.2432
68809POPC   C3B17689  29.394  12.523   7.574  0.1490 -0.0553  0.1409
68809POPC   C4B17690  29.183  12.355   7.199  0.1082  0.3902 -0.2845
68810POPC   NC317691  25.703  15.737   9.377  0.0111 -0.0725 -0.1552
68810POPC   PO417692  25.875  15.507   9.181 -0.0973  0.3859  0.0019
68810POPC   GL117693  25.759  15.656   8.799  0.0350 -0.2671 -0.1767
68810POPC   GL217694  25.589  15.891   8.784 -0.3677 -0.0772 -0.1431
68810POPC   C1A17695  25.712  15.622   8.348 -0.1334 -0.1590  0.1060
68810POPC   D2A17696  25.487  15.741   7.962 -0.0055  0.1463 -0.1919
68810POPC   C3A17697  25.857  15.727   7.685  0.1421  0.0178  0.0325
68810POPC   C4A17698  26.265  15.866   7.498  0.1571  0.3692  0.0780
68810POPC   C1B17699  25.634  16.091   8.340 -0.0234 -0.0314 -0.0150
68810POPC   C2B17700  25.535  16.346   7.969  0.0129  0.0516  0.2089
68810POPC   C3B17701  25.448  16.579   7.544 -0.1029 -0.1152  0.3700
68810POPC   C4B17702  25.252  16.420   7.162 -0.0837  0.1622  0.1269
68811POPC   NC317703  24.333  14.021   9.257  0.1068 -0.2540  0.1081
68811POPC   PO417704  24.023  13.983   9.127  0.0054 -0.0680  0.3837
68811POPC   GL117705  24.158  13.935   8.710 -0.1401 -0.1602  0.4344
68811POPC   GL217706  23.861  13.850   8.615 -0.2486  0.2152 -0.1140
68811POPC   C1A17707  24.347  14.103   8.292  0.2581 -0.0462  0.1024
68811POPC   D2A17708  24.390  14.124   7.828  0.0573  0.1585  0.0661
68811POPC   C3A17709  24.205  14.442   7.464  0.1232  0.1872 -0.3947
68811POPC   C4A17710  23.911  14.542   7.120  0.0188 -0.1270  0.1007
68811POPC   C1B17711  23.816  14.258   8.335  0.1304  0.2401  0.0410
68811POPC   C2B17712  24.024  14.432   7.930  0.1987  0.0489 -0.0037
68811POPC   C3B17713  23.944  14.837   7.740  0.0133 -0.0827  0.0065
68811POPC   C4B17714  24.118  14.974   7.308  0.1235  0.2586 -0.1825
68812POPC   NC317715  32.100   3.497   9.044 -0.1321 -0.0094 -0.1396
68812POPC   PO417716  31.740   3.553   9.158 -0.1948  0.1918  0.0932
68812POPC   GL117717  31.564   3.825   8.990 -0.0112  0.0589 -0.0671
68812POPC   GL217718  31.679   3.758   8.731 -0.2875 -0.1227  0.2614
68812POPC   C1A17719  31.187   4.074   8.904  0.1988  0.0013  0.0237
68812POPC   D2A17720  30.772   4.244   8.871  0.0836  0.0122 -0.2401
68812POPC   C3A17721  30.536   4.364   8.526 -0.0008  0.0606 -0.0850
68812POPC   C4A17722  30.553   4.135   8.119  0.0973 -0.0145  0.0304
68812POPC   C1B17723  31.881   3.951   8.338 -0.1456 -0.3196 -0.0876
68812POPC   C2B17724  31.853   3.825   7.866 -0.1168  0.1413 -0.0996
68812POPC   C3B17725  31.887   3.704   7.443  0.2369  0.0519  0.0100
68812POPC   C4B17726  31.716   3.424   7.193  0.0317  0.1585  0.2564
68813POPC   NC317727  31.662   7.121  10.539 -0.0007  0.0900  0.0541
68813POPC   PO417728  31.405   7.154  10.818 -0.1967 -0.1853  0.1607
68813POPC   GL117729  31.255   7.384  10.479 -0.2033 -0.3040  0.2906
68813POPC   GL217730  30.990   7.207  10.437 -0.0342 -0.2270  0.1914
68813POPC   C1A17731  31.190   7.356  10.017  0.0040 -0.1876  0.2786
68813POPC   D2A17732  31.216   7.546   9.664 -0.1595 -0.0284 -0.0201
68813POPC   C3A17733  31.066   7.410   9.247  0.2255  0.0226  0.0195
68813POPC   C4A17734  31.019   7.077   8.931  0.0267 -0.1009  0.3152
68813POPC   C1B17735  30.656   7.140  10.085 -0.0275 -0.1127  0.0530
68813POPC   C2B17736  30.327   7.209   9.794 -0.1478 -0.1483 -0.1332
68813POPC   C3B17737  29.935   7.070   9.638 -0.0218  0.2973  0.0044
68813POPC   C4B17738  29.716   6.919   9.233  0.3338 -0.0426  0.0146
68814POPC   NC317739  29.329  14.786   9.080 -0.0043  0.1710 -0.1996
68814POPC   PO417740  29.086  14.798   8.789 -0.0203  0.1662  0.0506
68814POPC   GL117741  29.027  14.765   8.369  0.2287  0.0202  0.2416
68814POPC   GL217742  28.734  14.632   8.343 -0.1185  0.0787  0.1239
68814POPC   C1A17743  28.878  14.894   7.910  0.0642  0.0986 -0.1683
68814POPC   D2A17744  29.060  14.912   7.533  0.3876 -0.0195 -0.0336
68814POPC   C3A17745  29.083  14.637   7.235  0.2280  0.1896  0.3365
68814POPC   C4A17746  28.969  14.231   7.100  0.0504  0.3075 -0.1862
68814POPC   C1B17747  28.470  14.462   7.968 -0.1081 -0.1303  0.0261
68814POPC   C2B17748  28.174  14.432   7.653 -0.2050  0.2092  0.2828
68814POPC   C3B17749  27.712  14.455   7.536  0.0959  0.1188  0.0493
68814POPC   C4B17750  27.447  14.575   7.169 -0.1824  0.1505  0.0194
68815POPC   NC317751  19.483   1.687   8.912 -0.0851 -0.0433 -0.1765
68815POPC   PO417752  19.687   1.378   8.945  0.1589 -0.1460  0.0833
68815POPC   GL117753  19.680   1.208   8.613 -0.0279 -0.0618  0.0246
68815POPC   GL217754  19.384   1.159   8.558 -0.3864 -0.0265 -0.0285
68815POPC   C1A17755  19.778   1.121   8.130 -0.0817  0.2374 -0.2049
68815POPC   D2A17756  19.641   1.000   7.660 -0.0012 -0.1533  0.0701
68815POPC   C3A17757  19.658   0.765   7.286  0.1033  0.3656  0.3381
68815POPC   C4A17758  19.611   0.734   6.830 -0.0658  0.3220  0.0387
68815POPC   C1B17759  19.330   1.466   8.249 -0.1556  0.0542  0.0532
68815POPC   C2B17760  19.597   1.517   7.849 -0.0341 -0.0137 -0.0670
68815POPC   C3B17761  19.767   1.483   7.392 -0.1228  0.2167  0.0875
68815POPC   C4B17762  19.891   1.195   7.053  0.2889 -0.0047 -0.1017
68816POPC   NC317763  24.096   0.807  10.226  0.0066  0.1060  0.0139
68816POPC   PO417764  23.892   0.638   9.970  0.0834  0.1469 -0.0927
68816POPC   GL117765  24.194   0.943   9.743 -0.0899  0.2396  0.0116
68816POPC   GL217766  24.429   1.077   9.863 -0.2031  0.1277  0.0450
68816POPC   C1A17767  24.101   1.310   9.495  0.2125 -0.1301 -0.0014
68816POPC   D2A17768  24.092   1.754   9.315  0.0957 -0.1895 -0.0529
68816POPC   C3A17769  24.109   1.831   8.845  0.0141  0.2871 -0.0569
68816POPC   C4A17770  24.252   2.065   8.514  0.3132  0.1481  0.0308
68816POPC   C1B17771  24.623   1.492  10.041  0.0567  0.2313 -0.0406
68816POPC   C2B17772  24.796   1.908  10.033  0.4541  0.2421 -0.3067
68816POPC   C3B17773  24.782   2.341   9.852  0.2086 -0.0107 -0.2890
68816POPC   C4B17774  24.921   2.649   9.574 -0.2896  0.2386  0.0680
68817POPC   NC317775  18.254   3.429   9.160  0.1814  0.0007  0.2660
68817POPC   PO417776  18.149   3.711   8.941 -0.1095  0.2662  0.1228
68817POPC   GL117777  18.518   3.545   8.714  0.3023  0.2158  0.2694
68817POPC   GL217778  18.467   3.709   8.492 -0.2211  0.0430 -0.0404
68817POPC   C1A17779  18.809   3.385   8.348  0.0743  0.0205 -0.0372
68817POPC   D2A17780  18.848   3.513   7.894 -0.0393  0.3344 -0.2072
68817POPC   C3A17781  18.886   3.880   7.597  0.0438  0.1637 -0.1557
68817POPC   C4A17782  18.653   4.105   7.249  0.0325  0.0181 -0.0456
68817POPC   C1B17783  18.541   3.874   8.039  0.1760  0.0797  0.0578
68817POPC   C2B17784  18.407   3.830   7.563 -0.5337 -0.3795  0.2544
68817POPC   C3B17785  18.086   3.810   7.232  0.1112  0.1772  0.0832
68817POPC   C4B17786  18.057   3.646   6.792  0.1133  0.2833  0.0587
68818POPC   NC317787  28.555   1.948   9.665  0.3201  0.3396  0.0152
68818POPC   PO417788  28.650   1.681   9.386 -0.1573  0.0965 -0.2063
68818POPC   GL117789  28.537   2.062   9.198 -0.1352 -0.2325 -0.0191
68818POPC   GL217790  28.402   2.284   9.353  0.0046  0.1684 -0.1212
68818POPC   C1A17791  28.771   2.325   8.879 -0.1832 -0.1767 -0.0247
68818POPC   D2A17792  28.928   2.418   8.467 -0.1101 -0.0547 -0.1092
68818POPC   C3A17793  28.602   2.689   8.308 -0.1818  0.1844 -0.0481
68818POPC   C4A17794  28.171   2.907   8.343 -0.0442  0.0875 -0.3642
68818POPC   C1B17795  28.525   2.666   9.275 -0.4442  0.2149 -0.1634
68818POPC   C2B17796  28.477   3.123   9.415 -0.0547  0.0702  0.0749
68818POPC   C3B17797  28.116   3.376   9.434  0.0262 -0.1251  0.2865
68818POPC   C4B17798  27.840   3.629   9.122  0.0583 -0.2432 -0.2793
68819POPC   NC317799  21.432   4.160  13.091 -0.1556 -0.1243 -0.1945
68819POPC   PO417800  21.221   4.280  13.435 -0.0307  0.2358 -0.1723
68819POPC   GL117801  21.546   4.351  13.612 -0.3623  0.4737 -0.2881
68819POPC   GL217802  21.681   4.567  13.806 -0.0001 -0.0293 -0.0877
68819POPC   C1A17803  21.789   4.609  13.314 -0.0203 -0.1412  0.0684
68819POPC   D2A17804  21.954   5.016  13.158 -0.1220 -0.1949 -0.1774
68819POPC   C3A17805  22.089   5.275  12.867  0.0452 -0.0315  0.2934
68819POPC   C4A17806  22.472   5.366  12.624  0.0648  0.0521  0.0256
68819POPC   C1B17807  22.085   4.759  13.784  0.2584 -0.1714 -0.0260
68819POPC   C2B17808  22.483   4.751  13.595 -0.2702  0.2135 -0.0417
68819POPC   C3B17809  22.916   4.615  13.721  0.0442  0.0088 -0.1198
68819POPC   C4B17810  23.028   4.594  14.170  0.2025  0.2038 -0.0440
68820POPC   NC317811  21.903  15.422   8.793  0.1676 -0.1639 -0.1899
68820POPC   PO417812  21.731  15.764   8.689 -0.4045  0.1450 -0.1383
68820POPC   GL117813  21.911  16.029   8.373 -0.4750 -0.1466  0.1263
68820POPC   GL217814  21.581  16.078   8.322 -0.2101  0.1100  0.1833
68820POPC   C1A17815  22.164  16.335   8.176  0.1510 -0.1690  0.0490
68820POPC   D2A17816  22.087  16.514   7.740  0.2934 -0.1225 -0.0002
68820POPC   C3A17817  22.190  16.310   7.347 -0.5384  0.0122 -0.1732
68820POPC   C4A17818  22.343  16.292   6.873  0.3124  0.0963 -0.2071
68820POPC   C1B17819  21.795  16.077   7.915 -0.2802 -0.3296 -0.0460
68820POPC   C2B17820  21.708  16.303   7.507  0.1418 -0.1150 -0.1741
68820POPC   C3B17821  21.639  16.731   7.276  0.0641 -0.0183  0.0048
68820POPC   C4B17822  21.317  17.028   7.410  0.1188 -0.1159  0.1001
68821POPC   NC317823  26.699   0.997  11.518  0.0009  0.0946 -0.3137
68821POPC   PO417824  26.427   1.276  11.446 -0.2346  0.0696  0.0973
68821POPC   GL117825  26.570   1.568  11.328  0.0186 -0.2223 -0.0297
68821POPC   GL217826  26.731   1.719  11.122  0.1779  0.3492  0.2121
68821POPC   C1A17827  26.440   1.986  11.520  0.0175 -0.0465 -0.3990
68821POPC   D2A17828  26.431   2.473  11.587  0.3343 -0.0118  0.0988
68821POPC   C3A17829  26.195   2.886  11.634 -0.0823  0.3795 -0.4528
68821POPC   C4A17830  26.250   3.283  11.862 -0.1630 -0.1857  0.1023
68821POPC   C1B17831  26.403   1.868  10.769 -0.3793  0.1583 -0.0826
68821POPC   C2B17832  25.959   2.098  10.629 -0.0766 -0.2441 -0.2793
68821POPC   C3B17833  25.655   2.271  10.338  0.2581  0.0506 -0.0061
68821POPC   C4B17834  25.684   2.742  10.130  0.0708 -0.2342  0.2785
68822POPC   NC317835  31.595   3.751  14.603  0.0187 -0.1348  0.5373
68822POPC   PO417836  31.334   3.434  14.595 -0.1228  0.0788 -0.0229
68822POPC   GL117837  31.251   3.493  15.060 -0.0427 -0.2871  0.2088
68822POPC   GL217838  31.193   3.810  15.005 -0.2581  0.1175  0.0486
68822POPC   C1A17839  31.174   3.424  15.492 -0.0730  0.1634 -0.1085
68822POPC   D2A17840  31.162   3.257  15.937  0.2535  0.2792 -0.0995
68822POPC   C3A17841  31.471   3.405  16.240 -0.1057  0.2483  0.1079
68822POPC   C4A17842  31.824   3.607  16.216 -0.0005 -0.0990  0.0576
68822POPC   C1B17843  31.010   3.998  15.406  0.3043  0.4045 -0.2013
68822POPC   C2B17844  30.703   3.879  15.823 -0.0364 -0.0314  0.3467
68822POPC   C3B17845  30.461   3.863  16.239  0.0835  0.0755  0.0216
68822POPC   C4B17846  30.326   4.087  16.651 -0.2519 -0.0886 -0.2037
68823POPC   NC317847  21.520   7.937  12.676 -0.0213 -0.2342 -0.1286
68823POPC   PO417848  21.765   7.844  13.021  0.2463 -0.2432  0.1029
68823POPC   GL117849  22.089   7.574  13.044 -0.2342 -0.1893 -0.0388
68823POPC   GL217850  22.236   7.788  13.190 -0.1385  0.2695 -0.1351
68823POPC   C1A17851  22.499   7.585  12.791  0.1769  0.1006 -0.1174
68823POPC   D2A17852  22.820   7.279  12.598  0.1266 -0.1440  0.0736
68823POPC   C3A17853  23.032   6.901  12.775 -0.0615 -0.1052  0.1820
68823POPC   C4A17854  23.455   6.894  12.977  0.1161  0.1148  0.0085
68823POPC   C1B17855  22.514   7.458  13.362 -0.1848 -0.1597  0.0381
68823POPC   C2B17856  22.740   7.049  13.457 -0.1206  0.1146  0.0362
68823POPC   C3B17857  23.144   6.882  13.541  0.0140 -0.1229 -0.0143
68823POPC   C4B17858  23.507   6.619  13.404 -0.1220  0.0075  0.2514
68824POPC   NC317859  15.962   4.853  15.440  0.2052 -0.0042  0.0826
68824POPC   PO417860  16.112   4.519  15.326 -0.0484  0.2466  0.3664
68824POPC   GL117861  15.858   4.414  15.712  0.3710 -0.0194  0.4002
68824POPC   GL217862  16.031   4.402  15.926  0.0470 -0.1315 -0.0667
68824POPC   C1A17863  15.747   4.790  15.994  0.1943 -0.2335 -0.2424
68824POPC   D2A17864  15.757   5.128  16.398  0.0771  0.2531 -0.0986
68824POPC   C3A17865  15.856   5.230  16.856 -0.0108 -0.0039  0.0109
68824POPC   C4A17866  15.980   5.335  17.278 -0.1944  0.0382 -0.2836
68824POPC   C1B17867  16.288   4.300  16.276 -0.0854 -0.1338  0.0093
68824POPC   C2B17868  16.191   4.172  16.703 -0.1279 -0.0492 -0.2161
68824POPC   C3B17869  16.072   4.078  17.166 -0.2259 -0.0689 -0.0817
68824POPC   C4B17870  15.954   4.188  17.614  0.1244 -0.0853  0.0540
68825POPC   NC317871  31.972   5.567  15.307 -0.1712 -0.2336  0.4694
68825POPC   PO417872  31.835   5.504  14.912 -0.0517 -0.3171  0.1751
68825POPC   GL117873  31.562   5.492  15.211 -0.0718 -0.2044  0.0629
68825POPC   GL217874  31.268   5.494  15.106  0.0535 -0.1944  0.0245
68825POPC   C1A17875  31.453   5.819  15.513  0.0531 -0.0852 -0.1972
68825POPC   D2A17876  31.173   6.093  15.749  0.0113 -0.1354 -0.1215
68825POPC   C3A17877  30.709   6.034  15.701  0.0655  0.1137 -0.3848
68825POPC   C4A17878  30.333   6.084  16.063  0.3047  0.1700  0.0451
68825POPC   C1B17879  30.972   5.633  15.418  0.1502 -0.1344  0.0617
68825POPC   C2B17880  30.770   5.544  15.773  0.3228  0.1277 -0.0211
68825POPC   C3B17881  30.582   5.681  16.117  0.0549  0.2094 -0.0023
68825POPC   C4B17882  30.553   5.769  16.564  0.0648  0.0221  0.2587
68826POPC   NC317883  22.978   9.661  13.214 -0.1293  0.0547  0.1589
68826POPC   PO417884  22.838   9.625  12.864 -0.0646  0.0748  0.2041
68826POPC   GL117885  23.148   9.370  12.818 -0.2436 -0.1533 -0.2208
68826POPC   GL217886  22.967   9.232  12.605  0.1590 -0.0642  0.3678
68826POPC   C1A17887  23.542   9.161  13.002 -0.1016 -0.0189 -0.0341
68826POPC   D2A17888  23.925   8.984  12.850 -0.0600  0.0442 -0.0477
68826POPC   C3A17889  24.311   9.099  13.068  0.1391 -0.3412  0.1001
68826POPC   C4A17890  24.659   9.314  13.252 -0.3381 -0.0089  0.3979
68826POPC   C1B17891  23.164   8.815  12.695  0.0016 -0.0079 -0.0643
68826POPC   C2B17892  23.399   8.466  12.954 -0.0131  0.0354  0.0696
68826POPC   C3B17893  23.853   8.371  13.042  0.0701 -0.1443  0.0117
68826POPC   C4B17894  24.306   8.240  13.094  0.1194  0.1287  0.2327
68827POPC   NC317895  20.929   0.111  15.698  0.0058 -0.0835  0.2726
68827POPC   PO417896  21.032   0.406  15.439 -0.2878  0.1966 -0.0062
68827POPC   GL117897  21.247   0.507  15.783 -0.1100  0.1185 -0.2186
68827POPC   GL217898  21.502   0.400  15.620  0.1780 -0.0746 -0.1211
68827POPC   C1A17899  21.378   0.580  16.240 -0.2296  0.1026  0.2380
68827POPC   D2A17900  21.732   0.691  16.481 -0.1130  0.0335  0.0333
68827POPC   C3A17901  21.889   0.980  16.813  0.2346  0.1260 -0.2073
68827POPC   C4A17902  21.711   1.196  17.087 -0.1169 -0.2104 -0.0836
68827POPC   C1B17903  21.512   0.063  15.846 -0.1025  0.3119 -0.0475
68827POPC   C2B17904  21.594   0.039  16.287 -0.1147  0.0773  0.2582
68827POPC   C3B17905  21.797   0.217  16.715  0.0593 -0.0412  0.3170
68827POPC   C4B17906  21.813   0.535  17.025 -0.2112 -0.0622 -0.3939
68828POPC   NC317907   0.065   9.762   9.149  0.2389  0.0306  0.0910
68828POPC   PO417908  -0.293   9.643   9.156  0.0542  0.1794 -0.1266
68828POPC   GL117909  -0.088   9.410   8.837  0.0025 -0.0626 -0.3309
68828POPC   GL217910   0.009   9.638   8.635  0.1218  0.0125 -0.0691
68828POPC   C1A17911  -0.314   9.274   8.449 -0.1404 -0.0530  0.0708
68828POPC   D2A17912  -0.441   9.158   8.005 -0.1040  0.1504  0.0686
68828POPC   C3A17913  -0.186   9.193   7.616  0.0041  0.2510  0.0288
68828POPC   C4A17914  -0.084   8.880   7.248  0.0210  0.0370 -0.0586
68828POPC   C1B17915  -0.131   9.701   8.158  0.1215 -0.4233 -0.1764
68828POPC   C2B17916   0.088   9.628   7.785  0.0899 -0.0166  0.1380
68828POPC   C3B17917   0.056   9.474   7.369 -0.0587 -0.2700  0.3991
68828POPC   C4B17918   0.018   9.439   6.912 -0.0076  0.0670  0.0371
68829POPC   NC317919  30.106  11.339   9.576 -0.1417  0.0591  0.1095
68829POPC   PO417920  30.300  11.497   9.311  0.0322 -0.0451 -0.1729
68829POPC   GL117921  30.192  11.165   9.015 -0.0899 -0.1297 -0.5210
68829POPC   GL217922  30.399  11.267   8.904  0.1516  0.0048 -0.1722
68829POPC   C1A17923  30.434  10.762   9.018 -0.0043  0.0774 -0.0541
68829POPC   D2A17924  30.551  10.304   9.076 -0.1542  0.0002 -0.0637
68829POPC   C3A17925  30.673  10.009   8.746 -0.0971 -0.1125  0.2575
68829POPC   C4A17926  30.440   9.853   8.389 -0.0764  0.0252  0.0593
68829POPC   C1B17927  30.470  10.961   8.553 -0.1363 -0.0760 -0.2437
68829POPC   C2B17928  30.399  10.699   8.146 -0.0210  0.3233  0.0140
68829POPC   C3B17929  30.265  10.588   7.754 -0.2077 -0.1323  0.0724
68829POPC   C4B17930  29.993  10.407   7.426  0.3388  0.2643 -0.2551
68830POPC   NC317931  16.446   2.394  15.574 -0.0004 -0.0478  0.2723
68830POPC   PO417932  16.574   2.711  15.748 -0.0645 -0.1335 -0.1538
68830POPC   GL117933  16.599   2.745  16.167 -0.0191  0.1254 -0.1984
68830POPC   GL217934  16.806   2.684  16.381  0.0583 -0.1646  0.2082
68830POPC   C1A17935  16.367   2.634  16.563  0.0198 -0.0507 -0.0054
68830POPC   D2A17936  16.305   2.469  16.973 -0.2352  0.0304  0.0939
68830POPC   C3A17937  16.461   2.372  17.421  0.2103 -0.0160  0.0337
68830POPC   C4A17938  16.457   2.107  17.770 -0.1220 -0.2884  0.2110
68830POPC   C1B17939  16.868   2.313  16.583 -0.1806  0.3906 -0.2188
68830POPC   C2B17940  16.752   2.227  17.016 -0.0937 -0.1207  0.1844
68830POPC   C3B17941  16.890   2.053  17.430 -0.1197  0.0901 -0.3246
68830POPC   C4B17942  16.856   1.829  17.856 -0.3363  0.4444  0.2533
68831POPC   NC317943  31.712  13.669   8.163 -0.1080  0.0905  0.1863
68831POPC   PO417944  32.014  13.376   8.133 -0.3272 -0.0976 -0.1351
68831POPC   GL117945  32.033  13.442   7.741 -0.1989 -0.0356 -0.0738
68831POPC   GL217946  31.903  13.211   7.571 -0.1879  0.2119  0.0536
68831POPC   C1A17947  31.841  13.731   7.403  0.2694 -0.0631  0.0400
68831POPC   D2A17948  31.595  13.738   7.031 -0.0132  0.0420 -0.0124
68831POPC   C3A17949  31.729  13.590   6.659 -0.0721 -0.1195  0.2056
68831POPC   C4A17950  31.921  13.707   6.273  0.0873  0.0299  0.1848
68831POPC   C1B17951  31.700  12.895   7.466  0.0607  0.1604  0.0645
68831POPC   C2B17952  31.351  12.813   7.153 -0.3074  0.1371 -0.1787
68831POPC   C3B17953  31.251  12.902   6.712 -0.0989  0.1770 -0.2313
68831POPC   C4B17954  31.611  13.135   6.510  0.3031 -0.1378  0.2060
68832POPC   NC317955  25.501  13.031   9.443 -0.0853 -0.1800 -0.0037
68832POPC   PO417956  25.887  13.078   9.313 -0.2437 -0.0347  0.1139
68832POPC   GL117957  25.579  12.853   8.995 -0.0238  0.0021 -0.4369
68832POPC   GL217958  25.690  12.628   9.075 -0.0405 -0.0954 -0.1533
68832POPC   C1A17959  25.332  12.608   8.710  0.1697  0.1427  0.1606
68832POPC   D2A17960  25.388  12.244   8.400 -0.0526  0.1549 -0.0951
68832POPC   C3A17961  25.620  12.331   8.030 -0.1387 -0.1672 -0.0740
68832POPC   C4A17962  25.985  12.077   7.777 -0.3914  0.0152  0.1165
68832POPC   C1B17963  25.985  12.559   8.691 -0.1228  0.1891 -0.1235
68832POPC   C2B17964  26.042  12.529   8.226 -0.0078 -0.1351 -0.1669
68832POPC   C3B17965  26.277  12.528   7.842  0.2691  0.2384  0.0738
68832POPC   C4B17966  26.568  12.503   7.491  0.0320  0.0029 -0.4540
68833POPC   NC317967  21.375   4.817  12.258  0.1127  0.0932 -0.0466
68833POPC   PO417968  21.288   5.183  12.198 -0.1664 -0.1813  0.6396
68833POPC   GL117969  21.605   5.329  12.103 -0.1864  0.0951  0.1069
68833POPC   GL217970  21.690   5.395  11.851 -0.2979  0.1622  0.3089
68833POPC   C1A17971  22.029   5.365  12.376 -0.0300 -0.1006 -0.2679
68833POPC   D2A17972  22.242   5.717  12.491 -0.0904 -0.0735 -0.1140
68833POPC   C3A17973  22.669   5.659  12.233 -0.1541  0.2338 -0.3130
68833POPC   C4A17974  23.012   5.370  12.063  0.2382 -0.0776  0.2282
68833POPC   C1B17975  22.095   5.263  11.834  0.0111  0.1515 -0.0176
68833POPC   C2B17976  22.473   5.515  11.686  0.0873  0.2781  0.2600
68833POPC   C3B17977  22.918   5.587  11.565 -0.0924  0.0253 -0.0179
68833POPC   C4B17978  23.312   5.639  11.782 -0.2206 -0.0013 -0.1255
68834POPC   NC317979  21.711   4.590  10.579  0.2490  0.1101  0.0825
68834POPC   PO417980  21.425   4.375  10.418 -0.2198 -0.0268  0.1809
68834POPC   GL117981  21.774   4.368  10.184  0.1419  0.1420  0.1379
68834POPC   GL217982  21.953   4.546  10.114 -0.2800  0.2573 -0.2409
68834POPC   C1A17983  21.977   4.066   9.896 -0.3193  0.0570 -0.0124
68834POPC   D2A17984  22.286   4.121   9.531  0.1811  0.1766  0.1067
68834POPC   C3A17985  22.559   4.024   9.176 -0.1024 -0.4642  0.1316
68834POPC   C4A17986  23.001   4.167   9.070 -0.1600  0.0841 -0.1014
68834POPC   C1B17987  22.340   4.527   9.926  0.0742 -0.1456  0.1051
68834POPC   C2B17988  22.729   4.496  10.194  0.0750  0.1765  0.1329
68834POPC   C3B17989  23.084   4.404  10.463 -0.0622  0.2115 -0.1069
68834POPC   C4B17990  23.510   4.504  10.711  0.0431  0.0188  0.1785
68835POPC   NC317991  27.705   0.777  11.857 -0.1521 -0.1681 -0.0538
68835POPC   PO417992  27.852   0.846  12.240  0.0588  0.0816  0.1432
68835POPC   GL117993  27.502   1.077  12.235 -0.2071 -0.2427 -0.0013
68835POPC   GL217994  27.665   1.305  12.186 -0.0011  0.0686  0.3178
68835POPC   C1A17995  27.249   1.356  12.511 -0.0042  0.0166 -0.2701
68835POPC   D2A17996  26.934   1.676  12.698  0.1785 -0.1012 -0.0467
68835POPC   C3A17997  26.946   1.932  13.163 -0.1696 -0.2684  0.1571
68835POPC   C4A17998  26.993   2.332  13.358 -0.4817 -0.3383 -0.1871
68835POPC   C1B17999  27.722   1.763  12.114  0.0782  0.2904  0.3432
68835POPC   C2B18000  27.851   2.107  12.395 -0.2598  0.1802 -0.0172
68835POPC   C3B18001  27.670   2.156  12.817  0.4174 -0.1015 -0.1856
68835POPC   C4B18002  27.877   2.083  13.235 -0.0334  0.0287 -0.2388
68836POPC   NC318003  30.758   1.716   9.085  0.3097 -0.0968  0.1544
68836POPC   PO418004  30.874   2.037   9.199  0.2994  0.1724 -0.2572
68836POPC   GL118005  30.859   2.093   8.825 -0.0013  0.2420  0.1026
68836POPC   GL218006  30.871   2.385   8.809  0.1258 -0.2085 -0.1790
68836POPC   C1A18007  30.608   2.096   8.426  0.1749 -0.0683 -0.0248
68836POPC   D2A18008  30.429   2.126   8.034  0.0701  0.0800 -0.1997
68836POPC   C3A18009  30.523   1.771   7.795 -0.2729  0.3183  0.0108
68836POPC   C4A18010  30.742   1.386   7.692  0.1867  0.2211 -0.0004
68836POPC   C1B18011  30.784   2.511   8.396 -0.1090 -0.2567 -0.0272
68836POPC   C2B18012  30.682   2.632   7.939 -0.2046  0.0132 -0.3240
68836POPC   C3B18013  30.445   2.708   7.516  0.0630  0.1564  0.0436
68836POPC   C4B18014  30.438   2.503   7.086  0.0557  0.1703  0.0745
68837POPC   NC318015  28.475   1.578  11.268  0.2656  0.1899 -0.1972
68837POPC   PO418016  28.309   1.946  11.163 -0.2152  0.1667 -0.0065
68837POPC   GL118017  28.181   2.218  11.306 -0.0598  0.0075 -0.1348
68837POPC   GL218018  28.492   2.350  11.344 -0.1370  0.1295  0.2660
68837POPC   C1A18019  27.881   2.509  11.168 -0.0432 -0.0871 -0.1350
68837POPC   D2A18020  27.692   2.913  11.282  0.2710 -0.1548  0.2229
68837POPC   C3A18021  27.310   3.196  11.268  0.0573  0.2481  0.0313
68837POPC   C4A18022  27.264   3.623  11.470 -0.0743  0.1071 -0.1682
68837POPC   C1B18023  28.699   2.627  11.660 -0.0904 -0.0546 -0.3094
68837POPC   C2B18024  28.415   2.927  11.882  0.2888 -0.2745 -0.0759
68837POPC   C3B18025  28.023   3.053  12.108 -0.0878 -0.1257  0.0912
68837POPC   C4B18026  27.639   3.254  12.289 -0.0684 -0.0741 -0.0300
68838POPC   NC318027  27.926  10.434  11.333  0.0265 -0.1389 -0.3831
68838POPC   PO418028  27.610  10.474  11.083  0.0668  0.2367  0.1691
68838POPC   GL118029  27.306  10.319  11.321 -0.2052  0.0938  0.0199
68838POPC   GL218030  27.222  10.134  11.139 -0.2799  0.0636 -0.0206
68838POPC   C1A18031  27.176   9.969  11.586 -0.0927 -0.3516 -0.0401
68838POPC   D2A18032  26.918   9.642  11.720  0.4796 -0.0403  0.2829
68838POPC   C3A18033  26.724   9.275  11.493  0.3473  0.1332 -0.2763
68838POPC   C4A18034  26.508   8.964  11.216  0.1503  0.4945 -0.2042
68838POPC   C1B18035  26.961   9.712  11.142 -0.1044 -0.1328  0.1055
68838POPC   C2B18036  26.836   9.295  11.021  0.0631  0.3604 -0.2075
68838POPC   C3B18037  26.994   8.924  10.890  0.0045 -0.1437  0.1383
68838POPC   C4B18038  27.051   8.469  10.816 -0.1633 -0.0650 -0.0379
68839POPC   NC318039  21.522   4.957  11.661  0.0359  0.1539 -0.1651
68839POPC   PO418040  21.503   4.620  11.479  0.1851  0.0316 -0.4221
68839POPC   GL118041  21.739   4.483  11.134  0.2735  0.1256  0.1072
68839POPC   GL218042  21.936   4.241  11.128 -0.1244  0.1031  0.1635
68839POPC   C1A18043  22.056   4.749  10.890  0.1901 -0.1605 -0.0928
68839POPC   D2A18044  22.385   4.685  10.579 -0.0291  0.2747  0.1039
68839POPC   C3A18045  22.644   4.308  10.623 -0.0121 -0.2596 -0.2643
68839POPC   C4A18046  22.709   4.045  11.057  0.0826 -0.1769 -0.2031
68839POPC   C1B18047  22.406   4.427  11.110  0.2231  0.0211  0.2063
68839POPC   C2B18048  22.804   4.647  11.220 -0.0779 -0.0157  0.2955
68839POPC   C3B18049  23.240   4.717  11.151  0.1913 -0.4125 -0.0411
68839POPC   C4B18050  23.588   5.010  10.985  0.0921  0.2137 -0.1074
68840POPC   NC318051  27.935  32.738  14.754 -0.2794 -0.2428 -0.2288
68840POPC   PO418052  28.102  32.624  15.108  0.1528 -0.0749  0.2874
68840POPC   GL118053  28.134  33.091  15.095 -0.2698  0.0770  0.0562
68840POPC   GL218054  28.135  33.174  15.366  0.1011  0.2476 -0.0268
68840POPC   C1A18055  27.864  33.467  15.042  0.1526  0.1354  0.0871
68840POPC   D2A18056  27.924  33.889  15.087  0.0863 -0.1134  0.2172
68840POPC   C3A18057  27.636  34.214  15.238 -0.2053 -0.1501  0.0642
68840POPC   C4A18058  27.662  34.640  15.032  0.0669 -0.0462  0.3985
68840POPC   C1B18059  28.075  33.606  15.535 -0.0062 -0.0580 -0.0121
68840POPC   C2B18060  28.109  33.721  15.972 -0.0425  0.2150 -0.2670
68840POPC   C3B18061  27.824  33.910  16.215 -0.2381 -0.0782 -0.0625
68840POPC   C4B18062  27.353  33.862  16.130 -0.3764  0.0121 -0.1545
68841POPC   NC318063  28.571  15.470   8.686 -0.0535 -0.1339  0.0229
68841POPC   PO418064  28.363  15.723   8.848 -0.1648 -0.2187 -0.0693
68841POPC   GL118065  28.196  16.020   8.530  0.1228  0.3263 -0.1521
68841POPC   GL218066  28.370  15.813   8.324 -0.2575 -0.1516  0.2149
68841POPC   C1A18067  28.011  16.104   8.066 -0.0397  0.0741 -0.1231
68841POPC   D2A18068  27.920  16.323   7.705  0.2145  0.2078  0.2799
68841POPC   C3A18069  27.625  16.210   7.345 -0.4790  0.1071  0.1097
68841POPC   C4A18070  27.382  16.171   6.956  0.0103 -0.0290 -0.2603
68841POPC   C1B18071  28.339  15.818   7.861  0.0750 -0.1053 -0.1489
68841POPC   C2B18072  28.300  15.666   7.440  0.0402 -0.0900 -0.0024
68841POPC   C3B18073  28.194  15.777   6.997 -0.0893 -0.2199 -0.1828
68841POPC   C4B18074  27.850  15.944   6.856 -0.0465 -0.0649  0.1324
68842POPC   NC318075  21.966   3.416  12.200 -0.0921 -0.1472  0.0264
68842POPC   PO418076  21.817   3.588  11.884 -0.1801 -0.1372 -0.0128
68842POPC   GL118077  21.992   3.935  11.842  0.0477 -0.1919 -0.1755
68842POPC   GL218078  22.232   3.888  12.101  0.4097  0.0829 -0.0901
68842POPC   C1A18079  22.066   4.365  11.715  0.2237 -0.2067  0.0669
68842POPC   D2A18080  22.066   4.747  11.407 -0.1892  0.1515  0.2506
68842POPC   C3A18081  22.429   5.037  11.402 -0.2663  0.1866 -0.0323
68842POPC   C4A18082  22.605   5.400  11.175  0.1883  0.1319  0.0058
68842POPC   C1B18083  22.630   4.132  11.987  0.1110  0.0650 -0.0400
68842POPC   C2B18084  23.102   4.145  11.896  0.0044  0.2592  0.5805
68842POPC   C3B18085  23.548   4.137  11.870 -0.1777  0.5336 -0.1202
68842POPC   C4B18086  23.885   4.393  11.640  0.1232  0.1674 -0.0601
68843POPC   NC318087  18.422  13.893   7.846 -0.3189 -0.0147  0.0010
68843POPC   PO418088  18.657  14.202   8.020 -0.1158  0.1362  0.1512
68843POPC   GL118089  18.736  14.449   7.728  0.1388 -0.4027 -0.0550
68843POPC   GL218090  18.463  14.618   7.682  0.0525 -0.0833 -0.0891
68843POPC   C1A18091  18.854  14.831   7.471  0.2177 -0.0877 -0.0838
68843POPC   D2A18092  18.807  14.812   6.995  0.0925  0.0456  0.2708
68843POPC   C3A18093  19.038  14.940   6.621 -0.0350 -0.1426  0.1219
68843POPC   C4A18094  18.921  15.029   6.172  0.0958  0.1875 -0.0319
68843POPC   C1B18095  18.286  14.515   7.310 -0.1504  0.3891 -0.1205
68843POPC   C2B18096  18.213  14.707   6.912  0.0919  0.1861  0.2355
68843POPC   C3B18097  18.104  14.960   6.516  0.0458 -0.1127 -0.0071
68843POPC   C4B18098  17.896  15.236   6.208 -0.0418  0.0098 -0.1862
68844POPC   NC318099  19.588   4.390   9.404 -0.3384  0.1157  0.0949
68844POPC   PO418100  19.289   4.250   9.248  0.0402 -0.0593  0.0697
68844POPC   GL118101  19.242   4.417   8.882  0.0654 -0.1310 -0.1830
68844POPC   GL218102  18.944   4.428   8.815  0.1418  0.3463  0.1650
68844POPC   C1A18103  19.482   4.785   8.772 -0.4324  0.0551  0.3157
68844POPC   D2A18104  19.648   5.069   8.467 -0.0364  0.0617 -0.1441
68844POPC   C3A18105  20.055   5.206   8.407 -0.2047 -0.0893  0.1874
68844POPC   C4A18106  20.531   5.248   8.350  0.1617  0.1401  0.0564
68844POPC   C1B18107  19.213   4.352   8.422 -0.2776  0.0654 -0.0979
68844POPC   C2B18108  19.455   4.287   8.062 -0.3512 -0.1679 -0.0001
68844POPC   C3B18109  19.717   4.488   7.720  0.3334  0.1199 -0.1043
68844POPC   C4B18110  19.789   4.601   7.318 -0.0712  0.1044 -0.0140
68845POPC   NC318111  31.856   4.046  15.164  0.1072 -0.2615 -0.2264
68845POPC   PO418112  31.604   4.133  14.876  0.0132 -0.1940 -0.1400
68845POPC   GL118113  31.419   4.043  15.314 -0.1115 -0.3823  0.0342
68845POPC   GL218114  31.543   3.805  15.464  0.1159 -0.2340  0.0619
68845POPC   C1A18115  31.276   4.307  15.659  0.1724  0.1497  0.0219
68845POPC   D2A18116  30.898   4.340  15.807 -0.0101 -0.1503 -0.2374
68845POPC   C3A18117  30.877   4.131  16.248  0.0682  0.1313  0.0059
68845POPC   C4A18118  30.830   4.181  16.697  0.0144 -0.3965 -0.0468
68845POPC   C1B18119  31.211   3.790  15.846 -0.0537  0.0549  0.1219
68845POPC   C2B18120  30.999   3.628  16.212  0.2950 -0.1135 -0.0113
68845POPC   C3B18121  30.930   3.208  16.408  0.0058  0.0493  0.1691
68845POPC   C4B18122  30.548   3.140  16.670  0.1895  0.0787  0.0770
68846POPC   NC318123  24.763  14.382   9.133  0.0486 -0.2204  0.1653
68846POPC   PO418124  24.921  14.591   9.417  0.0355 -0.3533 -0.0143
68846POPC   GL118125  25.060  14.757   9.024 -0.2575 -0.2858 -0.3507
68846POPC   GL218126  24.974  14.624   8.770 -0.1112  0.0058 -0.0249
68846POPC   C1A18127  24.988  15.119   8.746 -0.2147 -0.0283 -0.1171
68846POPC   D2A18128  24.850  15.442   8.442  0.0142 -0.1064  0.1465
68846POPC   C3A18129  24.838  15.514   7.995  0.0249 -0.2708 -0.1623
68846POPC   C4A18130  24.825  15.650   7.568  0.1065 -0.0154 -0.3308
68846POPC   C1B18131  24.929  14.435   8.322 -0.0730 -0.0371 -0.0426
68846POPC   C2B18132  24.815  14.435   7.903  0.1989 -0.0062  0.2482
68846POPC   C3B18133  24.726  14.351   7.412  0.0781  0.1496 -0.0959
68846POPC   C4B18134  24.431  14.590   7.083 -0.4841 -0.0937 -0.0627
68847POPC   NC318135  26.444  14.229  16.096  0.3516 -0.0110 -0.0105
68847POPC   PO418136  26.728  14.457  15.915  0.3647 -0.1102 -0.1197
68847POPC   GL118137  26.882  14.546  16.337  0.0303  0.1944  0.3388
68847POPC   GL218138  27.186  14.474  16.376 -0.1000 -0.1067  0.1925
68847POPC   C1A18139  26.512  14.494  16.642  0.1832 -0.0785 -0.1667
68847POPC   D2A18140  26.340  14.418  17.066  0.3166 -0.3385  0.2371
68847POPC   C3A18141  26.396  14.336  17.519  0.0278 -0.0644 -0.0081
68847POPC   C4A18142  26.680  14.263  17.876  0.1661 -0.0791  0.0912
68847POPC   C1B18143  27.460  14.563  16.814 -0.1868  0.1248 -0.0863
68847POPC   C2B18144  27.743  14.536  17.153 -0.0003 -0.2464  0.2334
68847POPC   C3B18145  28.064  14.812  17.380 -0.1081 -0.0224 -0.1456
68847POPC   C4B18146  28.153  15.305  17.477 -0.1626 -0.2429 -0.0616
68848POPC   NC318147  30.960   8.708  10.612  0.3303 -0.0982  0.0240
68848POPC   PO418148  30.676   8.464  10.745 -0.0119  0.1693  0.2791
68848POPC   GL118149  30.535   8.359  10.418  0.0172  0.1164 -0.1228
68848POPC   GL218150  30.706   8.455  10.153  0.2798  0.1510 -0.1787
68848POPC   C1A18151  30.391   7.951  10.288 -0.1671  0.0044  0.0473
68848POPC   D2A18152  30.255   7.682   9.878  0.1744 -0.3129  0.3105
68848POPC   C3A18153  29.897   7.666   9.559  0.0231 -0.1470 -0.3244
68848POPC   C4A18154  29.535   7.388   9.454 -0.0274 -0.0482  0.0775
68848POPC   C1B18155  30.585   8.103   9.887  0.1051  0.2394  0.1456
68848POPC   C2B18156  30.506   7.966   9.424  0.1088  0.0931 -0.0145
68848POPC   C3B18157  30.133   7.891   9.143  0.2410  0.0618 -0.0420
68848POPC   C4B18158  29.647   7.750   9.080  0.0779 -0.4297 -0.0061
68849POPC   NC318159  27.240  14.237   9.434  0.3092 -0.4309 -0.0390
68849POPC   PO418160  27.117  14.358   9.039 -0.2781 -0.1904  0.1786
68849POPC   GL118161  27.104  14.223   8.749  0.1880  0.1393 -0.3672
68849POPC   GL218162  27.307  14.072   8.615  0.0683 -0.0169 -0.2064
68849POPC   C1A18163  26.868  14.365   8.365  0.2504  0.0423  0.2089
68849POPC   D2A18164  26.644  14.241   8.022 -0.1230  0.0412  0.2432
68849POPC   C3A18165  26.295  14.010   8.172  0.0125 -0.0016 -0.1313
68849POPC   C4A18166  26.126  13.586   8.186 -0.0293 -0.2092 -0.0456
68849POPC   C1B18167  27.135  13.978   8.157 -0.1433  0.1861  0.1388
68849POPC   C2B18168  27.002  13.727   7.745 -0.1754 -0.0769 -0.0620
68849POPC   C3B18169  27.044  13.750   7.312  0.0163 -0.4065 -0.0335
68849POPC   C4B18170  26.829  13.921   6.880 -0.0840  0.4249  0.1886
68850POPC   NC318171  20.069   3.375   9.710  0.3574 -0.0171  0.0753
68850POPC   PO418172  20.308   3.562   9.906 -0.0297  0.1806  0.0566
68850POPC   GL118173  20.564   3.574   9.585  0.0329 -0.0645  0.1211
68850POPC   GL218174  20.386   3.553   9.343 -0.0284  0.0962  0.1661
68850POPC   C1A18175  20.743   3.231   9.272 -0.0772  0.0315  0.1352
68850POPC   D2A18176  20.996   2.982   8.979  0.2159 -0.1218  0.0528
68850POPC   C3A18177  20.983   3.030   8.527 -0.1366  0.4587  0.0476
68850POPC   C4A18178  21.115   3.248   8.132  0.2873 -0.2013  0.2245
68850POPC   C1B18179  20.844   3.645   9.102 -0.0445 -0.0399 -0.0747
68850POPC   C2B18180  21.070   3.478   8.694  0.0759  0.0429 -0.3251
68850POPC   C3B18181  21.352   3.660   8.399  0.1284 -0.1376  0.1292
68850POPC   C4B18182  21.780   3.877   8.403 -0.1575 -0.0685  0.3071
68851POPC   NC318183  21.575  14.766   8.387  0.0343  0.2534  0.1317
68851POPC   PO418184  21.538  15.124   8.528  0.1659 -0.1926  0.1162
68851POPC   GL118185  21.628  15.318   8.262 -0.4855 -0.2345  0.2309
68851POPC   GL218186  21.852  15.515   8.260  0.2569  0.1241 -0.4717
68851POPC   C1A18187  21.699  15.353   7.790 -0.3760  0.0598 -0.2362
68851POPC   D2A18188  21.798  15.363   7.358  0.0600  0.0115 -0.2532
68851POPC   C3A18189  21.898  15.816   7.229  0.2210 -0.0462  0.1499
68851POPC   C4A18190  22.354  15.821   7.013  0.2834  0.3619  0.3694
68851POPC   C1B18191  22.130  15.657   7.924  0.1368  0.1665 -0.0373
68851POPC   C2B18192  22.405  15.725   7.539  0.1228  0.2826  0.0237
68851POPC   C3B18193  22.833  15.767   7.428  0.2016 -0.1451 -0.0528
68851POPC   C4B18194  23.113  15.903   7.193  0.0635  0.2515 -0.1125
68852POPC   NC318195  31.540   2.905   9.113 -0.2819 -0.0730  0.3062
68852POPC   PO418196  31.383   3.202   9.345 -0.0811 -0.1340 -0.0334
68852POPC   GL118197  31.402   3.293   8.947 -0.5041  0.2100 -0.1706
68852POPC   GL218198  31.310   3.445   8.782 -0.1254 -0.0015 -0.1689
68852POPC   C1A18199  31.500   3.049   8.558  0.0630 -0.5193 -0.0168
68852POPC   D2A18200  31.549   2.914   8.096 -0.1817 -0.0784 -0.1284
68852POPC   C3A18201  31.258   3.014   7.732 -0.1767 -0.1177  0.0362
68852POPC   C4A18202  31.142   3.147   7.306 -0.2491  0.1650 -0.3227
68852POPC   C1B18203  30.908   3.375   8.565 -0.1601  0.0825  0.1213
68852POPC   C2B18204  30.726   3.454   8.208 -0.2028 -0.0217 -0.1283
68852POPC   C3B18205  30.528   3.690   7.894 -0.3714  0.4490 -0.0192
68852POPC   C4B18206  30.175   3.604   7.637 -0.2060  0.1599  0.4402
68853POPC   NC318207  22.767   0.098   9.108  0.1882 -0.1361 -0.1305
68853POPC   PO418208  22.990  -0.177   9.324  0.1261 -0.2647 -0.0851
68853POPC   GL118209  23.288  -0.030   9.207  0.0261  0.1868  0.1440
68853POPC   GL218210  23.273   0.269   9.250 -0.0265 -0.3078 -0.2930
68853POPC   C1A18211  23.514   0.087   8.806 -0.0907 -0.3106 -0.3316
68853POPC   D2A18212  23.868  -0.041   8.555 -0.1054  0.0526 -0.0950
68853POPC   C3A18213  23.787   0.207   8.188  0.0257  0.1147 -0.1512
68853POPC   C4A18214  23.449   0.404   8.379  0.0480  0.2367  0.1744
68853POPC   C1B18215  23.341   0.612   8.888  0.2852 -0.0308  0.0571
68853POPC   C2B18216  23.437   0.901   8.617  0.1377 -0.5045  0.1811
68853POPC   C3B18217  23.661   1.125   8.270 -0.1092  0.0749  0.1604
68853POPC   C4B18218  23.827   1.301   7.890 -0.0115 -0.0072  0.0951
68854POPC   NC318219  17.776  11.359   8.367  0.0564 -0.0607  0.0720
68854POPC   PO418220  18.105  11.403   8.574 -0.1883  0.1632 -0.1905
68854POPC   GL118221  18.177  11.325   8.156  0.0834 -0.1978  0.1608
68854POPC   GL218222  18.258  11.369   7.919 -0.0798 -0.0233  0.2228
68854POPC   C1A18223  18.166  10.893   7.928  0.0395 -0.0066  0.3373
68854POPC   D2A18224  17.878  10.762   7.588  0.0227  0.2853 -0.0532
68854POPC   C3A18225  18.165  10.540   7.346 -0.1829 -0.1771 -0.2492
68854POPC   C4A18226  18.261  10.718   6.957 -0.2194 -0.2000  0.0673
68854POPC   C1B18227  18.146  11.172   7.517 -0.0463 -0.0367  0.1666
68854POPC   C2B18228  18.098  11.207   7.066  0.2466 -0.0597  0.3349
68854POPC   C3B18229  18.221  11.207   6.662  0.1480  0.0508  0.4140
68854POPC   C4B18230  18.116  11.536   6.304 -0.0133  0.0484 -0.0335
68855POPC   NC318231  20.872   4.567  12.214  0.0925 -0.1138  0.1738
68855POPC   PO418232  21.185   4.301  12.116 -0.0080  0.0323  0.1762
68855POPC   GL118233  21.609   4.387  12.238 -0.2224 -0.1912 -0.2944
68855POPC   GL218234  21.618   4.480  11.961  0.0878 -0.1170 -0.0780
68855POPC   C1A18235  22.059   4.442  12.327  0.0523 -0.1218  0.2287
68855POPC   D2A18236  22.461   4.284  12.593  0.2512 -0.0702 -0.0427
68855POPC   C3A18237  22.773   4.567  12.781 -0.1985  0.0193  0.0965
68855POPC   C4A18238  22.893   4.730  13.182  0.3069 -0.0951 -0.2423
68855POPC   C1B18239  21.897   4.794  11.956 -0.0971 -0.0975 -0.1385
68855POPC   C2B18240  22.309   4.774  11.856  0.1634  0.1418 -0.0703
68855POPC   C3B18241  22.642   5.030  11.879 -0.2680 -0.1480  0.0297
68855POPC   C4B18242  22.981   5.026  11.526 -0.0837 -0.0167  0.1269
68856POPC   NC318243  30.501   4.210  13.779 -0.2486  0.1726  0.2050
68856POPC   PO418244  30.457   4.577  13.719 -0.2850 -0.0605 -0.0392
68856POPC   GL118245  30.490   4.980  13.841  0.2283  0.0263 -0.1419
68856POPC   GL218246  30.270   4.913  14.064  0.2030  0.2063 -0.1334
68856POPC   C1A18247  30.247   5.349  13.723 -0.3075  0.0125  0.1337
68856POPC   D2A18248  29.779   5.452  13.725  0.3480 -0.1446  0.2011
68856POPC   C3A18249  29.533   5.586  13.379  0.1008  0.3051 -0.1590
68856POPC   C4A18250  29.124   5.487  13.152 -0.0087 -0.2567 -0.1921
68856POPC   C1B18251  30.075   4.887  14.480 -0.0999 -0.2821  0.0024
68856POPC   C2B18252  29.654   4.803  14.642  0.3269  0.4778 -0.3033
68856POPC   C3B18253  29.232   4.629  14.598 -0.0861  0.1537 -0.3756
68856POPC   C4B18254  28.766   4.592  14.842  0.0828  0.4730  0.1507
68857POPC   NC318255  24.194   0.944  12.047 -0.3595 -0.0601  0.1420
68857POPC   PO418256  24.500   0.915  12.249  0.3291 -0.1824  0.2175
68857POPC   GL118257  24.589   1.242  11.926  0.4022  0.0296  0.0986
68857POPC   GL218258  24.520   1.557  11.954  0.3291  0.0514  0.1073
68857POPC   C1A18259  24.990   1.441  11.785 -0.1639  0.0173  0.1858
68857POPC   D2A18260  25.176   1.859  11.759 -0.0094 -0.3686  0.0022
68857POPC   C3A18261  24.999   2.321  11.730 -0.1449 -0.2339 -0.1022
68857POPC   C4A18262  24.829   2.688  11.772  0.0209  0.0476  0.0555
68857POPC   C1B18263  24.448   1.985  12.052 -0.0838  0.0495 -0.1530
68857POPC   C2B18264  24.585   2.432  12.108  0.1264  0.0777 -0.0718
68857POPC   C3B18265  24.490   2.898  12.190  0.0652 -0.1047  0.0155
68857POPC   C4B18266  24.367   3.322  12.384  0.3099  0.1093 -0.0355
68858POPC   NC318267  18.070   7.960   8.704  0.2250 -0.2079 -0.0242
68858POPC   PO418268  17.847   8.257   8.829 -0.2035 -0.1603 -0.0381
68858POPC   GL118269  17.569   8.263   8.371  0.1175  0.2920  0.3253
68858POPC   GL218270  17.385   8.468   8.391 -0.0829 -0.3099 -0.2666
68858POPC   C1A18271  17.631   8.280   7.908  0.1467  0.2258 -0.0982
68858POPC   D2A18272  17.611   8.084   7.491  0.1767  0.0715 -0.1219
68858POPC   C3A18273  17.764   8.107   7.022  0.2280  0.4302  0.0745
68858POPC   C4A18274  17.767   8.233   6.587  0.0094 -0.1509 -0.0684
68858POPC   C1B18275  17.080   8.536   7.994  0.0734 -0.2565 -0.2118
68858POPC   C2B18276  16.763   8.652   7.641 -0.0681 -0.2736  0.0351
68858POPC   C3B18277  16.491   8.751   7.239  0.0426  0.0293 -0.1748
68858POPC   C4B18278  16.454   8.455   6.915  0.1413  0.2570  0.0276
68859POPC   NC318279  16.121  32.476   8.683  0.1437  0.0672 -0.0082
68859POPC   PO418280  15.812  32.387   8.472  0.0796 -0.1039  0.1751
68859POPC   GL118281  15.879  32.370   8.112  0.0813 -0.0525 -0.1263
68859POPC   GL218282  15.903  32.680   8.067  0.2430 -0.1719 -0.2623
68859POPC   C1A18283  15.766  32.106   7.747  0.0356  0.0424  0.3084
68859POPC   D2A18284  15.375  31.892   7.799 -0.1361 -0.0839 -0.2758
68859POPC   C3A18285  15.056  31.579   7.654  0.0515  0.0575 -0.2045
68859POPC   C4A18286  14.942  31.318   7.262  0.3525  0.2370  0.0309
68859POPC   C1B18287  16.125  33.005   7.788  0.2409  0.2168  0.0048
68859POPC   C2B18288  16.043  33.283   7.361  0.2514 -0.2580  0.0935
68859POPC   C3B18289  15.891  33.615   7.127 -0.0068 -0.0528 -0.1732
68859POPC   C4B18290  15.752  33.876   6.759  0.0986  0.6042  0.0872
68860POPC   NC318291  17.568   2.926   8.895 -0.2478  0.1920  0.0104
68860POPC   PO418292  17.867   2.685   8.871  0.0270 -0.1600  0.1594
68860POPC   GL118293  17.661   2.660   8.511 -0.2343 -0.2041  0.0520
68860POPC   GL218294  17.411   2.732   8.484 -0.2991 -0.0528 -0.2921
68860POPC   C1A18295  17.832   2.923   8.128  0.1423 -0.0566 -0.1315
68860POPC   D2A18296  17.645   2.960   7.715  0.1054  0.0203 -0.2301
68860POPC   C3A18297  17.934   2.903   7.293 -0.0506  0.0458  0.0364
68860POPC   C4A18298  18.213   3.170   6.963 -0.0584  0.1553 -0.1565
68860POPC   C1B18299  17.350   2.666   8.052 -0.1793  0.2297  0.2851
68860POPC   C2B18300  17.204   2.683   7.666 -0.1329  0.0435  0.0163
68860POPC   C3B18301  17.215   2.961   7.289  0.1041 -0.1593 -0.0437
68860POPC   C4B18302  17.177   3.313   7.007 -0.0101  0.0715 -0.1457
68861POPC   NC318303  22.692  16.005   9.428  0.1102  0.2264 -0.2056
68861POPC   PO418304  23.060  16.009   9.372  0.1588  0.1536  0.1919
68861POPC   GL118305  23.202  16.237   8.998 -0.4358  0.2425  0.0547
68861POPC   GL218306  23.391  16.098   8.917  0.1180  0.3291 -0.1932
68861POPC   C1A18307  23.315  16.657   8.777 -0.2804 -0.1888 -0.1516
68861POPC   D2A18308  23.587  16.891   8.486 -0.2428 -0.1491  0.0884
68861POPC   C3A18309  23.470  17.274   8.286 -0.4095 -0.0002  0.2439
68861POPC   C4A18310  23.105  17.619   8.269  0.1988  0.1225  0.1687
68861POPC   C1B18311  23.435  15.942   8.526 -0.1756 -0.0192  0.0751
68861POPC   C2B18312  23.704  15.984   8.191 -0.2087 -0.1924  0.0342
68861POPC   C3B18313  23.798  16.291   7.899 -0.0594 -0.2516  0.1997
68861POPC   C4B18314  23.729  16.485   7.517 -0.1808  0.0093 -0.2148
68862POPC   NC318315  21.983  14.991   8.545  0.0361 -0.1002 -0.3535
68862POPC   PO418316  22.029  14.574   8.478 -0.0447  0.1397 -0.0840
68862POPC   GL118317  22.139  14.756   8.141 -0.0188 -0.1191 -0.5157
68862POPC   GL218318  21.913  14.696   7.969  0.2928  0.1868  0.0211
68862POPC   C1A18319  22.397  14.768   7.765 -0.3540 -0.1135 -0.2039
68862POPC   D2A18320  22.686  14.820   7.366 -0.0702  0.0970 -0.0270
68862POPC   C3A18321  23.140  14.901   7.411 -0.0993  0.1585 -0.1753
68862POPC   C4A18322  23.607  14.954   7.330  0.1690 -0.0351 -0.3073
68862POPC   C1B18323  21.840  14.425   7.599  0.2199 -0.1435  0.3334
68862POPC   C2B18324  21.815  14.383   7.126 -0.0469 -0.0143 -0.0480
68862POPC   C3B18325  21.820  14.166   6.747  0.1123  0.2567 -0.0184
68862POPC   C4B18326  21.767  14.096   6.304  0.0056  0.0002 -0.1583
68863POPC   NC318327  26.480   0.156   9.576 -0.0849  0.2766 -0.3177
68863POPC   PO418328  26.704   0.473   9.703 -0.2021  0.0332 -0.2109
68863POPC   GL118329  26.624   0.656   9.416 -0.3048  0.0939 -0.4771
68863POPC   GL218330  26.414   0.611   9.261  0.0633 -0.1982 -0.0423
68863POPC   C1A18331  26.413   1.087   9.241 -0.1462 -0.0111 -0.0503
68863POPC   D2A18332  26.407   1.524   9.433  0.1239 -0.0794 -0.2746
68863POPC   C3A18333  26.320   1.844   9.120 -0.0274 -0.2302  0.3442
68863POPC   C4A18334  26.456   2.143   8.845 -0.0229  0.0672 -0.4311
68863POPC   C1B18335  26.128   0.795   8.930  0.0084 -0.3275 -0.1540
68863POPC   C2B18336  26.019   1.156   8.640 -0.1852  0.0426 -0.0597
68863POPC   C3B18337  26.036   1.455   8.266  0.2034  0.0090 -0.1793
68863POPC   C4B18338  26.311   1.796   8.107 -0.0398 -0.3213 -0.0759
68864POPC   NC318339  31.242   1.338   8.643  0.2038  0.1807  0.1791
68864POPC   PO418340  31.177   1.655   8.883  0.0407  0.2679  0.2090
68864POPC   GL118341  31.164   1.795   8.611  0.0026 -0.2690 -0.1545
68864POPC   GL218342  31.455   1.812   8.511 -0.3095  0.3267  0.2129
68864POPC   C1A18343  31.125   2.216   8.386  0.2192  0.0543 -0.2055
68864POPC   D2A18344  31.109   2.348   7.948  0.0505 -0.0692 -0.0197
68864POPC   C3A18345  30.985   2.609   7.581 -0.3442 -0.0972  0.1514
68864POPC   C4A18346  30.992   2.732   7.095 -0.1859  0.1563  0.2471
68864POPC   C1B18347  31.354   1.930   8.060 -0.2930  0.0233 -0.2010
68864POPC   C2B18348  31.450   2.098   7.619 -0.0616  0.0159 -0.0460
68864POPC   C3B18349  31.354   2.366   7.224  0.0436  0.3126  0.0998
68864POPC   C4B18350  31.548   2.573   6.867 -0.3168  0.2308  0.1197
68865POPC   NC318351  27.540   0.492  14.388 -0.0283  0.3277 -0.0712
68865POPC   PO418352  27.891   0.363  14.191  0.1679  0.0004  0.0089
68865POPC   GL118353  27.932   0.834  14.240 -0.0602 -0.1691  0.1003
68865POPC   GL218354  28.086   0.845  14.451  0.0114  0.1300 -0.1562
68865POPC   C1A18355  27.618   1.181  14.271  0.0743 -0.1678  0.3393
68865POPC   D2A18356  27.280   1.344  14.568  0.0794 -0.1172  0.2189
68865POPC   C3A18357  27.207   1.521  14.954 -0.3081  0.1229  0.0508
68865POPC   C4A18358  27.282   1.861  15.311 -0.0377 -0.0988 -0.2815
68865POPC   C1B18359  28.142   1.273  14.351  0.1417 -0.1199  0.2469
68865POPC   C2B18360  28.310   1.628  14.502 -0.2004  0.1603  0.0260
68865POPC   C3B18361  28.305   2.042  14.653 -0.2093 -0.0854 -0.2328
68865POPC   C4B18362  28.146   2.314  15.002 -0.1579  0.0300 -0.0509
68866POPC   NC318363  18.610   0.642   8.274  0.0307 -0.1549  0.0192
68866POPC   PO418364  18.570   0.255   8.337  0.0912 -0.3656 -0.1178
68866POPC   GL118365  18.686   0.122   8.008  0.2193 -0.3865 -0.3326
68866POPC   GL218366  18.636   0.388   7.851  0.0479 -0.1018 -0.1155
68866POPC   C1A18367  19.036   0.032   7.653 -0.1506 -0.1755 -0.1049
68866POPC   D2A18368  19.038   0.021   7.208 -0.0614  0.1669 -0.1107
68866POPC   C3A18369  19.102   0.409   6.921  0.1934  0.0521  0.2290
68866POPC   C4A18370  19.125   0.742   6.596  0.0036  0.0206 -0.3683
68866POPC   C1B18371  18.752   0.512   7.396 -0.0285  0.2664 -0.1352
68866POPC   C2B18372  18.852   0.835   7.037 -0.0966 -0.0178 -0.0348
68866POPC   C3B18373  18.624   1.067   6.781  0.1965 -0.2268  0.0852
68866POPC   C4B18374  18.466   1.236   6.330  0.0288 -0.0010 -0.3796
68867POPC   NC318375  24.080  16.043   9.434 -0.2521 -0.1178  0.3820
68867POPC   PO418376  23.825  15.773   9.264 -0.1832 -0.4419 -0.0762
68867POPC   GL118377  24.051  15.806   8.906 -0.1025 -0.0653  0.2067
68867POPC   GL218378  23.870  15.974   8.761  0.0754  0.1301  0.3339
68867POPC   C1A18379  24.195  15.810   8.470  0.1826  0.2757  0.2650
68867POPC   D2A18380  24.197  16.157   8.167 -0.1929 -0.1223  0.0230
68867POPC   C3A18381  24.533  16.221   7.841  0.2301 -0.1310  0.0205
68867POPC   C4A18382  24.936  16.316   7.554  0.2946  0.0826 -0.1078
68867POPC   C1B18383  23.829  16.390   8.499  0.1851  0.1205 -0.1827
68867POPC   C2B18384  24.080  16.704   8.168 -0.1551  0.0701 -0.0596
68867POPC   C3B18385  24.180  16.623   7.739 -0.2780 -0.0749  0.1035
68867POPC   C4B18386  24.462  16.539   7.382  0.0766  0.6649 -0.1036
68868POPC   NC318387  32.137   1.309   8.755  0.1524 -0.3094 -0.0109
68868POPC   PO418388  32.292   0.962   8.849 -0.0736  0.0551  0.0083
68868POPC   GL118389  32.332   1.056   8.450  0.1728  0.3353 -0.0412
68868POPC   GL218390  32.266   0.814   8.289 -0.2448 -0.0344  0.0671
68868POPC   C1A18391  32.309   1.471   8.330  0.0274  0.1280 -0.2662
68868POPC   D2A18392  32.366   1.736   7.970  0.2405  0.2512 -0.2630
68868POPC   C3A18393  32.517   1.482   7.653  0.0155 -0.1415 -0.2065
68868POPC   C4A18394  32.524   1.321   7.271  0.0365  0.1234  0.0803
68868POPC   C1B18395  32.659   0.979   8.140  0.0432  0.1522 -0.1868
68868POPC   C2B18396  32.832   1.092   7.707 -0.0905 -0.5789  0.0248
68868POPC   C3B18397  32.951   1.470   7.386  0.0408  0.0877  0.1761
68868POPC   C4B18398  32.967   1.663   6.971 -0.3764  0.1469 -0.0444
68869POPC   NC318399  26.764  14.038   9.275 -0.0460 -0.1197  0.0309
68869POPC   PO418400  26.437  14.204   9.266  0.1882 -0.1322 -0.1315
68869POPC   GL118401  26.234  14.248   8.886  0.2617 -0.2321  0.1555
68869POPC   GL218402  25.943  14.136   8.759 -0.0278 -0.1827 -0.0961
68869POPC   C1A18403  26.338  14.403   8.484  0.2051 -0.0690  0.1379
68869POPC   D2A18404  26.176  14.551   8.087 -0.1519  0.1852 -0.2993
68869POPC   C3A18405  26.276  14.356   7.672 -0.1614 -0.2566  0.3474
68869POPC   C4A18406  26.622  14.094   7.440  0.0689  0.1765  0.0539
68869POPC   C1B18407  25.801  14.132   8.387 -0.0102 -0.0032  0.0568
68869POPC   C2B18408  25.819  14.225   7.923  0.1231 -0.2251  0.0250
68869POPC   C3B18409  25.858  14.158   7.439 -0.4417 -0.0385 -0.0115
68869POPC   C4B18410  26.201  14.129   7.129 -0.3053  0.1044  0.0828
68870POPC   NC318411  19.287  12.506   8.427 -0.0065  0.0669 -0.0939
68870POPC   PO418412  19.119  12.778   8.189 -0.2853 -0.3400 -0.0185
68870POPC   GL118413  19.250  12.703   7.748  0.2598  0.1418 -0.0036
68870POPC   GL218414  19.091  12.485   7.678  0.1200  0.1653  0.2026
68870POPC   C1A18415  19.101  12.753   7.295 -0.1711 -0.0829 -0.1035
68870POPC   D2A18416  19.122  12.674   6.814  0.0656 -0.1535 -0.2256
68870POPC   C3A18417  19.371  12.463   6.432  0.0895  0.4226 -0.1338
68870POPC   C4A18418  19.634  12.448   6.055 -0.3167 -0.0236 -0.1815
68870POPC   C1B18419  19.307  12.258   7.335 -0.0455 -0.0382  0.0663
68870POPC   C2B18420  19.483  12.303   6.920 -0.1259 -0.1137 -0.0064
68870POPC   C3B18421  19.845  12.292   6.633  0.0508 -0.1133 -0.1188
68870POPC   C4B18422  19.984  12.634   6.382  0.3929 -0.2637  0.2907
68871POPC   NC318423  31.371  16.325   8.327 -0.0999  0.1544  0.0259
68871POPC   PO418424  31.187  16.438   8.045 -0.1415 -0.1133 -0.0568
68871POPC   GL118425  31.150  16.750   7.806  0.0602 -0.2059  0.0657
68871POPC   GL218426  30.999  16.897   7.967 -0.2124 -0.0648  0.2058
68871POPC   C1A18427  31.258  16.768   7.361  0.0917  0.1468  0.0104
68871POPC   D2A18428  31.423  16.771   6.960  0.2642  0.1052  0.3667
68871POPC   C3A18429  31.060  16.775   6.677 -0.0469  0.0420  0.3556
68871POPC   C4A18430  30.880  16.813   6.264 -0.3420 -0.1241 -0.0133
68871POPC   C1B18431  30.983  17.215   7.613  0.1958  0.4222  0.3036
68871POPC   C2B18432  30.967  17.104   7.146 -0.0411  0.0923  0.1901
68871POPC   C3B18433  31.167  17.303   6.787 -0.1447  0.2821 -0.1099
68871POPC   C4B18434  31.241  17.438   6.326  0.0072 -0.0779 -0.0328
68872POPC   NC318435  25.134  13.698   9.130 -0.1374 -0.1841  0.0215
68872POPC   PO418436  24.733  13.806   9.149 -0.2003 -0.0800 -0.0343
68872POPC   GL118437  24.702  13.968   8.924  0.0365 -0.0113  0.0688
68872POPC   GL218438  24.951  14.130   8.735  0.2177  0.2620  0.1933
68872POPC   C1A18439  24.449  14.339   8.716 -0.1479 -0.0773 -0.0809
68872POPC   D2A18440  24.533  14.796   8.610 -0.2328  0.4008 -0.2549
68872POPC   C3A18441  24.696  14.999   8.256 -0.0919  0.1548  0.2054
68872POPC   C4A18442  24.875  15.077   7.825 -0.0086  0.1489  0.1560
68872POPC   C1B18443  24.800  13.975   8.289  0.0604 -0.1308 -0.0041
68872POPC   C2B18444  24.895  13.985   7.782  0.0356  0.1351  0.1913
68872POPC   C3B18445  25.112  13.783   7.393  0.1477  0.0288 -0.2503
68872POPC   C4B18446  25.464  13.874   7.118  0.0714  0.3525  0.2436
68873POPC   NC318447  22.418   3.010  10.642 -0.3867 -0.3910  0.3343
68873POPC   PO418448  22.645   2.651  10.623 -0.0474  0.0227 -0.2760
68873POPC   GL118449  23.006   2.736  10.663  0.0514  0.1023 -0.2222
68873POPC   GL218450  23.095   2.929  10.444 -0.3982  0.1219 -0.0101
68873POPC   C1A18451  23.456   2.712  10.842 -0.2215  0.0992 -0.1488
68873POPC   D2A18452  23.847   2.553  11.015 -0.4953 -0.2183  0.1960
68873POPC   C3A18453  24.220   2.804  10.999  0.3054 -0.0493  0.0319
68873POPC   C4A18454  24.495   3.107  11.131  0.1658 -0.2057 -0.0008
68873POPC   C1B18455  23.300   3.236  10.128 -0.0305  0.2273 -0.0573
68873POPC   C2B18456  23.470   3.287   9.688  0.2995 -0.1358 -0.0562
68873POPC   C3B18457  23.620   3.594   9.417 -0.2184  0.0867  0.0574
68873POPC   C4B18458  23.623   4.024   9.245 -0.0807  0.1344  0.0667
68874POPC   NC318459  21.185   7.738  10.277 -0.1252 -0.2004  0.1060
68874POPC   PO418460  21.115   7.397  10.385  0.1526 -0.2279 -0.0318
68874POPC   GL118461  21.357   7.296  10.089  0.1841  0.1641  0.1881
68874POPC   GL218462  21.401   7.463   9.872 -0.4106 -0.1965  0.1104
68874POPC   C1A18463  21.720   7.062  10.025 -0.0930  0.1901 -0.0394
68874POPC   D2A18464  22.094   6.725  10.005  0.0724 -0.0759  0.0677
68874POPC   C3A18465  22.219   6.617   9.568  0.0538  0.1084 -0.1038
68874POPC   C4A18466  22.508   6.801   9.226  0.3714 -0.0246  0.0287
68874POPC   C1B18467  21.714   7.304   9.564 -0.3046  0.1266 -0.0280
68874POPC   C2B18468  22.072   7.148   9.313 -0.1341  0.0324 -0.2692
68874POPC   C3B18469  22.301   7.145   8.909 -0.4198 -0.1292 -0.0239
68874POPC   C4B18470  22.566   7.457   8.604 -0.0725 -0.1567 -0.1310
68875POPC   NC318471  20.870  16.144   9.160  0.1124 -0.1754 -0.0021
68875POPC   PO418472  21.234  15.955   9.030  0.0577  0.1929 -0.0451
68875POPC   GL118473  21.244  15.749   8.646 -0.1284  0.1053 -0.1264
68875POPC   GL218474  21.294  15.516   8.466  0.0422  0.1244  0.1237
68875POPC   C1A18475  21.083  15.943   8.254  0.2521 -0.2410 -0.0394
68875POPC   D2A18476  21.036  15.725   7.835 -0.0454 -0.4303 -0.4416
68875POPC   C3A18477  20.654  15.863   7.522  0.0502 -0.1226 -0.0475
68875POPC   C4A18478  20.383  15.960   7.166  0.1789 -0.0355 -0.0839
68875POPC   C1B18479  21.427  15.691   8.059  0.3972 -0.0312  0.0383
68875POPC   C2B18480  21.506  15.724   7.586  0.2901  0.0684 -0.1729
68875POPC   C3B18481  21.422  15.692   7.137 -0.3943 -0.1824 -0.0829
68875POPC   C4B18482  21.563  15.675   6.664  0.0440  0.2424 -0.1781
68876POPC   NC318483  17.199  11.683   8.442 -0.1446  0.2864 -0.0053
68876POPC   PO418484  17.340  12.011   8.669 -0.4368 -0.3975 -0.1364
68876POPC   GL118485  17.392  12.038   8.230 -0.4498  0.0132 -0.4205
68876POPC   GL218486  17.133  12.154   8.166 -0.0536 -0.1284 -0.0945
68876POPC   C1A18487  17.478  11.678   8.006  0.1785 -0.3171 -0.2663
68876POPC   D2A18488  17.715  11.290   7.841 -0.0449  0.1089  0.1339
68876POPC   C3A18489  17.536  11.121   7.450  0.2391  0.0005 -0.1187
68876POPC   C4A18490  17.283  10.946   7.079 -0.0284 -0.0776 -0.2014
68876POPC   C1B18491  17.001  11.826   7.852 -0.0116 -0.2365  0.0603
68876POPC   C2B18492  16.983  11.732   7.400  0.1746  0.1567  0.1897
68876POPC   C3B18493  17.292  11.424   7.138 -0.1497  0.0424  0.3925
68876POPC   C4B18494  17.628  11.288   6.834 -0.0804  0.1270 -0.2933
68877POPC   NC318495  20.405   0.644   8.963 -0.3003  0.0733  0.3549
68877POPC   PO418496  20.049   0.628   8.773 -0.2719  0.0508  0.1763
68877POPC   GL118497  20.110   0.817   8.421 -0.2879  0.0329 -0.0505
68877POPC   GL218498  19.965   0.678   8.195  0.2551 -0.1078  0.1544
68877POPC   C1A18499  20.330   1.007   8.052  0.0998  0.0485 -0.1500
68877POPC   D2A18500  20.076   1.180   7.680 -0.2472 -0.4536  0.3078
68877POPC   C3A18501  20.257   1.416   7.328 -0.2451 -0.0639  0.2196
68877POPC   C4A18502  20.401   1.356   6.899  0.3006 -0.1160 -0.0679
68877POPC   C1B18503  19.964   0.639   7.717 -0.2983 -0.1465  0.1151
68877POPC   C2B18504  20.144   0.866   7.331  0.0246  0.1079  0.3465
68877POPC   C3B18505  20.539   0.926   7.138  0.2774 -0.2256  0.2349
68877POPC   C4B18506  20.629   1.012   6.633 -0.1854  0.3913  0.1468
68878POPC   NC318507  22.009   3.426  11.443 -0.0495 -0.1824 -0.0372
68878POPC   PO418508  21.816   3.627  11.172  0.1625 -0.0252  0.3008
68878POPC   GL118509  22.101   3.805  10.930 -0.0277 -0.3821 -0.3187
68878POPC   GL218510  22.361   3.604  11.034 -0.1811  0.2026 -0.1996
68878POPC   C1A18511  22.145   4.182  10.644 -0.2538 -0.1959  0.0190
68878POPC   D2A18512  22.343   4.186  10.260  0.0327 -0.1277  0.1131
68878POPC   C3A18513  22.705   4.025  10.053 -0.0277 -0.1258  0.0157
68878POPC   C4A18514  23.171   4.057  10.030 -0.0739 -0.1190  0.1267
68878POPC   C1B18515  22.352   3.965  11.382 -0.3857 -0.1670 -0.1267
68878POPC   C2B18516  22.554   4.324  11.560  0.1090  0.2455 -0.1423
68878POPC   C3B18517  22.879   4.584  11.720  0.3983  0.1872 -0.1245
68878POPC   C4B18518  23.073   4.875  12.021  0.0495 -0.0035  0.1283
68879POPC   NC318519  32.095  10.404   9.156 -0.0377  0.1132  0.2252
68879POPC   PO418520  32.412  10.149   9.158 -0.1840  0.0035 -0.0835
68879POPC   GL118521  32.265  10.099   8.782 -0.2212 -0.2100  0.6261
68879POPC   GL218522  32.407   9.819   8.708 -0.0779  0.1269 -0.0170
68879POPC   C1A18523  31.921  10.021   8.510  0.1344  0.1142  0.2459
68879POPC   D2A18524  31.615   9.825   8.222  0.4636  0.1403  0.1177
68879POPC   C3A18525  31.598   9.722   7.745  0.1000  0.3499 -0.2255
68879POPC   C4A18526  31.222   9.603   7.457 -0.0110  0.0077  0.0004
68879POPC   C1B18527  32.229   9.708   8.316 -0.1250  0.1315 -0.4114
68879POPC   C2B18528  32.190   9.681   7.929  0.0782  0.1891  0.2316
68879POPC   C3B18529  32.064   9.473   7.510 -0.1312 -0.1811 -0.1324
68879POPC   C4B18530  31.665   9.408   7.274  0.2788  0.0460 -0.1794
68880POPC   NC318531  24.181  10.544  10.709  0.1988  0.1785 -0.0599
68880POPC   PO418532  24.419  10.865  10.694 -0.0776 -0.0016 -0.0154
68880POPC   GL118533  24.624  10.583  10.636 -0.2830  0.2853  0.2490
68880POPC   GL218534  24.697  10.601  10.358 -0.0847  0.0964 -0.1118
68880POPC   C1A18535  24.553  10.114  10.587  0.1106  0.0267  0.2567
68880POPC   D2A18536  24.673   9.726  10.365  0.0743  0.2586 -0.1314
68880POPC   C3A18537  24.903   9.315  10.266  0.3763 -0.3450 -0.2129
68880POPC   C4A18538  25.171   9.100   9.964 -0.0105  0.0991 -0.1270
68880POPC   C1B18539  24.841  10.227  10.204 -0.2212  0.2677  0.0468
68880POPC   C2B18540  24.978   9.847   9.989  0.0630 -0.2213  0.0879
68880POPC   C3B18541  24.962   9.467   9.757  0.0539 -0.2541 -0.0247
68880POPC   C4B18542  25.019   9.131   9.494  0.0969  0.1117  0.2206
68881POPC   NC318543  31.519   8.090   9.784  0.2193 -0.2862 -0.2640
68881POPC   PO418544  31.876   7.958   9.849  0.0942 -0.3342  0.2106
68881POPC   GL118545  31.867   8.005   9.473  0.1370 -0.2179 -0.0005
68881POPC   GL218546  32.144   7.984   9.334 -0.3623 -0.0531  0.1139
68881POPC   C1A18547  31.718   8.039   9.030 -0.1143 -0.0162 -0.1066
68881POPC   D2A18548  31.438   7.861   8.712  0.0139 -0.0207 -0.2371
68881POPC   C3A18549  31.091   7.567   8.818 -0.0733  0.0151  0.1943
68881POPC   C4A18550  30.635   7.451   8.841 -0.3238  0.0534 -0.1603
68881POPC   C1B18551  32.150   8.031   8.862 -0.1490  0.1292 -0.2865
68881POPC   C2B18552  31.862   7.932   8.495  0.0938 -0.0184 -0.0007
68881POPC   C3B18553  31.635   7.903   8.074  0.1558 -0.0180  0.2321
68881POPC   C4B18554  31.257   7.807   7.866  0.4257 -0.0312 -0.1904
68882POPC   NC318555  29.888   2.223  12.361 -0.1005  0.0401 -0.0475
68882POPC   PO418556  29.548   2.059  12.516 -0.1187  0.1480  0.0420
68882POPC   GL118557  29.281   2.364  12.576 -0.0925 -0.0839  0.2012
68882POPC   GL218558  29.077   2.282  12.411 -0.3443 -0.0168  0.2522
68882POPC   C1A18559  29.192   2.658  12.905  0.1919 -0.2877 -0.2383
68882POPC   D2A18560  29.301   2.473  13.332  0.1715 -0.1672 -0.2023
68882POPC   C3A18561  29.101   2.740  13.677 -0.0815 -0.3016 -0.0418
68882POPC   C4A18562  28.739   3.045  13.786  0.1576 -0.0667 -0.0362
68882POPC   C1B18563  28.772   2.433  12.682 -0.0647 -0.0616  0.0559
68882POPC   C2B18564  28.561   2.713  12.920  0.1184 -0.0009 -0.0638
68882POPC   C3B18565  28.187   2.970  13.141  0.1475 -0.0799 -0.1781
68882POPC   C4B18566  27.923   3.033  13.484 -0.0698 -0.0528  0.0501
68883POPC   NC318567  16.177   3.782   9.921 -0.1203 -0.0034 -0.1281
68883POPC   PO418568  15.997   3.877   9.590 -0.2213  0.0360 -0.1686
68883POPC   GL118569  16.021   4.026   9.186  0.2514  0.2332 -0.0463
68883POPC   GL218570  15.721   4.022   9.152 -0.1085 -0.0588 -0.0177
68883POPC   C1A18571  16.046   3.839   8.757  0.2293 -0.2058 -0.0936
68883POPC   D2A18572  15.896   3.952   8.332 -0.2988 -0.0260  0.1797
68883POPC   C3A18573  16.060   4.215   8.005  0.2460  0.1971 -0.0239
68883POPC   C4A18574  16.028   4.643   7.701  0.1041 -0.0527 -0.0327
68883POPC   C1B18575  15.633   4.198   8.720 -0.1951  0.2399 -0.0278
68883POPC   C2B18576  15.593   4.347   8.246  0.1855 -0.0713 -0.0068
68883POPC   C3B18577  15.619   4.425   7.777  0.0837  0.0257  0.0437
68883POPC   C4B18578  15.886   4.203   7.461  0.0238 -0.3279 -0.0159
68884POPC   NC318579  21.664  13.199   8.561  0.1123  0.0780 -0.1868
68884POPC   PO418580  22.037  13.136   8.386 -0.2485 -0.1797 -0.2165
68884POPC   GL118581  22.111  13.316   8.036 -0.0576 -0.0186 -0.2196
68884POPC   GL218582  21.878  13.436   7.888 -0.0033 -0.1785 -0.0328
68884POPC   C1A18583  22.230  13.072   7.655  0.0119  0.0589  0.2392
68884POPC   D2A18584  21.990  13.082   7.230  0.0875  0.3778 -0.0576
68884POPC   C3A18585  22.270  12.928   6.897  0.0184 -0.0336  0.1510
68884POPC   C4A18586  22.548  12.616   6.629  0.0718 -0.1675 -0.0419
68884POPC   C1B18587  21.703  13.587   7.445 -0.1506  0.0692 -0.0494
68884POPC   C2B18588  21.927  13.864   7.123 -0.2283  0.2309 -0.3183
68884POPC   C3B18589  22.241  14.148   7.048 -0.1760  0.0092  0.0863
68884POPC   C4B18590  22.385  14.496   6.713  0.0669 -0.5220  0.0931
68885POPC   NC318591  17.412  13.030   8.426 -0.1904  0.1900 -0.0449
68885POPC   PO418592  17.669  12.873   8.181  0.0623  0.1751 -0.1461
68885POPC   GL118593  17.542  12.778   7.718 -0.1164 -0.1193 -0.3315
68885POPC   GL218594  17.757  12.652   7.625  0.1560 -0.0987 -0.1794
68885POPC   C1A18595  17.614  13.062   7.357  0.2208 -0.1429  0.2005
68885POPC   D2A18596  17.770  13.177   6.910  0.0225 -0.0815 -0.1415
68885POPC   C3A18597  17.588  12.900   6.649  0.0433  0.1404 -0.4181
68885POPC   C4A18598  17.419  12.891   6.227  0.0220 -0.1665 -0.0758
68885POPC   C1B18599  17.602  12.557   7.162  0.0781 -0.0514  0.0952
68885POPC   C2B18600  17.586  12.308   6.766  0.3563  0.1786 -0.0847
68885POPC   C3B18601  17.569  12.359   6.315  0.1962  0.1167 -0.0693
68885POPC   C4B18602  17.773  12.259   5.898 -0.1533  0.0491  0.3196
68886POPC   NC318603  31.114  14.052   8.280  0.2809 -0.2792  0.0688
68886POPC   PO418604  31.361  13.761   8.466  0.1773  0.1742  0.1226
68886POPC   GL118605  31.293  13.473   8.149 -0.3845 -0.1160  0.1471
68886POPC   GL218606  31.265  13.657   7.935  0.0214  0.2177 -0.1031
68886POPC   C1A18607  31.053  13.190   7.903 -0.0913  0.4754  0.1921
68886POPC   D2A18608  31.224  12.898   7.616 -0.1278 -0.0464 -0.0309
68886POPC   C3A18609  30.872  12.790   7.338 -0.1756 -0.1390 -0.1435
68886POPC   C4A18610  30.490  12.799   7.068 -0.0792  0.0826 -0.1649
68886POPC   C1B18611  31.528  13.436   7.695 -0.0992 -0.1109 -0.1103
68886POPC   C2B18612  31.471  13.284   7.280  0.0407  0.0798 -0.2860
68886POPC   C3B18613  31.221  13.388   6.896 -0.0091  0.2487 -0.1267
68886POPC   C4B18614  30.842  13.249   6.627  0.1263  0.2201  0.0421
68887POPC   NC318615  30.470   7.485  11.567  0.1075  0.1660 -0.0141
68887POPC   PO418616  30.507   7.659  11.228 -0.3450 -0.1421  0.1436
68887POPC   GL118617  30.229   7.612  11.138  0.3926  0.0246 -0.2234
68887POPC   GL218618  29.982   7.556  11.347  0.0168  0.0995 -0.0560
68887POPC   C1A18619  30.067   7.747  10.666  0.4096  0.0175  0.2218
68887POPC   D2A18620  29.808   7.763  10.322 -0.2981 -0.1205 -0.1409
68887POPC   C3A18621  29.898   8.068   9.977  0.3919  0.2036 -0.0372
68887POPC   C4A18622  30.068   8.114   9.592 -0.0554 -0.2555  0.1216
68887POPC   C1B18623  29.690   7.640  10.945 -0.2874 -0.0173 -0.1986
68887POPC   C2B18624  29.373   7.682  10.610  0.2032 -0.0988  0.1297
68887POPC   C3B18625  29.017   7.702  10.240 -0.3284 -0.0772  0.1942
68887POPC   C4B18626  28.733   7.510   9.936  0.1478 -0.2199 -0.0022
68888POPC   NC318627  17.795   6.158   9.162  0.2718 -0.0378  0.1905
68888POPC   PO418628  17.596   5.849   9.124 -0.0415  0.1152  0.2015
68888POPC   GL118629  17.557   5.850   8.697 -0.0305 -0.1219  0.2042
68888POPC   GL218630  17.802   5.971   8.646 -0.2144  0.4158  0.3122
68888POPC   C1A18631  17.269   5.764   8.352  0.0979 -0.0859  0.0891
68888POPC   D2A18632  17.033   5.815   7.939  0.0743 -0.2838 -0.0179
68888POPC   C3A18633  16.983   5.913   7.510 -0.1222 -0.1272 -0.3282
68888POPC   C4A18634  16.810   6.105   7.116  0.0864  0.3094  0.2118
68888POPC   C1B18635  17.658   6.285   8.354  0.1448 -0.4099 -0.1744
68888POPC   C2B18636  17.248   6.376   8.095 -0.1132  0.1161  0.0327
68888POPC   C3B18637  17.129   6.618   7.739  0.1214 -0.0315  0.0496
68888POPC   C4B18638  17.000   6.725   7.284  0.0797 -0.1514 -0.2259
68889POPC   NC318639  21.080   2.859  13.669  0.0881 -0.2500 -0.0516
68889POPC   PO418640  21.085   2.614  13.992  0.1912 -0.0983 -0.5272
68889POPC   GL118641  21.401   2.871  14.088 -0.2645 -0.2761 -0.4078
68889POPC   GL218642  21.439   2.976  14.430  0.5343  0.0937 -0.1313
68889POPC   C1A18643  21.852   2.884  14.193  0.1886 -0.0629 -0.1142
68889POPC   D2A18644  21.774   2.655  14.617 -0.2028 -0.0752  0.3330
68889POPC   C3A18645  22.007   2.702  14.978 -0.0849 -0.0185 -0.1455
68889POPC   C4A18646  21.974   2.786  15.423  0.2148  0.3250  0.1086
68889POPC   C1B18647  21.826   3.169  14.660  0.2035  0.2532 -0.0896
68889POPC   C2B18648  22.141   3.263  14.948  0.2795 -0.2475 -0.0010
68889POPC   C3B18649  22.445   3.340  15.326  0.0784 -0.1302  0.2216
68889POPC   C4B18650  22.831   3.217  15.363  0.1589 -0.2706  0.0493
68890POPC   NC318651  17.092   7.471   8.897  0.1014  0.2595 -0.0226
68890POPC   PO418652  17.166   7.860   9.064  0.1463  0.0801 -0.0467
68890POPC   GL118653  17.257   7.838   8.653 -0.0501 -0.3383  0.0404
68890POPC   GL218654  17.527   7.906   8.635  0.2220  0.3686  0.1682
68890POPC   C1A18655  17.235   7.954   8.223 -0.0143 -0.0625 -0.2231
68890POPC   D2A18656  17.222   7.994   7.805  0.0440  0.3478 -0.2101
68890POPC   C3A18657  16.974   7.734   7.488  0.1913 -0.0631 -0.4872
68890POPC   C4A18658  16.803   7.251   7.403 -0.0337  0.0864  0.0685
68890POPC   C1B18659  17.683   7.813   8.237 -0.3047  0.1096  0.0612
68890POPC   C2B18660  17.674   7.701   7.756  0.0389  0.0781  0.1275
68890POPC   C3B18661  17.414   7.571   7.420  0.0849  0.0385 -0.3677
68890POPC   C4B18662  17.167   7.514   7.027 -0.1309  0.0757 -0.0738
68891POPC   NC318663  19.809  15.611   8.261  0.1663 -0.3372  0.3945
68891POPC   PO418664  19.763  15.251   8.142 -0.2076  0.0109  0.0939
68891POPC   GL118665  19.722  15.212   7.771 -0.1247  0.2559 -0.1442
68891POPC   GL218666  19.971  15.143   7.710 -0.1649  0.0175  0.1874
68891POPC   C1A18667  19.591  14.887   7.458  0.0838  0.3116  0.0509
68891POPC   D2A18668  19.324  14.985   7.113 -0.1522  0.2422  0.1855
68891POPC   C3A18669  19.475  15.119   6.662  0.1378  0.0489 -0.0656
68891POPC   C4A18670  19.494  15.287   6.207 -0.3313 -0.3801  0.0341
68891POPC   C1B18671  19.984  15.128   7.221 -0.0660 -0.0719 -0.0895
68891POPC   C2B18672  19.914  15.168   6.800 -0.2663  0.2219  0.0061
68891POPC   C3B18673  19.876  15.541   6.570 -0.1278  0.0098 -0.2901
68891POPC   C4B18674  19.769  15.877   6.324  0.1223 -0.3578  0.1824
68892POPC   NC318675  31.909   8.019  10.857  0.1927  0.0199 -0.1479
68892POPC   PO418676  31.645   8.217  10.664 -0.0273 -0.0018  0.0525
68892POPC   GL118677  31.267   8.374  10.472  0.0942  0.0273  0.3241
68892POPC   GL218678  31.406   8.457  10.268 -0.1634  0.1580 -0.3443
68892POPC   C1A18679  31.119   8.197  10.002  0.0244 -0.0448 -0.1818
68892POPC   D2A18680  30.938   8.005   9.576  0.0082 -0.2472  0.2576
68892POPC   C3A18681  30.906   8.341   9.289  0.2545  0.0787  0.2836
68892POPC   C4A18682  30.591   8.367   9.003  0.1776 -0.1123 -0.0495
68892POPC   C1B18683  31.572   8.587   9.865 -0.2532 -0.2299 -0.3425
68892POPC   C2B18684  31.613   8.416   9.418  0.4544 -0.0630 -0.1079
68892POPC   C3B18685  31.343   8.348   8.996  0.0153 -0.0259 -0.0043
68892POPC   C4B18686  31.017   8.283   8.714  0.2291 -0.4355 -0.2181
68893POPC   NC318687  19.557  11.661   8.626  0.1852  0.1161 -0.1527
68893POPC   PO418688  19.508  11.893   8.313 -0.1552  0.1542  0.0255
68893POPC   GL118689  19.562  11.640   8.086  0.0755 -0.4124  0.1362
68893POPC   GL218690  19.396  11.404   7.938 -0.0684  0.1353  0.0660
68893POPC   C1A18691  19.723  11.569   7.638 -0.4011 -0.2465  0.0332
68893POPC   D2A18692  20.125  11.347   7.577  0.1863 -0.2456 -0.1730
68893POPC   C3A18693  20.552  11.522   7.431  0.3925  0.2301 -0.2658
68893POPC   C4A18694  20.801  11.401   7.059  0.3175  0.1856 -0.3610
68893POPC   C1B18695  19.170  11.431   7.559 -0.0978  0.2254 -0.2148
68893POPC   C2B18696  19.434  11.539   7.193  0.3347 -0.3127 -0.0956
68893POPC   C3B18697  19.643  11.400   6.834 -0.0154  0.2668 -0.1841
68893POPC   C4B18698  19.646  11.413   6.415  0.0189 -0.0353  0.1479
68894POPC   NC318699  32.078  14.442   8.006  0.2047  0.0973 -0.0188
68894POPC   PO418700  31.759  14.649   7.970 -0.0723  0.1492  0.0238
68894POPC   GL118701  31.718  14.477   7.653  0.2395  0.1552 -0.4146
68894POPC   GL218702  31.839  14.747   7.452 -0.0048  0.2265  0.1466
68894POPC   C1A18703  31.557  14.165   7.397 -0.1279  0.1198 -0.0114
68894POPC   D2A18704  31.162  14.258   7.138  0.1838 -0.1542  0.0859
68894POPC   C3A18705  31.224  14.648   6.875 -0.2016 -0.2933 -0.3274
68894POPC   C4A18706  31.449  14.606   6.468  0.0409 -0.0697 -0.1040
68894POPC   C1B18707  31.810  14.455   7.087  0.1040  0.0956 -0.1037
68894POPC   C2B18708  31.527  14.234   6.813  0.1714 -0.0811  0.1179
68894POPC   C3B18709  31.226  13.939   6.648 -0.1092  0.1157 -0.0283
68894POPC   C4B18710  30.928  13.807   6.344 -0.0944  0.0964 -0.0032
68895POPC   NC318711   0.715   6.367   9.219 -0.2787  0.0689 -0.0114
68895POPC   PO418712   0.344   6.372   9.380  0.0120 -0.1416 -0.2501
68895POPC   GL118713   0.185   6.432   9.001 -0.5128  0.1485  0.1684
68895POPC   GL218714   0.362   6.673   8.955 -0.2855  0.0723 -0.1917
68895POPC   C1A18715   0.142   6.345   8.568  0.0287 -0.0939 -0.0484
68895POPC   D2A18716  -0.097   6.229   8.190  0.0344 -0.0744 -0.1935
68895POPC   C3A18717  -0.159   6.459   7.789 -0.1965  0.2219 -0.2415
68895POPC   C4A18718  -0.135   6.685   7.356 -0.1476  0.2153 -0.1113
68895POPC   C1B18719   0.179   6.844   8.632  0.0680 -0.0131 -0.1618
68895POPC   C2B18720  -0.013   6.717   8.225  0.1404 -0.1463 -0.0694
68895POPC   C3B18721  -0.284   6.948   7.896 -0.1271  0.3136 -0.1901
68895POPC   C4B18722  -0.616   7.320   7.793 -0.2498 -0.1808  0.3460
68896POPC   NC318723  30.508   4.607  11.553  0.1432 -0.1742 -0.1092
68896POPC   PO418724  30.525   4.263  11.753  0.2686  0.0328 -0.0789
68896POPC   GL118725  30.146   4.313  11.682  0.2674  0.2233  0.2186
68896POPC   GL218726  30.065   4.010  11.635 -0.1327  0.0168  0.0927
68896POPC   C1A18727  30.013   4.605  11.332  0.2027  0.1813 -0.1199
68896POPC   D2A18728  29.661   4.650  11.014  0.2145 -0.2297 -0.0488
68896POPC   C3A18729  29.212   4.639  10.889 -0.0240 -0.1864 -0.1390
68896POPC   C4A18730  28.843   4.830  11.006  0.1051  0.0617 -0.2253
68896POPC   C1B18731  29.812   4.130  11.278 -0.0223  0.0209  0.0384
68896POPC   C2B18732  29.413   4.185  11.028  0.1551 -0.0296  0.0086
68896POPC   C3B18733  28.945   4.305  11.146  0.1120 -0.1454 -0.1405
68896POPC   C4B18734  28.520   4.242  11.285 -0.1104 -0.4723 -0.0911
68897POPC   NC318735  30.723   1.886  15.016  0.0108  0.1390  0.2887
68897POPC   PO418736  30.331   1.752  15.051 -0.0342  0.1589  0.1009
68897POPC   GL118737  30.247   2.085  15.262  0.1167  0.4698 -0.1142
68897POPC   GL218738  30.415   2.280  15.234 -0.0223 -0.1718  0.0727
68897POPC   C1A18739  29.989   2.182  15.609  0.1868  0.2839  0.2907
68897POPC   D2A18740  29.669   2.395  15.863 -0.2412  0.3351 -0.1674
68897POPC   C3A18741  29.466   2.505  16.261  0.0563 -0.3104 -0.0337
68897POPC   C4A18742  29.350   2.587  16.736 -0.2549 -0.1040  0.2723
68897POPC   C1B18743  30.322   2.633  15.516 -0.0736  0.0418  0.1588
68897POPC   C2B18744  30.169   2.623  15.918  0.4992  0.0134 -0.0523
68897POPC   C3B18745  29.877   2.766  16.288 -0.0217  0.0604 -0.0222
68897POPC   C4B18746  29.848   3.082  16.599 -0.2140  0.0855 -0.0968
68898POPC   NC318747  20.964   9.257   9.394 -0.0446 -0.0787  0.2427
68898POPC   PO418748  20.603   9.249   9.361  0.2861 -0.1071 -0.1829
68898POPC   GL118749  20.675   9.252   8.942  0.2841  0.2938 -0.1439
68898POPC   GL218750  20.730   9.012   8.905  0.2787  0.0842  0.3180
68898POPC   C1A18751  20.847   9.293   8.494 -0.1594  0.0279  0.4085
68898POPC   D2A18752  21.000   9.345   8.028  0.1422 -0.1668 -0.1034
68898POPC   C3A18753  20.818   9.076   7.716 -0.3439  0.1092 -0.3379
68898POPC   C4A18754  20.706   8.762   7.416 -0.2363 -0.0256  0.1335
68898POPC   C1B18755  20.840   8.717   8.634 -0.2384 -0.1310 -0.1109
68898POPC   C2B18756  21.120   8.455   8.388  0.2179  0.1295  0.3912
68898POPC   C3B18757  21.324   8.237   8.056  0.0716  0.2232 -0.0549
68898POPC   C4B18758  21.383   8.068   7.647  0.3058 -0.1445 -0.0673
68899POPC   NC318759   0.017  11.505   9.547 -0.0862  0.0834 -0.0020
68899POPC   PO418760  -0.141  11.397   9.229 -0.1335 -0.3867 -0.2735
68899POPC   GL118761  -0.249  11.358   8.784  0.3303  0.0295 -0.1057
68899POPC   GL218762  -0.365  11.152   8.603 -0.0054  0.0586  0.2528
68899POPC   C1A18763  -0.345  11.609   8.403  0.0541  0.0335  0.1648
68899POPC   D2A18764  -0.412  11.968   8.126  0.0362  0.1634 -0.2368
68899POPC   C3A18765  -0.725  11.958   7.831  0.2194 -0.2069  0.0537
68899POPC   C4A18766  -0.694  11.923   7.377  0.0799 -0.0546  0.0572
68899POPC   C1B18767  -0.437  11.210   8.085 -0.1185  0.3185  0.0243
68899POPC   C2B18768  -0.621  11.120   7.695  0.1120  0.0943  0.1438
68899POPC   C3B18769  -0.695  11.341   7.267  0.0660  0.0193  0.0359
68899POPC   C4B18770  -0.760  11.658   6.955  0.0549  0.0338 -0.1107
68900POPC   NC318771  31.618   9.819   9.406  0.0177 -0.0901 -0.1012
68900POPC   PO418772  31.513  10.102   9.711  0.0956  0.0629 -0.1910
68900POPC   GL118773  31.272  10.137   9.397  0.1947 -0.1965 -0.2493
68900POPC   GL218774  30.996  10.260   9.402  0.0297 -0.0837  0.1717
68900POPC   C1A18775  31.099   9.890   8.979  0.2676 -0.2990 -0.4286
68900POPC   D2A18776  31.179   9.636   8.609  0.1313 -0.0788 -0.1409
68900POPC   C3A18777  30.827   9.573   8.329  0.1418 -0.3971 -0.1670
68900POPC   C4A18778  30.574   9.597   7.906  0.1498 -0.0600  0.0891
68900POPC   C1B18779  30.620   9.942   9.428 -0.1739 -0.1592  0.4123
68900POPC   C2B18780  30.221   9.892   9.151  0.2980 -0.2357  0.0544
68900POPC   C3B18781  29.976  10.002   8.760 -0.2709  0.0422  0.1992
68900POPC   C4B18782  29.853  10.026   8.294  0.1081 -0.1764  0.2989
68901POPC   NC318783  26.972   0.359  12.815  0.0845  0.2164 -0.0624
68901POPC   PO418784  27.306   0.292  13.054 -0.2559 -0.3579 -0.1867
68901POPC   GL118785  27.211   0.705  13.014 -0.4869  0.0478  0.1301
68901POPC   GL218786  27.281   0.953  12.881 -0.1369 -0.0893 -0.0871
68901POPC   C1A18787  27.164   1.060  13.356  0.0443  0.1336 -0.0649
68901POPC   D2A18788  27.020   1.495  13.436 -0.3435  0.0795  0.0152
68901POPC   C3A18789  26.965   1.895  13.689 -0.1028 -0.0128 -0.2204
68901POPC   C4A18790  26.986   1.878  14.164  0.0268  0.2695  0.1469
68901POPC   C1B18791  27.311   1.406  13.023 -0.1344 -0.1616  0.0627
68901POPC   C2B18792  27.442   1.827  13.164  0.1641 -0.1782  0.0295
68901POPC   C3B18793  27.388   2.115  13.498  0.0927 -0.0185 -0.0307
68901POPC   C4B18794  27.218   2.376  13.851 -0.2413 -0.0158 -0.1455
68902POPC   NC318795  29.341  16.704   9.120 -0.1801 -0.0373  0.3088
68902POPC   PO418796  28.956  16.665   9.224 -0.2990 -0.0002 -0.1080
68902POPC   GL118797  28.694  16.760   8.889 -0.1469 -0.0018  0.0238
68902POPC   GL218798  28.745  17.071   8.881 -0.2255 -0.0833  0.4167
68902POPC   C1A18799  28.622  16.538   8.500 -0.0971  0.1060 -0.1836
68902POPC   D2A18800  28.601  16.234   8.113 -0.0224 -0.0373  0.4467
68902POPC   C3A18801  28.402  16.346   7.707 -0.0888 -0.0646 -0.1910
68902POPC   C4A18802  28.220  16.182   7.335 -0.0954  0.0814 -0.0324
68902POPC   C1B18803  28.624  17.044   8.446 -0.0159  0.0648  0.0047
68902POPC   C2B18804  28.540  17.388   8.119  0.5019 -0.4032 -0.2004
68902POPC   C3B18805  28.566  17.509   7.667 -0.3070 -0.1096 -0.0701
68902POPC   C4B18806  28.606  17.285   7.256 -0.3427 -0.0233  0.0359
68903POPC   NC318807  18.562   7.204   8.979 -0.0588  0.1148 -0.0620
68903POPC   PO418808  18.816   7.420   9.197 -0.1977  0.1984  0.0423
68903POPC   GL118809  18.995   7.360   8.818 -0.0138  0.3044  0.0253
68903POPC   GL218810  19.050   7.138   8.827  0.1044  0.2781 -0.0578
68903POPC   C1A18811  18.756   7.182   8.438  0.2234 -0.2300 -0.0498
68903POPC   D2A18812  18.629   7.407   8.113 -0.0079 -0.0378 -0.0580
68903POPC   C3A18813  18.732   7.130   7.787  0.1638 -0.0188  0.2135
68903POPC   C4A18814  18.875   6.790   7.552  0.1764 -0.0702 -0.0761
68903POPC   C1B18815  19.338   7.183   8.441 -0.1542  0.0572  0.0426
68903POPC   C2B18816  19.696   7.152   8.120  0.2750  0.1185  0.0870
68903POPC   C3B18817  19.876   6.992   7.714  0.3490  0.3594 -0.1824
68903POPC   C4B18818  19.874   6.943   7.276 -0.1575  0.0990 -0.1983
68904POPC   NC318819  29.659   2.464  10.039 -0.2503  0.0884  0.0244
68904POPC   PO418820  29.635   2.809  10.233  0.0471 -0.1898 -0.0931
68904POPC   GL118821  29.414   3.109  10.210 -0.1536  0.1785  0.2881
68904POPC   GL218822  29.480   3.346  10.419 -0.3158 -0.1152 -0.0508
68904POPC   C1A18823  29.300   3.460   9.972 -0.1465 -0.2189  0.0840
68904POPC   D2A18824  29.059   3.884   9.805  0.0507  0.1654  0.0698
68904POPC   C3A18825  29.117   4.001   9.370 -0.1688 -0.3856  0.2510
68904POPC   C4A18826  29.321   4.113   8.969 -0.2288 -0.0909  0.1704
68904POPC   C1B18827  29.072   3.495  10.398 -0.1785 -0.2511  0.0025
68904POPC   C2B18828  28.729   3.686  10.216  0.0686  0.1052  0.0673
68904POPC   C3B18829  28.559   4.106  10.343 -0.2261 -0.1246 -0.5140
68904POPC   C4B18830  28.141   4.295  10.484 -0.0153  0.2528  0.0005
68905POPC   NC318831  18.456   6.625   9.276  0.2602 -0.4089 -0.1488
68905POPC   PO418832  18.265   6.290   9.355 -0.0251  0.0681  0.0695
68905POPC   GL118833  18.204   6.377   8.986 -0.3176 -0.2266 -0.1918
68905POPC   GL218834  18.482   6.201   8.813 -0.1657 -0.0271 -0.1589
68905POPC   C1A18835  18.474   6.702   8.797 -0.1510 -0.0778  0.0938
68905POPC   D2A18836  18.647   6.695   8.380  0.1073  0.3491  0.1386
68905POPC   C3A18837  18.555   6.581   7.962 -0.3199 -0.0056 -0.2178
68905POPC   C4A18838  18.318   6.226   7.696 -0.0315  0.0249  0.1361
68905POPC   C1B18839  18.883   6.275   8.565  0.0668 -0.0601 -0.3148
68905POPC   C2B18840  19.205   6.235   8.267  0.2846  0.2742  0.2401
68905POPC   C3B18841  19.369   6.112   7.879  0.1139 -0.0177  0.3488
68905POPC   C4B18842  19.195   5.862   7.528 -0.1117  0.1788 -0.0490
68906POPC   NC318843  30.702  11.692   9.122 -0.1669  0.2213  0.0662
68906POPC   PO418844  30.460  11.750   8.851  0.2428  0.1887  0.0965
68906POPC   GL118845  30.244  11.769   8.600  0.0632  0.1185  0.2558
68906POPC   GL218846  29.939  11.866   8.606  0.0222  0.0946  0.0017
68906POPC   C1A18847  30.236  11.899   8.183 -0.1784  0.1174  0.1379
68906POPC   D2A18848  30.483  12.021   7.869 -0.1821 -0.0521  0.1111
68906POPC   C3A18849  30.512  11.910   7.398 -0.2490  0.1624  0.0747
68906POPC   C4A18850  30.453  11.739   7.008 -0.2143  0.1056 -0.1428
68906POPC   C1B18851  29.750  11.750   8.151  0.0900 -0.0038 -0.1555
68906POPC   C2B18852  29.674  11.743   7.691  0.1648 -0.3011  0.0192
68906POPC   C3B18853  29.565  11.620   7.256  0.0746  0.5632  0.1091
68906POPC   C4B18854  29.282  11.898   7.001  0.2916 -0.3690 -0.3692
68907POPC   NC318855  24.431  32.585  13.951 -0.1089  0.0122  0.4090
68907POPC   PO418856  24.170  32.920  13.983 -0.2396  0.2727 -0.0325
68907POPC   GL118857  24.254  33.182  14.315  0.0175 -0.3080 -0.0388
68907POPC   GL218858  24.138  33.254  14.571 -0.4572  0.1541 -0.2819
68907POPC   C1A18859  24.459  33.600  14.114  0.0567  0.2553 -0.1834
68907POPC   D2A18860  24.671  33.790  13.737  0.0789 -0.2668  0.0259
68907POPC   C3A18861  24.981  34.048  13.479 -0.2460 -0.2695 -0.1059
68907POPC   C4A18862  25.195  34.437  13.268  0.2343  0.0508  0.3966
68907POPC   C1B18863  24.283  33.118  15.021  0.1233  0.1920  0.0747
68907POPC   C2B18864  24.372  33.349  15.363  0.0989  0.2184 -0.0275
68907POPC   C3B18865  24.514  33.450  15.815 -0.3895  0.0352 -0.3077
68907POPC   C4B18866  24.939  33.523  15.996  0.1197 -0.0829  0.2271
68908POPC   NC318867  29.692  15.193   7.978  0.2164 -0.0112 -0.1224
68908POPC   PO418868  29.673  15.605   8.044 -0.0374 -0.0453 -0.2783
68908POPC   GL118869  29.665  15.819   7.748 -0.0097  0.0025 -0.1353
68908POPC   GL218870  29.889  16.052   7.698 -0.1908 -0.1041 -0.0786
68908POPC   C1A18871  29.293  15.915   7.466  0.1722 -0.1700  0.0300
68908POPC   D2A18872  29.164  16.128   7.102  0.0060 -0.2084  0.3112
68908POPC   C3A18873  28.836  16.244   6.821 -0.0788  0.0183 -0.0213
68908POPC   C4A18874  28.629  16.650   6.767  0.1543 -0.0470  0.2818
68908POPC   C1B18875  29.760  16.172   7.341  0.1608  0.1085  0.0411
68908POPC   C2B18876  29.578  16.323   6.959 -0.0588 -0.0732  0.1898
68908POPC   C3B18877  29.243  16.614   6.787  0.1447 -0.4963 -0.1012
68908POPC   C4B18878  29.087  16.975   6.541 -0.1532 -0.2336 -0.1542
68909POPC   NC318879  19.020  14.952   7.940 -0.0578 -0.1031  0.0799
68909POPC   PO418880  18.714  15.168   8.105 -0.0251  0.3273  0.1114
68909POPC   GL118881  18.711  15.235   7.641  0.0763 -0.0827  0.0054
68909POPC   GL218882  18.931  15.396   7.727  0.0057  0.2721  0.0619
68909POPC   C1A18883  18.906  15.303   7.258 -0.1349 -0.0311 -0.0738
68909POPC   D2A18884  19.060  15.331   6.857 -0.0411 -0.2157 -0.4088
68909POPC   C3A18885  18.777  15.344   6.553 -0.2243  0.4980 -0.1603
68909POPC   C4A18886  18.427  15.268   6.286 -0.1367 -0.0790  0.0319
68909POPC   C1B18887  19.335  15.307   7.558  0.0774 -0.1787  0.0925
68909POPC   C2B18888  19.492  15.406   7.195 -0.3214  0.0190 -0.3088
68909POPC   C3B18889  19.482  15.633   6.841 -0.0052 -0.2468 -0.2461
68909POPC   C4B18890  19.231  15.693   6.467 -0.0249  0.0905  0.0802
68910POPC   NC318891  32.485   4.014   9.396  0.1287  0.1246  0.0540
68910POPC   PO418892  32.547   3.720   9.138 -0.0588  0.4038 -0.1134
68910POPC   GL118893  32.359   3.917   8.887 -0.1486  0.0942  0.0680
68910POPC   GL218894  32.181   3.824   8.660  0.1111  0.1333 -0.1629
68910POPC   C1A18895  32.161   4.287   8.735  0.1866 -0.0820 -0.0817
68910POPC   D2A18896  32.016   4.437   8.389  0.4075  0.0492  0.0686
68910POPC   C3A18897  32.034   4.301   7.972 -0.3140 -0.1242 -0.1377
68910POPC   C4A18898  31.893   4.224   7.525 -0.1219  0.0541  0.2371
68910POPC   C1B18899  32.240   3.581   8.289 -0.0491  0.0516  0.1259
68910POPC   C2B18900  32.204   3.487   7.821 -0.1899 -0.1372 -0.1570
68910POPC   C3B18901  32.209   3.243   7.423 -0.0855  0.1874  0.2409
68910POPC   C4B18902  32.289   3.003   7.066  0.1820  0.0570 -0.2041
68911POPC   NC318903  17.442   4.462   8.924  0.1141 -0.0879  0.0438
68911POPC   PO418904  17.841   4.527   9.085 -0.1995 -0.2324  0.2184
68911POPC   GL118905  17.929   4.224   8.827  0.0968 -0.2154  0.1630
68911POPC   GL218906  17.791   4.195   8.606 -0.1844  0.0755  0.3304
68911POPC   C1A18907  18.224   4.167   8.449  0.0783  0.1839  0.1461
68911POPC   D2A18908  18.663   4.274   8.346 -0.2467 -0.0170  0.1965
68911POPC   C3A18909  18.932   4.317   7.950  0.1149 -0.2441 -0.2705
68911POPC   C4A18910  19.192   4.364   7.565 -0.0651  0.2505  0.0758
68911POPC   C1B18911  17.801   4.408   8.208  0.1290  0.0675 -0.1198
68911POPC   C2B18912  17.908   4.553   7.756 -0.2148 -0.1650 -0.2526
68911POPC   C3B18913  18.025   4.864   7.398  0.0552  0.1269  0.0503
68911POPC   C4B18914  17.762   4.980   7.053 -0.3635 -0.3085 -0.0803
68912POPC   NC318915  31.537  17.159   8.825 -0.0514 -0.1116  0.0236
68912POPC   PO418916  31.213  17.360   8.699 -0.1948 -0.1867  0.1498
68912POPC   GL118917  31.307  17.309   8.331  0.0831  0.1129  0.1960
68912POPC   GL218918  31.045  17.367   8.132  0.0933 -0.0923  0.2803
68912POPC   C1A18919  31.441  17.072   8.010 -0.3213  0.2903  0.0901
68912POPC   D2A18920  31.482  17.159   7.605 -0.1421 -0.1760 -0.1152
68912POPC   C3A18921  31.627  17.184   7.204 -0.3231  0.0100  0.1312
68912POPC   C4A18922  31.756  17.102   6.744  0.3425 -0.0070 -0.2623
68912POPC   C1B18923  31.254  17.627   7.801  0.1380 -0.1177  0.3939
68912POPC   C2B18924  31.239  17.677   7.347  0.0379  0.2455 -0.1909
68912POPC   C3B18925  30.957  17.748   6.992 -0.1075 -0.1867  0.3157
68912POPC   C4B18926  30.881  17.725   6.565 -0.0038 -0.3244  0.0259
68913POPC   NC318927  32.143   1.332  15.867 -0.1712 -0.2983  0.0663
68913POPC   PO418928  32.442   1.036  15.919 -0.1177  0.1370  0.1562
68913POPC   GL118929  32.280   1.075  16.317  0.0296  0.1948 -0.0952
68913POPC   GL218930  32.510   0.924  16.409  0.2485  0.0422 -0.1994
68913POPC   C1A18931  32.384   1.307  16.686 -0.1466  0.3553  0.0580
68913POPC   D2A18932  32.603   1.361  17.091  0.1332 -0.4801  0.0891
68913POPC   C3A18933  32.405   1.636  17.313  0.1574 -0.0509 -0.0276
68913POPC   C4A18934  32.093   1.901  17.535 -0.0503  0.0399 -0.1582
68913POPC   C1B18935  32.752   1.011  16.790 -0.0568 -0.1837  0.2102
68913POPC   C2B18936  32.821   0.856  17.192 -0.2815  0.2559 -0.1453
68913POPC   C3B18937  32.964   0.980  17.603  0.3247  0.3118  0.1022
68913POPC   C4B18938  32.996   1.165  18.053 -0.1139  0.0024  0.1927
68914POPC   NC318939  22.975  11.630   9.177 -0.0269  0.0188  0.2269
68914POPC   PO418940  23.091  11.430   9.478  0.0248 -0.0002 -0.1066
68914POPC   GL118941  23.327  11.237   9.267 -0.1162  0.1778 -0.3700
68914POPC   GL218942  23.066  11.035   9.171 -0.4147  0.4529 -0.0122
68914POPC   C1A18943  23.616  10.879   9.161  0.2450  0.0654 -0.2932
68914POPC   D2A18944  24.090  10.888   9.152 -0.0848 -0.2797  0.1021
68914POPC   C3A18945  24.171  11.051   8.727  0.2470 -0.0092 -0.2434
68914POPC   C4A18946  23.996  11.102   8.325  0.1097  0.0080 -0.0843
68914POPC   C1B18947  23.247  10.945   8.757 -0.3310  0.0228  0.2861
68914POPC   C2B18948  23.418  10.995   8.339 -0.1135 -0.3326 -0.0609
68914POPC   C3B18949  23.618  11.253   8.014 -0.3980 -0.1700 -0.0190
68914POPC   C4B18950  23.439  11.306   7.553  0.0114 -0.2200  0.1533
68915POPC   NC318951  22.129  12.542   8.523  0.0676  0.0303  0.1037
68915POPC   PO418952  22.438  12.304   8.609  0.1297 -0.2717 -0.2868
68915POPC   GL118953  22.524  12.418   8.261  0.0173 -0.2595  0.3322
68915POPC   GL218954  22.334  12.503   8.025  0.1829  0.1959 -0.1068
68915POPC   C1A18955  22.783  12.356   7.854 -0.3676 -0.2345 -0.1044
68915POPC   D2A18956  22.810  12.188   7.399  0.2741  0.0151 -0.0867
68915POPC   C3A18957  23.239  12.179   7.164  0.1205 -0.2006  0.0214
68915POPC   C4A18958  23.646  12.477   7.255  0.4431  0.1433  0.1303
68915POPC   C1B18959  22.443  12.536   7.586  0.1688 -0.0070  0.2059
68915POPC   C2B18960  22.459  12.500   7.111 -0.0458 -0.2544 -0.2584
68915POPC   C3B18961  22.257  12.230   6.838  0.1894  0.3945  0.0176
68915POPC   C4B18962  22.216  11.752   6.813 -0.1706  0.1719 -0.1323
68916POPC   NC318963  25.225   1.229  11.341  0.2647 -0.0838  0.3372
68916POPC   PO418964  25.075   0.902  11.181 -0.1032 -0.0914 -0.0861
68916POPC   GL118965  24.973   1.198  10.915  0.0329 -0.1847  0.0062
68916POPC   GL218966  25.243   1.413  10.903  0.2032 -0.1296 -0.1644
68916POPC   C1A18967  24.707   1.600  10.889 -0.0830 -0.1019  0.2107
68916POPC   D2A18968  24.502   2.024  10.911 -0.2141  0.2532 -0.0011
68916POPC   C3A18969  24.131   2.258  11.206 -0.1793 -0.0722 -0.0002
68916POPC   C4A18970  23.895   2.456  11.509 -0.1548  0.0458 -0.3246
68916POPC   C1B18971  25.477   1.797  10.867 -0.0583  0.3370  0.0672
68916POPC   C2B18972  25.595   2.268  11.008  0.0577  0.1332  0.0974
68916POPC   C3B18973  25.780   2.659  11.036 -0.1885  0.1359  0.0042
68916POPC   C4B18974  25.500   3.013  11.074 -0.2561 -0.0338  0.1035
68917POPC   NC318975  20.692   3.742  13.937  0.0100 -0.1604  0.3041
68917POPC   PO418976  20.712   3.395  13.927 -0.1328  0.1604  0.0962
68917POPC   GL118977  20.887   3.516  14.323  0.1930  0.0401 -0.0345
68917POPC   GL218978  20.597   3.680  14.472 -0.1206 -0.1753 -0.2873
68917POPC   C1A18979  21.366   3.486  14.343 -0.3487  0.1916 -0.0064
68917POPC   D2A18980  21.678   3.792  14.205  0.3581  0.0530 -0.0301
68917POPC   C3A18981  21.717   4.163  14.467 -0.2548 -0.0788 -0.1862
68917POPC   C4A18982  21.915   4.432  14.738 -0.1053 -0.3778  0.1654
68917POPC   C1B18983  20.920   3.550  14.712 -0.1134  0.0998  0.1375
68917POPC   C2B18984  20.998   3.350  15.152  0.3111  0.0654  0.0373
68917POPC   C3B18985  21.050   3.184  15.637  0.1024 -0.2246  0.1867
68917POPC   C4B18986  21.320   3.064  15.931 -0.1270 -0.1083 -0.1588
68918POPC   NC318987  27.437  16.346   9.204  0.0297 -0.0093  0.1486
68918POPC   PO418988  27.247  16.030   9.079 -0.2538 -0.0103 -0.1285
68918POPC   GL118989  27.414  16.113   8.767  0.1299 -0.1747 -0.2346
68918POPC   GL218990  27.295  16.402   8.699  0.1734 -0.0308  0.0432
68918POPC   C1A18991  27.722  16.124   8.449  0.1935 -0.0975  0.1106
68918POPC   D2A18992  27.689  15.763   8.193  0.1261  0.0434  0.0066
68918POPC   C3A18993  27.837  15.798   7.706 -0.0382 -0.0334 -0.0423
68918POPC   C4A18994  27.770  15.722   7.289  0.1081  0.0109  0.0859
68918POPC   C1B18995  27.128  16.553   8.371 -0.0045 -0.2034  0.2055
68918POPC   C2B18996  27.016  16.446   7.919  0.1116 -0.1414 -0.0663
68918POPC   C3B18997  26.991  16.678   7.533  0.0135 -0.2542  0.2537
68918POPC   C4B18998  26.911  17.070   7.208 -0.0635 -0.1011 -0.1225
68919POPC   NC318999  19.737   3.550   9.167 -0.0193 -0.0078  0.1011
68919POPC   PO419000  19.600   3.317   9.454 -0.1390  0.2279 -0.1135
68919POPC   GL119001  19.942   3.112   9.356 -0.3083  0.2295  0.3195
68919POPC   GL219002  19.836   2.990   9.149 -0.1256  0.3206  0.0160
68919POPC   C1A19003  20.170   3.280   8.958 -0.0584  0.3355 -0.0501
68919POPC   D2A19004  20.590   3.339   8.770 -0.2427  0.0023  0.1137
68919POPC   C3A19005  20.733   3.433   8.330  0.1971 -0.1991  0.2083
68919POPC   C4A19006  20.748   3.676   7.913  0.2366 -0.1620  0.2676
68919POPC   C1B19007  19.714   3.050   8.717  0.0738 -0.0814  0.0218
68919POPC   C2B19008  19.781   2.989   8.288  0.0149 -0.1642  0.2537
68919POPC   C3B19009  19.859   3.054   7.817  0.0053 -0.1134  0.3762
68919POPC   C4B19010  19.808   3.481   7.697 -0.0680 -0.2660  0.1462
68920POPC   NC319011  17.544   1.413   8.711  0.3961  0.0310 -0.2619
68920POPC   PO419012  17.353   1.689   8.545 -0.1636 -0.2923 -0.1035
68920POPC   GL119013  17.127   1.804   8.237  0.1135 -0.3681 -0.5105
68920POPC   GL219014  16.908   1.661   8.201 -0.2160 -0.1558 -0.1055
68920POPC   C1A19015  17.305   1.692   7.826  0.2682  0.4110  0.1960
68920POPC   D2A19016  17.594   1.820   7.475  0.1137 -0.1962 -0.2258
68920POPC   C3A19017  17.437   2.056   7.105 -0.1796 -0.1350 -0.1318
68920POPC   C4A19018  17.306   2.305   6.740 -0.0688 -0.0522 -0.2609
68920POPC   C1B19019  16.903   1.978   7.831 -0.0949 -0.2953 -0.0788
68920POPC   C2B19020  16.604   1.971   7.465 -0.1341 -0.0089 -0.1099
68920POPC   C3B19021  16.508   2.330   7.127 -0.2035  0.2406 -0.1891
68920POPC   C4B19022  16.578   2.329   6.716  0.0511 -0.1165  0.1337
68921POPC   NC319023  23.193   1.153  13.742  0.0037 -0.0951 -0.1666
68921POPC   PO419024  23.422   0.950  13.436  0.0531 -0.0489  0.0146
68921POPC   GL119025  23.712   1.283  13.527 -0.0267  0.1813  0.4148
68921POPC   GL219026  23.720   1.392  13.812  0.1660 -0.0424  0.2945
68921POPC   C1A19027  24.081   1.554  13.347 -0.1418  0.2977 -0.2111
68921POPC   D2A19028  24.238   2.000  13.504 -0.1634 -0.0257  0.1344
68921POPC   C3A19029  24.540   2.013  13.761  0.2941 -0.3083 -0.0870
68921POPC   C4A19030  24.802   2.266  14.034 -0.0308 -0.0008  0.2040
68921POPC   C1B19031  23.705   1.694  14.126  0.1417 -0.0054 -0.1512
68921POPC   C2B19032  23.629   1.986  14.463  0.2507  0.1745 -0.0545
68921POPC   C3B19033  23.673   2.312  14.830 -0.1201 -0.0362  0.1348
68921POPC   C4B19034  23.545   2.726  14.960 -0.2439  0.2907  0.3436
68922POPC   NC319035  30.280   3.053  10.496  0.0749  0.2247 -0.0441
68922POPC   PO419036  30.222   3.333  10.762 -0.0363 -0.1320  0.0207
68922POPC   GL119037  29.789   3.391  10.870 -0.3105  0.3228  0.1564
68922POPC   GL219038  29.527   3.243  10.929 -0.2360 -0.1125  0.1659
68922POPC   C1A19039  29.554   3.655  11.207 -0.1672  0.2582  0.2064
68922POPC   D2A19040  29.180   3.850  11.363  0.4901 -0.4847 -0.2614
68922POPC   C3A19041  29.058   4.288  11.623  0.1472 -0.0577  0.0410
68922POPC   C4A19042  28.725   4.563  11.541 -0.2792 -0.0352  0.2192
68922POPC   C1B19043  29.192   3.602  10.880 -0.1176 -0.2612 -0.0993
68922POPC   C2B19044  29.019   4.025  10.705 -0.2354  0.1058 -0.1671
68922POPC   C3B19045  28.740   4.424  10.690 -0.0613  0.0474 -0.1807
68922POPC   C4B19046  28.419   4.747  10.692 -0.2437  0.4658  0.0120
68923POPC   NC319047  31.221   4.938  10.366 -0.1783 -0.0656  0.1130
68923POPC   PO419048  31.118   5.298  10.348  0.0435 -0.0227 -0.0682
68923POPC   GL119049  30.733   5.273  10.268 -0.2044  0.0102  0.1984
68923POPC   GL219050  30.610   5.303  10.527 -0.0442 -0.0112  0.0967
68923POPC   C1A19051  30.351   5.493  10.106  0.3782  0.2502 -0.0394
68923POPC   D2A19052  30.364   5.643   9.638 -0.1132  0.0088 -0.2382
68923POPC   C3A19053  29.939   5.871   9.517  0.0314 -0.0430 -0.2299
68923POPC   C4A19054  29.596   5.566   9.520 -0.2297 -0.0117  0.0209
68923POPC   C1B19055  30.121   5.242  10.579 -0.1106 -0.2453  0.0210
68923POPC   C2B19056  29.651   5.252  10.422 -0.1053 -0.0208  0.0115
68923POPC   C3B19057  29.274   5.494  10.514  0.0471  0.3241 -0.2813
68923POPC   C4B19058  28.834   5.602  10.446 -0.1879 -0.1964  0.0515
68924POPC   NC319059  31.373   5.589  13.787 -0.0946  0.1209 -0.0005
68924POPC   PO419060  31.020   5.653  13.723  0.1203 -0.1175 -0.2148
68924POPC   GL119061  30.578   5.673  13.816  0.3733 -0.0545 -0.0255
68924POPC   GL219062  30.425   5.805  13.678 -0.1854  0.1527  0.0822
68924POPC   C1A19063  30.112   5.713  13.986  0.1854 -0.1191 -0.2540
68924POPC   D2A19064  29.784   5.979  14.227 -0.2186 -0.4632 -0.0057
68924POPC   C3A19065  29.363   6.013  14.151 -0.1936  0.0851  0.5932
68924POPC   C4A19066  28.985   5.798  14.174 -0.2585  0.0576 -0.0287
68924POPC   C1B19067  30.450   5.996  13.258  0.1688 -0.0712 -0.1386
68924POPC   C2B19068  30.116   6.240  13.131 -0.0741 -0.4498 -0.1198
68924POPC   C3B19069  29.682   6.291  13.276 -0.0583  0.2044 -0.0656
68924POPC   C4B19070  29.296   6.492  13.216 -0.0060  0.1275 -0.0616
68925POPC   NC319071  28.007  14.348   9.073 -0.3233  0.1639 -0.2800
68925POPC   PO419072  28.079  14.691   8.929  0.1500 -0.0638  0.2262
68925POPC   GL119073  27.811  14.537   8.705  0.0063  0.6982 -0.0797
68925POPC   GL219074  27.828  14.199   8.558  0.0738  0.0933  0.3880
68925POPC   C1A19075  27.972  14.585   8.251 -0.0800  0.0075 -0.2668
68925POPC   D2A19076  27.783  14.817   7.886  0.0708 -0.0718  0.0246
68925POPC   C3A19077  27.961  14.845   7.463  0.1444 -0.0378 -0.3423
68925POPC   C4A19078  28.047  14.585   7.086  0.0365  0.0758 -0.1079
68925POPC   C1B19079  27.562  14.367   8.254  0.0511  0.2358 -0.3511
68925POPC   C2B19080  27.312  14.501   7.899 -0.0865  0.2552 -0.1789
68925POPC   C3B19081  27.113  14.219   7.564  0.1061  0.1573  0.2094
68925POPC   C4B19082  26.941  14.293   7.124 -0.2235 -0.1772  0.0248
68926POPC   NC319083  22.221  10.578   9.412  0.0066 -0.0006  0.1302
68926POPC   PO419084  22.546  10.756   9.249  0.0778 -0.3313 -0.3313
68926POPC   GL119085  22.538  10.454   8.885 -0.1127  0.0247 -0.4208
68926POPC   GL219086  22.344  10.201   8.944  0.1821  0.0522 -0.1648
68926POPC   C1A19087  22.809  10.317   8.593 -0.3566 -0.1704 -0.0662
68926POPC   D2A19088  22.691  10.093   8.234 -0.1890  0.2507  0.0227
68926POPC   C3A19089  23.148   9.915   8.102 -0.0612 -0.0790  0.1625
68926POPC   C4A19090  23.450   9.783   7.735  0.1713  0.1675  0.1366
68926POPC   C1B19091  22.288  10.132   8.518 -0.0084  0.2389  0.0555
68926POPC   C2B19092  22.253   9.937   8.070 -0.0455  0.1020 -0.2107
68926POPC   C3B19093  22.272  10.016   7.621  0.1921  0.0591 -0.0511
68926POPC   C4B19094  22.120   9.995   7.227  0.0164 -0.0593 -0.0125
68927POPC   NC319095  23.482   1.718  10.925  0.3229 -0.1670  0.1588
68927POPC   PO419096  23.694   1.414  10.790  0.0677 -0.1767  0.1586
68927POPC   GL119097  23.709   1.642  10.483 -0.2011 -0.3527  0.1008
68927POPC   GL219098  23.693   1.565  10.251  0.1462  0.0762 -0.3926
68927POPC   C1A19099  23.929   2.016  10.322  0.1371 -0.1637 -0.1914
68927POPC   D2A19100  24.309   2.243  10.079  0.0193  0.2289  0.1296
68927POPC   C3A19101  24.504   2.666  10.170  0.0876 -0.0899  0.0533
68927POPC   C4A19102  24.751   3.035  10.043 -0.0222 -0.3987 -0.0419
68927POPC   C1B19103  23.582   1.630   9.848  0.2576  0.1933  0.3514
68927POPC   C2B19104  23.561   1.935   9.539 -0.2619 -0.2102 -0.0864
68927POPC   C3B19105  23.761   2.051   9.119  0.0201  0.0497 -0.0746
68927POPC   C4B19106  24.122   2.303   9.000 -0.1388 -0.0546 -0.0843
68928POPC   NC319107  24.714   0.190  14.042  0.1642  0.0782 -0.0767
68928POPC   PO419108  25.011   0.403  13.852 -0.5041  0.0438  0.0347
68928POPC   GL119109  24.981   0.778  14.068  0.1287 -0.2397  0.0719
68928POPC   GL219110  25.213   0.765  14.219 -0.0177 -0.1254  0.0018
68928POPC   C1A19111  24.988   1.239  14.087  0.0533  0.0748  0.0827
68928POPC   D2A19112  25.038   1.411  14.530 -0.1781  0.0019  0.3357
68928POPC   C3A19113  25.363   1.517  14.842  0.0960 -0.0280  0.0685
68928POPC   C4A19114  25.431   1.271  15.213  0.1169 -0.0330  0.1120
68928POPC   C1B19115  25.347   1.026  14.554  0.1711 -0.2520 -0.1224
68928POPC   C2B19116  25.763   1.151  14.854  0.0729  0.1548 -0.0979
68928POPC   C3B19117  26.156   1.289  15.067  0.0461  0.0633 -0.2725
68928POPC   C4B19118  26.403   1.522  15.401  0.0524 -0.1487  0.2461
68929POPC   NC319119  30.184   2.551   9.601  0.1786 -0.2589 -0.1865
68929POPC   PO419120  30.523   2.696   9.716 -0.0423  0.0424 -0.3561
68929POPC   GL119121  30.389   2.905   9.443  0.3057 -0.5913  0.1368
68929POPC   GL219122  30.225   3.093   9.636 -0.0611  0.0224  0.0797
68929POPC   C1A19123  30.226   2.956   8.958  0.3060  0.0240  0.0690
68929POPC   D2A19124  30.051   2.988   8.542  0.2511 -0.0441 -0.0225
68929POPC   C3A19125  29.658   3.144   8.474  0.2266 -0.1129 -0.1072
68929POPC   C4A19126  29.476   3.543   8.323 -0.2034 -0.0741 -0.1127
68929POPC   C1B19127  29.962   3.184   9.317  0.0665  0.3580  0.1603
68929POPC   C2B19128  29.874   3.337   8.878  0.1702 -0.0646  0.0516
68929POPC   C3B19129  29.711   3.780   8.710 -0.1153  0.4299 -0.0018
68929POPC   C4B19130  29.599   4.080   8.401 -0.0616  0.0177 -0.1565
68930POPC   NC319131  20.940  14.298   8.586  0.0694 -0.1394  0.0518
68930POPC   PO419132  20.766  14.022   8.392 -0.1789  0.4698 -0.2112
68930POPC   GL119133  20.714  14.056   7.973 -0.0618  0.0093  0.0792
68930POPC   GL219134  20.897  13.919   7.842  0.1330  0.3523 -0.0216
68930POPC   C1A19135  20.473  14.221   7.632  0.0844 -0.2346  0.0080
68930POPC   D2A19136  20.497  14.546   7.292 -0.0084  0.0610  0.2425
68930POPC   C3A19137  20.903  14.563   7.064 -0.0684 -0.0575 -0.0143
68930POPC   C4A19138  20.977  14.595   6.635  0.1944 -0.0215  0.2674
68930POPC   C1B19139  20.958  14.110   7.410  0.1563  0.1798 -0.3491
68930POPC   C2B19140  21.002  13.977   6.979 -0.1698 -0.0803 -0.0358
68930POPC   C3B19141  21.107  14.025   6.497 -0.3614  0.0841  0.0891
68930POPC   C4B19142  21.106  13.963   6.018 -0.3601 -0.0060 -0.2141
68931POPC   NC319143  24.019  11.654   9.485 -0.0873  0.1149  0.1255
68931POPC   PO419144  24.347  11.817   9.491  0.0478  0.3061  0.2124
68931POPC   GL119145  24.539  11.705   9.143 -0.3202 -0.1420 -0.1035
68931POPC   GL219146  24.596  11.385   9.233  0.1529 -0.2619 -0.0921
68931POPC   C1A19147  24.948  11.755   9.094 -0.2160  0.2564  0.0114
68931POPC   D2A19148  25.371  11.631   8.906 -0.2133 -0.2245  0.1778
68931POPC   C3A19149  25.731  11.512   8.671  0.2333 -0.2263 -0.1960
68931POPC   C4A19150  25.857  11.627   8.210  0.0660 -0.1787 -0.2631
68931POPC   C1B19151  24.977  11.256   9.044  0.3842  0.2118  0.2936
68931POPC   C2B19152  25.101  11.330   8.618  0.3007  0.0715 -0.1688
68931POPC   C3B19153  25.415  11.222   8.277 -0.0630 -0.1012  0.1339
68931POPC   C4B19154  25.561  11.320   7.855 -0.1375 -0.0239 -0.0916
68932POPC   NC319155  30.393  16.108   9.091  0.0773  0.1086  0.1840
68932POPC   PO419156  30.344  15.899   8.762  0.1140  0.1415  0.0887
68932POPC   GL119157  30.204  16.186   8.381  0.0616 -0.1630 -0.2639
68932POPC   GL219158  30.448  16.083   8.248 -0.3730 -0.0672 -0.0866
68932POPC   C1A19159  30.033  16.415   8.013 -0.0167  0.1955 -0.4774
68932POPC   D2A19160  30.199  16.697   7.702 -0.2353 -0.1663 -0.2035
68932POPC   C3A19161  30.225  16.662   7.240  0.4277  0.0790 -0.3997
68932POPC   C4A19162  30.134  16.367   6.960 -0.2558 -0.0953 -0.1037
68932POPC   C1B19163  30.322  15.983   7.795 -0.1903 -0.0768 -0.1851
68932POPC   C2B19164  30.352  16.078   7.327 -0.0516 -0.1517 -0.1171
68932POPC   C3B19165  30.567  16.070   6.921  0.1299 -0.2002 -0.0044
68932POPC   C4B19166  30.570  15.860   6.543  0.0304  0.0519  0.1992
68933POPC   NC319167  27.693  14.954   8.871  0.1079  0.3257 -0.0760
68933POPC   PO419168  27.717  15.290   8.869 -0.0943 -0.0892 -0.0442
68933POPC   GL119169  27.804  15.347   8.533 -0.0019  0.3329  0.4261
68933POPC   GL219170  28.013  15.492   8.411 -0.0341  0.0817 -0.1983
68933POPC   C1A19171  27.621  15.291   8.098 -0.1110  0.0523 -0.1062
68933POPC   D2A19172  27.403  15.371   7.623  0.1890  0.1165 -0.2637
68933POPC   C3A19173  27.009  15.163   7.407 -0.0474 -0.1317 -0.1798
68933POPC   C4A19174  26.996  14.770   7.161 -0.0662  0.1562  0.0108
68933POPC   C1B19175  28.113  15.431   7.989  0.0440 -0.0810  0.2373
68933POPC   C2B19176  27.909  15.329   7.593  0.1563  0.2053  0.0326
68933POPC   C3B19177  27.916  15.169   7.134 -0.1094  0.5049 -0.0403
68933POPC   C4B19178  27.688  14.896   6.775  0.0739 -0.2689 -0.2031
68934POPC   NC319179  22.486  15.234   9.286  0.2496 -0.0508  0.0563
68934POPC   PO419180  22.363  15.394   8.952  0.0368  0.3399  0.0653
68934POPC   GL119181  22.353  15.438   8.541  0.1818  0.2453  0.1971
68934POPC   GL219182  22.274  15.648   8.426 -0.2389 -0.0853  0.1621
68934POPC   C1A19183  22.269  15.193   8.117 -0.1081 -0.0483 -0.0455
68934POPC   D2A19184  22.224  15.219   7.660  0.3423 -0.1148  0.1435
68934POPC   C3A19185  22.231  15.389   7.217 -0.0108  0.0505  0.0301
68934POPC   C4A19186  22.038  15.434   6.824 -0.0054 -0.0448  0.1138
68934POPC   C1B19187  22.468  15.958   8.107 -0.1321 -0.1355 -0.0670
68934POPC   C2B19188  22.598  16.127   7.719 -0.0415  0.0944  0.3119
68934POPC   C3B19189  22.705  16.241   7.276 -0.1654  0.1876 -0.5185
68934POPC   C4B19190  22.770  16.076   6.863 -0.0730  0.3009  0.0993
68935POPC   NC319191  21.246   1.889  14.655  0.2462 -0.2369  0.1601
68935POPC   PO419192  20.900   2.100  14.684  0.0337 -0.0036  0.0501
68935POPC   GL119193  21.069   2.273  14.960  0.0323  0.0153  0.2138
68935POPC   GL219194  21.161   2.162  15.218 -0.1580  0.0817  0.1892
68935POPC   C1A19195  20.724   2.436  15.261  0.1366 -0.0867  0.0958
68935POPC   D2A19196  20.449   2.681  15.476 -0.1718  0.0118  0.0661
68935POPC   C3A19197  20.312   2.659  15.914 -0.2044  0.1344 -0.0986
68935POPC   C4A19198  20.050   2.571  16.333 -0.1868  0.1373 -0.2766
68935POPC   C1B19199  21.097   2.277  15.677  0.0950 -0.1800 -0.0322
68935POPC   C2B19200  21.310   2.491  16.062 -0.2479  0.2782 -0.1304
68935POPC   C3B19201  21.456   2.756  16.402 -0.2771  0.2627  0.2156
68935POPC   C4B19202  21.176   3.056  16.582  0.3849  0.1093 -0.1147
68936POPC   NC319203  28.649  12.306   9.550 -0.1177  0.0181 -0.1821
68936POPC   PO419204  28.822  12.573   9.331  0.0264  0.2111 -0.3300
68936POPC   GL119205  28.994  12.394   9.003 -0.3358 -0.2695 -0.0158
68936POPC   GL219206  28.780  12.249   8.928 -0.0534  0.1428  0.0990
68936POPC   C1A19207  29.178  12.322   8.598  0.1506  0.0146  0.0581
68936POPC   D2A19208  29.489  12.054   8.460  0.2693  0.3682 -0.0269
68936POPC   C3A19209  29.182  11.797   8.233 -0.1827 -0.2139  0.0186
68936POPC   C4A19210  29.189  11.551   7.810 -0.2317 -0.3744  0.0124
68936POPC   C1B19211  28.735  12.109   8.492  0.1312  0.1233  0.1987
68936POPC   C2B19212  28.610  11.835   8.225 -0.1633  0.0292 -0.0014
68936POPC   C3B19213  28.477  11.607   7.820 -0.0681 -0.0861  0.3273
68936POPC   C4B19214  28.308  11.541   7.405  0.2065  0.3443 -0.0255
68937POPC   NC319215  23.083   1.379  12.571  0.2323 -0.3116 -0.1412
68937POPC   PO419216  22.884   1.675  12.369 -0.0452 -0.3332 -0.0152
68937POPC   GL119217  23.017   2.055  12.423 -0.3519 -0.0841  0.2876
68937POPC   GL219218  23.264   1.974  12.464 -0.2330 -0.2235  0.0982
68937POPC   C1A19219  22.982   2.308  12.847  0.2449  0.2400  0.3017
68937POPC   D2A19220  23.213   2.623  13.016 -0.0701 -0.0105  0.1323
68937POPC   C3A19221  23.023   2.850  13.342  0.4680 -0.0642 -0.0589
68937POPC   C4A19222  23.045   3.314  13.476  0.0383 -0.1437  0.1362
68937POPC   C1B19223  23.724   2.061  12.438  0.2779  0.0916 -0.1206
68937POPC   C2B19224  24.098   2.299  12.547 -0.3354  0.0083 -0.2806
68937POPC   C3B19225  24.250   2.452  12.901 -0.0093  0.0823  0.0003
68937POPC   C4B19226  24.450   2.791  13.090  0.1354  0.1359 -0.2302
68938POPC   NC319227  20.389   4.005   9.588  0.2821 -0.0047 -0.2063
68938POPC   PO419228  20.029   3.875   9.476  0.0836  0.0240  0.2237
68938POPC   GL119229  19.774   4.041   9.176 -0.1333 -0.0895  0.0393
68938POPC   GL219230  20.014   3.949   8.963 -0.0852 -0.0094 -0.1849
68938POPC   C1A19231  19.672   4.362   8.786 -0.0422  0.2785  0.0943
68938POPC   D2A19232  19.812   4.561   8.417  0.1755 -0.1858 -0.0306
68938POPC   C3A19233  19.870   4.820   8.055  0.1425 -0.2062 -0.0990
68938POPC   C4A19234  19.820   5.033   7.558 -0.2732 -0.1297  0.2455
68938POPC   C1B19235  19.925   4.046   8.535 -0.2203 -0.2304  0.0550
68938POPC   C2B19236  19.984   4.205   8.147  0.0707 -0.0272  0.3355
68938POPC   C3B19237  20.229   4.496   7.838  0.2005 -0.0739 -0.0929
68938POPC   C4B19238  20.645   4.730   7.906  0.0522  0.0108  0.2611
68939POPC   NC319239   0.615   9.931   9.279 -0.2464 -0.1881 -0.1885
68939POPC   PO419240   0.384  10.078   9.001 -0.2440  0.0316  0.0694
68939POPC   GL119241   0.365   9.948   8.622 -0.1138 -0.0894  0.4901
68939POPC   GL219242   0.334  10.231   8.511 -0.2498 -0.3337  0.1974
68939POPC   C1A19243   0.395   9.578   8.395 -0.1342  0.1974  0.0898
68939POPC   D2A19244   0.118   9.293   8.126  0.0662 -0.1651  0.1509
68939POPC   C3A19245   0.421   9.299   7.761  0.2758  0.1269  0.0980
68939POPC   C4A19246   0.425   9.120   7.288 -0.0599  0.2102  0.1411
68939POPC   C1B19247   0.083  10.368   8.078  0.1084  0.1873  0.1972
68939POPC   C2B19248   0.081  10.461   7.643  0.1582 -0.0931 -0.0239
68939POPC   C3B19249   0.300  10.538   7.294  0.0420  0.0123  0.1013
68939POPC   C4B19250   0.607  10.518   6.956  0.3252  0.2510 -0.1086
68940POPC   NC319251  22.567  14.441   8.498  0.3042  0.3811  0.1003
68940POPC   PO419252  22.919  14.429   8.362 -0.1351  0.2849 -0.0970
68940POPC   GL119253  22.987  14.699   8.036 -0.1962 -0.1527  0.0412
68940POPC   GL219254  23.086  14.488   7.849 -0.3492 -0.0613 -0.0505
68940POPC   C1A19255  23.292  15.035   7.835  0.1969 -0.2073  0.0034
68940POPC   D2A19256  23.692  15.205   7.754  0.0015  0.4748 -0.1449
68940POPC   C3A19257  23.681  15.496   7.406  0.0923  0.2005  0.1129
68940POPC   C4A19258  23.922  15.428   7.009 -0.1466 -0.0597  0.2475
68940POPC   C1B19259  23.133  14.369   7.387  0.1697  0.2154 -0.0741
68940POPC   C2B19260  23.313  14.596   7.057 -0.0646 -0.0662 -0.1562
68940POPC   C3B19261  23.493  14.895   6.730  0.2527  0.0384  0.0872
68940POPC   C4B19262  23.747  15.158   6.534 -0.4686 -0.1549  0.0915
68941POPC   NC319263  28.560  10.304  11.515 -0.3184  0.1899 -0.2562
68941POPC   PO419264  28.611   9.978  11.690  0.0737 -0.0161  0.1483
68941POPC   GL119265  28.463   9.793  11.380 -0.2537 -0.3609  0.1491
68941POPC   GL219266  28.313   9.601  11.531 -0.1569 -0.0857  0.0341
68941POPC   C1A19267  28.384   9.357  11.134 -0.3890 -0.0551 -0.0660
68941POPC   D2A19268  28.280   8.962  11.320 -0.0678  0.3588 -0.0561
68941POPC   C3A19269  28.445   8.590  11.211  0.1809  0.2460 -0.3214
68941POPC   C4A19270  28.467   8.240  10.918 -0.2324  0.1011 -0.1912
68941POPC   C1B19271  28.030   9.295  11.683  0.3059 -0.1635  0.3353
68941POPC   C2B19272  27.728   8.895  11.602  0.1285 -0.0950  0.0547
68941POPC   C3B19273  27.519   8.462  11.626 -0.0610  0.0646  0.0170
68941POPC   C4B19274  27.396   8.024  11.451  0.0931 -0.1124  0.0996
68942POPC   NC319275  28.010   0.843  13.290  0.0855 -0.0302  0.0531
68942POPC   PO419276  27.746   0.663  13.056 -0.2361 -0.0539 -0.0140
68942POPC   GL119277  27.692   1.199  13.090  0.2538  0.1733 -0.2040
68942POPC   GL219278  27.621   1.250  13.402 -0.0712 -0.2781 -0.1356
68942POPC   C1A19279  27.890   1.592  13.147  0.0463 -0.0815 -0.2330
68942POPC   D2A19280  28.020   1.731  13.526  0.3594  0.0440 -0.2814
68942POPC   C3A19281  27.798   2.064  13.763  0.1919  0.1404 -0.2211
68942POPC   C4A19282  27.535   2.112  14.169  0.3035 -0.1182 -0.4172
68942POPC   C1B19283  27.491   1.606  13.666  0.1261 -0.0745 -0.1583
68942POPC   C2B19284  27.448   1.619  14.144  0.0031  0.3333  0.0781
68942POPC   C3B19285  27.328   1.827  14.527 -0.0865 -0.0831 -0.1298
68942POPC   C4B19286  26.901   1.760  14.603  0.1202 -0.1416 -0.2360
68943POPC   NC319287  22.767  10.271   9.293 -0.3284  0.0991  0.0869
68943POPC   PO419288  22.437  10.128   9.397  0.1429 -0.0024 -0.2061
68943POPC   GL119289  22.682   9.751   9.188 -0.3360  0.0471 -0.4100
68943POPC   GL219290  22.846   9.900   8.973  0.2240 -0.2086 -0.1538
68943POPC   C1A19291  22.848   9.417   8.904 -0.2518  0.0229 -0.0355
68943POPC   D2A19292  23.021   9.045   8.723  0.0090 -0.0142  0.2802
68943POPC   C3A19293  23.429   9.245   8.518  0.0598  0.0247 -0.0212
68943POPC   C4A19294  23.726   9.283   8.176 -0.1573 -0.2859 -0.0792
68943POPC   C1B19295  23.090   9.911   8.603  0.1198  0.2561  0.3406
68943POPC   C2B19296  23.434   9.712   8.467  0.1065  0.2330 -0.1768
68943POPC   C3B19297  23.785   9.783   8.186 -0.0825  0.3753 -0.0757
68943POPC   C4B19298  23.938  10.129   7.957  0.0830  0.0134 -0.0386
68944POPC   NC319299  22.940   2.078  11.493  0.0626  0.0858 -0.2669
68944POPC   PO419300  22.990   1.890  11.160  0.2274 -0.1332  0.0991
68944POPC   GL119301  23.268   2.125  11.136 -0.3873 -0.0641 -0.0279
68944POPC   GL219302  23.235   2.398  11.143  0.0389  0.0856 -0.0993
68944POPC   C1A19303  23.442   2.155  10.714 -0.4312  0.0982 -0.1664
68944POPC   D2A19304  23.806   2.433  10.551  0.0559 -0.1524  0.1637
68944POPC   C3A19305  24.015   2.816  10.481  0.1486 -0.0012  0.0313
68944POPC   C4A19306  24.249   3.130  10.256 -0.2325  0.1698 -0.3666
68944POPC   C1B19307  23.460   2.692  11.362 -0.1994 -0.0725  0.0224
68944POPC   C2B19308  23.800   2.911  11.406  0.1809 -0.2923 -0.3139
68944POPC   C3B19309  24.207   2.824  11.478  0.1033  0.1160  0.0302
68944POPC   C4B19310  24.525   3.070  11.731 -0.4330 -0.1280 -0.1456
68945POPC   NC319311  21.633   7.361  13.061  0.0418 -0.1366 -0.0619
68945POPC   PO419312  21.547   7.156  13.420  0.1105 -0.2143  0.1528
68945POPC   GL119313  21.743   7.099  13.704  0.3851  0.1097  0.2239
68945POPC   GL219314  22.069   7.099  13.586 -0.0756 -0.3005  0.0197
68945POPC   C1A19315  21.819   6.653  13.825 -0.1666  0.3946 -0.2815
68945POPC   D2A19316  22.170   6.366  13.719 -0.1505  0.1090  0.0926
68945POPC   C3A19317  22.548   6.176  13.955 -0.0644  0.0510 -0.5822
68945POPC   C4A19318  22.959   6.035  14.156  0.1193 -0.2245  0.4041
68945POPC   C1B19319  22.396   6.863  13.784  0.0390 -0.2851  0.0764
68945POPC   C2B19320  22.675   6.564  13.560  0.2086  0.0145 -0.2745
68945POPC   C3B19321  23.145   6.369  13.657  0.0108 -0.1974  0.0534
68945POPC   C4B19322  23.487   6.120  13.786  0.0423 -0.2391 -0.0808
68946POPC   NC319323  30.842  17.002   8.546  0.1742  0.1920 -0.0301
68946POPC   PO419324  30.444  17.067   8.626  0.0654 -0.0120  0.0284
68946POPC   GL119325  30.308  17.100   8.211  0.3125  0.1836 -0.0737
68946POPC   GL219326  30.513  17.085   8.082 -0.0940 -0.2484 -0.2199
68946POPC   C1A19327  29.940  17.055   7.963 -0.1851  0.1068  0.0633
68946POPC   D2A19328  29.746  16.855   7.599  0.0771 -0.0176  0.0437
68946POPC   C3A19329  29.831  16.930   7.175  0.0030 -0.1502  0.0389
68946POPC   C4A19330  29.678  17.041   6.685  0.1779  0.1460  0.0096
68946POPC   C1B19331  30.428  17.368   7.727 -0.1433  0.4904  0.3003
68946POPC   C2B19332  30.130  17.240   7.480  0.3789  0.0861 -0.3544
68946POPC   C3B19333  29.901  17.465   7.106 -0.3238 -0.3165 -0.1933
68946POPC   C4B19334  29.707  17.630   6.742  0.0772 -0.1181 -0.3427
68947POPC   NC319335  30.954   9.992  10.408 -0.1997  0.0658  0.0406
68947POPC   PO419336  30.584   9.828  10.357  0.0567  0.1875  0.1324
68947POPC   GL119337  30.268   9.627  10.292 -0.0483  0.1767  0.1870
68947POPC   GL219338  30.319   9.456  10.099  0.1854 -0.0856  0.1016
68947POPC   C1A19339  29.888   9.720  10.044 -0.0709  0.0335  0.0225
68947POPC   D2A19340  29.621  10.095   9.999 -0.2692 -0.1690 -0.1358
68947POPC   C3A19341  29.423  10.169   9.539  0.0395 -0.0357 -0.1755
68947POPC   C4A19342  29.438  10.347   9.161 -0.5083  0.1285  0.1966
68947POPC   C1B19343  30.267   9.528   9.634 -0.0855 -0.2819 -0.1029
68947POPC   C2B19344  30.101   9.355   9.283  0.1571 -0.2020 -0.3021
68947POPC   C3B19345  30.138   9.494   8.851 -0.0023 -0.0743 -0.2281
68947POPC   C4B19346  29.963   9.554   8.439 -0.1907  0.1219 -0.5408
68948POPC   NC319347  31.553  13.304   8.467  0.1554  0.1876  0.3484
68948POPC   PO419348  31.448  12.936   8.560 -0.1548 -0.0385 -0.0354
68948POPC   GL119349  31.284  12.820   8.211 -0.0088 -0.2486 -0.2001
68948POPC   GL219350  30.972  12.769   8.174 -0.2806  0.3841 -0.0684
68948POPC   C1A19351  31.369  12.521   7.893  0.0401  0.0019  0.1591
68948POPC   D2A19352  31.258  12.419   7.502 -0.2415 -0.0872  0.0617
68948POPC   C3A19353  30.896  12.278   7.206  0.1148  0.0220  0.2630
68948POPC   C4A19354  30.586  12.248   6.844  0.0934  0.1420  0.0728
68948POPC   C1B19355  30.894  12.406   7.891 -0.0337 -0.0112  0.0287
68948POPC   C2B19356  30.956  11.981   7.624  0.0626 -0.0436  0.1626
68948POPC   C3B19357  30.976  11.756   7.159 -0.0656  0.0232 -0.0415
68948POPC   C4B19358  30.924  11.397   6.819  0.3260 -0.0491  0.2467
68949POPC   NC319359  29.494   2.451  11.631  0.1719 -0.2398 -0.3289
68949POPC   PO419360  29.266   2.158  11.518  0.5223  0.0308 -0.2256
68949POPC   GL119361  29.029   2.322  11.759 -0.0597 -0.0325 -0.1076
68949POPC   GL219362  29.112   2.532  11.970 -0.2412  0.0593 -0.0199
68949POPC   C1A19363  28.657   2.438  12.082 -0.1677 -0.0398  0.0300
68949POPC   D2A19364  28.473   2.751  12.370 -0.0266 -0.1774 -0.4076
68949POPC   C3A19365  28.096   2.983  12.596 -0.1206 -0.0310  0.0294
68949POPC   C4A19366  27.728   3.218  12.856 -0.0687 -0.1066 -0.1572
68949POPC   C1B19367  28.895   2.915  12.054 -0.1420 -0.2859 -0.1513
68949POPC   C2B19368  28.579   3.228  12.241  0.0869 -0.1315  0.0193
68949POPC   C3B19369  28.314   3.542  12.382 -0.1061  0.0519 -0.2794
68949POPC   C4B19370  27.908   3.667  12.554  0.3945  0.0140  0.3517
68950POPC   NC319371  26.605  16.378   9.416  0.3623 -0.1079 -0.2221
68950POPC   PO419372  26.960  16.310   9.457  0.0377  0.3224  0.0924
68950POPC   GL119373  26.969  16.522   9.146 -0.4333 -0.0397  0.3190
68950POPC   GL219374  26.860  16.372   8.892 -0.2236 -0.0027 -0.1737
68950POPC   C1A19375  26.987  16.850   8.785 -0.2151 -0.0563  0.0464
68950POPC   D2A19376  26.937  16.991   8.346  0.1484  0.0538 -0.0979
68950POPC   C3A19377  27.300  16.939   8.095  0.2059  0.1187  0.1014
68950POPC   C4A19378  27.765  16.799   8.079  0.1174  0.0736 -0.0341
68950POPC   C1B19379  26.691  16.260   8.466 -0.3822 -0.0980  0.1234
68950POPC   C2B19380  26.511  16.432   8.117  0.0998 -0.4162  0.0392
68950POPC   C3B19381  26.574  16.772   7.805 -0.0590  0.0012  0.0584
68950POPC   C4B19382  26.872  17.125   7.798 -0.2313  0.3088  0.1178
68951POPC   NC319383  17.652   0.846   8.216 -0.0179 -0.2780  0.0215
68951POPC   PO419384  17.336   0.950   8.382 -0.0419  0.0323  0.1256
68951POPC   GL119385  17.213   1.020   7.980 -0.1153 -0.2298  0.0773
68951POPC   GL219386  17.171   0.718   7.867 -0.0699 -0.2734 -0.2457
68951POPC   C1A19387  17.472   1.064   7.635  0.0876  0.0142 -0.1788
68951POPC   D2A19388  17.600   1.362   7.281 -0.1354  0.2317  0.1502
68951POPC   C3A19389  17.632   1.243   6.862  0.1736 -0.0367 -0.1995
68951POPC   C4A19390  17.811   1.350   6.449  0.2870 -0.0772 -0.1395
68951POPC   C1B19391  17.181   0.704   7.437  0.0529 -0.0503 -0.1047
68951POPC   C2B19392  17.307   0.876   6.983  0.0488  0.1098  0.0595
68951POPC   C3B19393  17.211   1.132   6.598  0.0057  0.2822 -0.1266
68951POPC   C4B19394  17.272   1.434   6.288 -0.2663 -0.1534 -0.0769
68952POPC   NC319395  20.976   4.318  10.104 -0.0314 -0.0201 -0.1505
68952POPC   PO419396  21.252   4.061  10.100  0.1126  0.0743  0.2401
68952POPC   GL119397  21.428   3.885   9.750 -0.3086 -0.1194 -0.0141
68952POPC   GL219398  21.461   4.158   9.624 -0.0654  0.0683  0.2547
68952POPC   C1A19399  21.743   3.826   9.407  0.2110 -0.0125 -0.0334
68952POPC   D2A19400  22.203   3.739   9.310  0.1165  0.1824 -0.1571
68952POPC   C3A19401  22.147   3.888   8.842  0.1196 -0.0267 -0.0664
68952POPC   C4A19402  22.299   3.993   8.392  0.0548  0.2233 -0.1854
68952POPC   C1B19403  21.756   4.318   9.264  0.0082 -0.2924 -0.0358
68952POPC   C2B19404  22.184   4.488   9.115 -0.2924 -0.0044  0.0100
68952POPC   C3B19405  22.671   4.528   9.230  0.2741 -0.1246 -0.2191
68952POPC   C4B19406  23.069   4.698   9.111 -0.0008  0.1697 -0.0806
68953POPC   NC319407  23.586  14.390   9.280  0.0554 -0.4760 -0.0610
68953POPC   PO419408  23.293  14.599   9.084 -0.3878 -0.1258  0.4758
68953POPC   GL119409  23.633  14.679   8.824 -0.2332 -0.1659 -0.2615
68953POPC   GL219410  23.546  14.692   8.518 -0.1886  0.1012 -0.1668
68953POPC   C1A19411  24.056  14.624   8.547  0.1244 -0.4595 -0.0483
68953POPC   D2A19412  24.432  14.551   8.211  0.0142 -0.1446 -0.0324
68953POPC   C3A19413  24.409  14.786   7.816 -0.0508  0.3314  0.1582
68953POPC   C4A19414  24.615  14.859   7.462 -0.0977 -0.1267 -0.2514
68953POPC   C1B19415  23.490  14.587   8.065  0.1933 -0.1313  0.1632
68953POPC   C2B19416  23.516  14.581   7.632  0.0204 -0.4383 -0.0653
68953POPC   C3B19417  23.653  14.251   7.439 -0.2215  0.3056  0.1088
68953POPC   C4B19418  23.678  13.861   7.255 -0.1037 -0.0467  0.0855
68954POPC   NC319419  32.257  11.320   9.066 -0.2409  0.1578  0.1364
68954POPC   PO419420  31.906  11.296   9.149 -0.3636  0.0621  0.2737
68954POPC   GL119421  31.526  11.252   8.850  0.2015 -0.3230 -0.0728
68954POPC   GL219422  31.582  10.982   8.776  0.1317 -0.2116 -0.4082
68954POPC   C1A19423  31.539  11.358   8.382 -0.0041  0.0511  0.1076
68954POPC   D2A19424  31.489  11.172   7.963  0.0191  0.1657  0.3830
68954POPC   C3A19425  31.556  11.117   7.518  0.2354 -0.3588  0.0700
68954POPC   C4A19426  31.839  10.975   7.147 -0.1347 -0.1959 -0.2682
68954POPC   C1B19427  31.351  10.820   8.399  0.3259 -0.0799  0.1813
68954POPC   C2B19428  31.284  10.699   7.994 -0.0934  0.4231 -0.0709
68954POPC   C3B19429  31.235  10.742   7.577  0.2819  0.0938 -0.1190
68954POPC   C4B19430  31.234  10.727   7.089 -0.1130 -0.2408  0.0735
68955POPC   NC319431  30.981   5.814  14.332  0.0753  0.0757 -0.0384
68955POPC   PO419432  30.949   5.866  14.713  0.0780 -0.2435 -0.0757
68955POPC   GL119433  30.787   5.682  15.009  0.0348  0.0842 -0.2165
68955POPC   GL219434  30.649   5.901  15.139 -0.1728 -0.1477  0.0755
68955POPC   C1A19435  30.483   5.406  15.334  0.1508  0.2383 -0.1939
68955POPC   D2A19436  30.237   5.326  15.756  0.0544  0.1007 -0.2052
68955POPC   C3A19437  29.795   5.253  15.901 -0.2806  0.1724 -0.0512
68955POPC   C4A19438  29.440   5.103  16.130  0.0304  0.0765 -0.2810
68955POPC   C1B19439  30.266   5.991  15.449 -0.1424  0.0578  0.0567
68955POPC   C2B19440  30.042   5.741  15.883  0.0703 -0.0889 -0.2124
68955POPC   C3B19441  30.169   5.494  16.300 -0.1564  0.2032 -0.0293
68955POPC   C4B19442  30.298   5.135  16.571 -0.0774  0.1218  0.0104
68956POPC   NC319443  25.257  12.173   8.981 -0.0052 -0.2694 -0.1698
68956POPC   PO419444  24.972  12.351   9.197  0.0366 -0.3454 -0.1097
68956POPC   GL119445  24.735  12.364   8.941 -0.3002  0.0174 -0.0606
68956POPC   GL219446  24.867  12.403   8.672  0.0681  0.1610  0.0891
68956POPC   C1A19447  24.588  11.967   8.808  0.0865 -0.0760  0.1323
68956POPC   D2A19448  24.592  11.540   8.745  0.0084 -0.1560  0.1949
68956POPC   C3A19449  24.481  11.328   8.327  0.1270  0.0887 -0.0979
68956POPC   C4A19450  24.281  11.237   7.875 -0.2251  0.3154  0.1726
68956POPC   C1B19451  25.018  11.980   8.566  0.0714  0.0853 -0.0844
68956POPC   C2B19452  25.249  11.758   8.220  0.1294  0.2949 -0.2035
68956POPC   C3B19453  25.545  11.788   7.866 -0.3116  0.1570  0.2269
68956POPC   C4B19454  25.950  11.629   7.706 -0.0287 -0.1102  0.1419
68957POPC   NC319455  20.233   8.397   9.650 -0.0766 -0.2141  0.1909
68957POPC   PO419456  20.043   8.471   9.363 -0.1347  0.2948  0.2296
68957POPC   GL119457  20.267   8.258   9.165  0.2516  0.0211  0.2290
68957POPC   GL219458  20.099   8.074   9.061  0.0313  0.2624 -0.0247
68957POPC   C1A19459  20.366   8.367   8.730 -0.0025 -0.0422 -0.1139
68957POPC   D2A19460  20.429   8.375   8.231  0.3407  0.1184  0.0119
68957POPC   C3A19461  20.803   8.187   7.983  0.0171  0.0947 -0.0906
68957POPC   C4A19462  20.906   7.873   7.659 -0.1659 -0.2085  0.1016
68957POPC   C1B19463  20.082   7.996   8.615 -0.1699 -0.0861  0.1002
68957POPC   C2B19464  20.085   7.945   8.163 -0.1896 -0.2465 -0.2552
68957POPC   C3B19465  20.171   7.886   7.745  0.0778 -0.1695 -0.1819
68957POPC   C4B19466  20.286   7.802   7.304  0.2502  0.2923 -0.2661
68958POPC   NC319467  17.265   5.133   9.321 -0.2073 -0.1909  0.1150
68958POPC   PO419468  17.274   4.899   9.046  0.0860  0.0832 -0.0078
68958POPC   GL119469  17.354   4.848   8.628 -0.0648  0.4173  0.2853
68958POPC   GL219470  17.487   4.676   8.458  0.4692  0.0668  0.1360
68958POPC   C1A19471  17.002   4.851   8.368 -0.2259  0.1328  0.0528
68958POPC   D2A19472  16.596   4.757   8.547 -0.2236  0.0680 -0.1075
68958POPC   C3A19473  16.270   5.005   8.653  0.0384 -0.2794 -0.1205
68958POPC   C4A19474  16.012   5.277   8.946 -0.1595 -0.0426 -0.0013
68958POPC   C1B19475  17.381   4.775   8.026  0.1450  0.0944 -0.2617
68958POPC   C2B19476  16.980   4.893   7.842  0.1213 -0.4463  0.1548
68958POPC   C3B19477  16.888   5.154   7.396  0.0228  0.2981  0.0520
68958POPC   C4B19478  16.656   5.572   7.385 -0.2693 -0.0086  0.1646
68959POPC   NC319479  32.306  13.790   8.399 -0.2106  0.0913  0.0951
68959POPC   PO419480  32.030  14.050   8.308 -0.1349 -0.0360  0.1436
68959POPC   GL119481  32.166  13.959   7.896  0.2392  0.1444  0.1169
68959POPC   GL219482  32.420  14.015   7.923  0.1328  0.0129 -0.0842
68959POPC   C1A19483  32.051  14.138   7.420 -0.1248 -0.2990  0.1200
68959POPC   D2A19484  32.044  14.001   6.991  0.2081 -0.1846  0.0187
68959POPC   C3A19485  32.000  14.319   6.642  0.3572  0.1637 -0.2261
68959POPC   C4A19486  32.106  14.778   6.590 -0.0108  0.1304 -0.0278
68959POPC   C1B19487  32.461  13.888   7.478  0.1077  0.0429  0.0297
68959POPC   C2B19488  32.436  13.619   7.135 -0.1640  0.1981 -0.0452
68959POPC   C3B19489  32.002  13.438   7.048 -0.1100 -0.0140 -0.2812
68959POPC   C4B19490  31.793  13.073   7.001 -0.2409 -0.0625  0.0460
68960POPC   NC319491  30.775   3.122   9.545  0.3627 -0.2061 -0.4529
68960POPC   PO419492  30.975   2.874   9.307  0.0721  0.0043 -0.1967
68960POPC   GL119493  30.684   3.040   8.999 -0.1907 -0.1645 -0.1527
68960POPC   GL219494  30.901   3.303   9.073  0.0357 -0.0502  0.0833
68960POPC   C1A19495  30.585   2.947   8.516 -0.1598 -0.2410 -0.2099
68960POPC   D2A19496  30.364   3.144   8.168 -0.0739  0.1217  0.1435
68960POPC   C3A19497  29.947   3.284   8.024 -0.0944  0.0807 -0.1911
68960POPC   C4A19498  29.515   3.159   7.999 -0.4488 -0.0115 -0.0021
68960POPC   C1B19499  30.784   3.743   8.909 -0.0339 -0.1881 -0.1927
68960POPC   C2B19500  30.757   3.924   8.479  0.0118  0.0857  0.0099
68960POPC   C3B19501  30.970   3.868   8.075  0.0873 -0.1951 -0.0559
68960POPC   C4B19502  31.412   3.818   7.875  0.0172 -0.0849 -0.2501
68961POPC   NC319503  20.863   5.464  11.259 -0.6283  0.0800  0.2543
68961POPC   PO419504  20.885   5.427  10.870 -0.0067 -0.0187  0.1026
68961POPC   GL119505  21.068   5.719  10.831 -0.3391  0.1202 -0.1969
68961POPC   GL219506  21.260   5.700  10.565  0.1127 -0.1373 -0.0836
68961POPC   C1A19507  21.431   5.997  10.998  0.3201  0.2351 -0.0978
68961POPC   D2A19508  21.864   6.124  10.963  0.0822  0.1167  0.1999
68961POPC   C3A19509  22.264   6.179  11.179  0.3660  0.0259  0.0681
68961POPC   C4A19510  22.591   5.884  11.322  0.1883 -0.0980  0.0634
68961POPC   C1B19511  21.627   5.847  10.371  0.0900  0.0127  0.1732
68961POPC   C2B19512  22.071   5.845  10.225 -0.0646  0.0593  0.0927
68961POPC   C3B19513  22.511   5.906  10.134 -0.2241 -0.1850 -0.0540
68961POPC   C4B19514  22.950   5.782  10.055 -0.0077  0.0183 -0.0505
68962POPC   NC319515  31.952   6.711  10.063 -0.3135 -0.1936  0.2814
68962POPC   PO419516  31.918   7.098  10.041 -0.1036  0.0687 -0.3474
68962POPC   GL119517  31.662   6.861   9.738 -0.0647  0.0526 -0.0005
68962POPC   GL219518  31.424   6.698   9.784  0.0271  0.1732  0.1996
68962POPC   C1A19519  31.616   6.679   9.326  0.3036 -0.1085 -0.0406
68962POPC   D2A19520  31.736   6.408   8.966 -0.2038 -0.1227 -0.0368
68962POPC   C3A19521  31.368   6.453   8.672  0.1397 -0.0080  0.1674
68962POPC   C4A19522  30.896   6.515   8.526  0.1167  0.3748  0.3006
68962POPC   C1B19523  31.135   7.020   9.670 -0.3611  0.0411 -0.1655
68962POPC   C2B19524  30.768   7.088   9.405  0.1059 -0.0926 -0.1222
68962POPC   C3B19525  30.476   7.057   9.035 -0.3500 -0.1811 -0.1024
68962POPC   C4B19526  30.117   6.730   8.907  0.1588 -0.0582  0.0575
68963POPC   NC319527  16.036  15.326   7.994 -0.0548 -0.1491 -0.3387
68963POPC   PO419528  15.755  15.390   8.284 -0.0129  0.2702 -0.2391
68963POPC   GL119529  15.602  15.394   7.945 -0.1085 -0.2088  0.0651
68963POPC   GL219530  15.579  15.636   7.879 -0.0109  0.1480 -0.1904
68963POPC   C1A19531  15.704  15.366   7.479 -0.1372 -0.0060 -0.0231
68963POPC   D2A19532  15.596  15.312   7.036 -0.2704 -0.0448 -0.0951
68963POPC   C3A19533  15.301  15.062   6.712 -0.0691 -0.2799 -0.0975
68963POPC   C4A19534  15.117  14.735   6.511  0.1303 -0.1817 -0.3795
68963POPC   C1B19535  15.503  15.798   7.408  0.1114  0.1430  0.1953
68963POPC   C2B19536  15.290  15.736   7.016  0.1417 -0.0631 -0.2766
68963POPC   C3B19537  15.036  15.956   6.739 -0.0685 -0.0102 -0.1669
68963POPC   C4B19538  14.951  16.112   6.292 -0.1822 -0.0234  0.0407
68964POPC   NC319539  22.441   2.017  13.231  0.0279  0.1135 -0.0533
68964POPC   PO419540  22.470   1.610  13.299 -0.1845 -0.1954 -0.1525
68964POPC   GL119541  22.934   1.726  13.354 -0.0628  0.3382 -0.1693
68964POPC   GL219542  22.806   1.970  13.557 -0.2577  0.1613 -0.3057
68964POPC   C1A19543  23.178   2.161  13.292  0.2976  0.1326  0.2729
68964POPC   D2A19544  23.464   2.502  13.475  0.2143  0.0459  0.1381
68964POPC   C3A19545  23.437   2.963  13.581  0.0116 -0.1337  0.1191
68964POPC   C4A19546  23.501   3.397  13.586  0.2570 -0.2733 -0.2063
68964POPC   C1B19547  22.782   1.949  13.962 -0.0490 -0.0871  0.1971
68964POPC   C2B19548  23.091   1.983  14.330 -0.2754  0.0105  0.0824
68964POPC   C3B19549  23.248   2.401  14.425  0.0529  0.1024  0.1558
68964POPC   C4B19550  23.629   2.715  14.442  0.0240  0.0299  0.0404
68965POPC   NC319551  17.766   5.013   9.066 -0.0108  0.3064  0.2662
68965POPC   PO419552  18.150   4.942   8.943  0.2038 -0.4165 -0.1865
68965POPC   GL119553  18.167   5.114   8.668 -0.2321  0.2351  0.3027
68965POPC   GL219554  17.866   5.089   8.537  0.0238  0.1318  0.0117
68965POPC   C1A19555  18.333   5.134   8.225  0.0176  0.1735  0.0724
68965POPC   D2A19556  18.213   5.038   7.814 -0.0247 -0.1843 -0.0192
68965POPC   C3A19557  18.348   5.236   7.406 -0.0813 -0.1352  0.1575
68965POPC   C4A19558  18.622   5.188   7.019 -0.4627  0.1674 -0.0208
68965POPC   C1B19559  17.793   5.005   8.108 -0.3194  0.3694 -0.2374
68965POPC   C2B19560  17.627   5.066   7.667  0.1196 -0.1089 -0.0542
68965POPC   C3B19561  17.780   5.354   7.323 -0.1429 -0.4180 -0.2174
68965POPC   C4B19562  18.071   5.436   7.062 -0.3083  0.4070  0.1890
68966POPC   NC319563  23.404   0.213  14.353  0.0138  0.0921  0.0870
68966POPC   PO419564  23.767   0.063  14.392 -0.1360 -0.0720 -0.2346
68966POPC   GL119565  23.713   0.323  14.783 -0.0603  0.1438 -0.1319
68966POPC   GL219566  23.526   0.548  14.710 -0.2304  0.1472  0.3850
68966POPC   C1A19567  23.955   0.694  14.930  0.0469  0.2617  0.0908
68966POPC   D2A19568  24.149   0.915  15.289  0.0150 -0.1373  0.0900
68966POPC   C3A19569  24.329   1.318  15.322 -0.1188 -0.2368  0.0951
68966POPC   C4A19570  24.300   1.658  15.021  0.1519 -0.0980 -0.3697
68966POPC   C1B19571  23.285   0.911  14.715 -0.1503  0.0366 -0.0247
68966POPC   C2B19572  23.116   1.325  14.820 -0.2120  0.1774 -0.0684
68966POPC   C3B19573  23.231   1.755  14.805  0.4266  0.1126 -0.1699
68966POPC   C4B19574  23.188   2.238  14.886  0.2355 -0.2008  0.2205
68967POPC   NC319575  24.627   6.580   9.618  0.0989 -0.0167  0.1611
68967POPC   PO419576  24.704   6.188   9.724  0.2790  0.0760  0.0645
68967POPC   GL119577  24.431   6.062   9.904  0.2612  0.0239 -0.1398
68967POPC   GL219578  24.243   5.988  10.146 -0.1289 -0.0673  0.0466
68967POPC   C1A19579  24.148   6.457  10.050 -0.2035 -0.0764  0.0563
68967POPC   D2A19580  23.991   6.892   9.956  0.1242  0.1181  0.0394
68967POPC   C3A19581  24.158   7.234  10.243  0.2018  0.0221 -0.1845
68967POPC   C4A19582  24.379   7.370  10.663  0.2187 -0.3028  0.0726
68967POPC   C1B19583  23.813   5.908  10.165 -0.1184 -0.2040 -0.1282
68967POPC   C2B19584  23.422   5.696  10.170 -0.2470  0.2352 -0.1386
68967POPC   C3B19585  23.061   5.449  10.404  0.1514 -0.0930  0.2219
68967POPC   C4B19586  22.741   5.644  10.600 -0.4302  0.5465  0.0766
68968POPC   NC319587  22.191  10.950   4.768 -0.1680 -0.1433 -0.1086
68968POPC   PO419588  22.484  10.999   5.024 -0.0573  0.0695 -0.0056
68968POPC   GL119589  22.296  11.167   5.252  0.1524  0.1972 -0.3413
68968POPC   GL219590  22.500  11.246   5.463 -0.0886  0.1502  0.0759
68968POPC   C1A19591  21.992  11.245   5.668 -0.0335 -0.0365 -0.1060
68968POPC   D2A19592  21.662  11.381   5.959 -0.1288 -0.0379 -0.1233
68968POPC   C3A19593  21.350  11.588   6.227 -0.1306 -0.0724 -0.2677
68968POPC   C4A19594  21.006  11.732   6.461  0.2536 -0.0466 -0.2628
68968POPC   C1B19595  22.623  11.482   5.795 -0.4057 -0.0124 -0.1282
68968POPC   C2B19596  22.431  11.515   6.231  0.3078 -0.0006  0.0519
68968POPC   C3B19597  21.975  11.625   6.336  0.2328  0.1435 -0.1039
68968POPC   C4B19598  21.585  11.709   6.625 -0.0018 -0.0039  0.1902
68969POPC   NC319599  31.533   9.631   5.012 -0.2896  0.0766  0.1396
68969POPC   PO419600  31.476   9.743   5.360 -0.4851 -0.1085 -0.0864
68969POPC   GL119601  31.773   9.860   5.612 -0.0054  0.2388 -0.1090
68969POPC   GL219602  31.587   9.832   5.829  0.2088 -0.0355 -0.1222
68969POPC   C1A19603  31.781  10.296   5.843  0.2095  0.1323  0.3585
68969POPC   D2A19604  31.612  10.548   6.219 -0.0698  0.1687  0.2684
68969POPC   C3A19605  31.254  10.787   6.476 -0.0784 -0.0124  0.1374
68969POPC   C4A19606  30.950  10.920   6.796  0.2571 -0.3355 -0.1950
68969POPC   C1B19607  31.673   9.954   6.310 -0.0622  0.1883  0.1858
68969POPC   C2B19608  32.009   9.950   6.638  0.1911  0.0217 -0.2017
68969POPC   C3B19609  32.469  10.129   6.829 -0.1143  0.2619  0.0991
68969POPC   C4B19610  32.839  10.420   6.816 -0.2758  0.0378 -0.1962
68970POPC   NC319611  16.753   0.993   4.046  0.1223 -0.1558  0.1175
68970POPC   PO419612  16.519   0.704   4.248 -0.3885  0.1801  0.1195
68970POPC   GL119613  16.654   0.485   4.523 -0.0541 -0.0556  0.0485
68970POPC   GL219614  16.865   0.308   4.485 -0.3128 -0.2825 -0.0523
68970POPC   C1A19615  16.593   0.718   4.944 -0.1138 -0.0665 -0.2527
68970POPC   D2A19616  16.431   1.009   5.333 -0.3784 -0.0160  0.1657
68970POPC   C3A19617  16.256   0.730   5.636 -0.1741 -0.1297 -0.0353
68970POPC   C4A19618  16.032   0.613   6.057  0.1771  0.2216 -0.0344
68970POPC   C1B19619  17.055   0.072   4.801 -0.2577  0.0116 -0.1272
68970POPC   C2B19620  16.983  -0.080   5.168 -0.0341 -0.0291  0.0272
68970POPC   C3B19621  17.107  -0.232   5.612  0.2583 -0.0234  0.0017
68970POPC   C4B19622  17.351  -0.411   5.983  0.2245  0.2283  0.0689
68971POPC   NC319623  21.601   6.062   5.715 -0.1881  0.3683  0.2388
68971POPC   PO419624  21.241   6.017   5.771 -0.3550  0.0104  0.3104
68971POPC   GL119625  21.129   6.165   6.110 -0.2522  0.2294 -0.0360
68971POPC   GL219626  21.016   5.873   6.183 -0.1163 -0.0590 -0.1552
68971POPC   C1A19627  20.868   6.524   6.222 -0.1301  0.2404 -0.1104
68971POPC   D2A19628  20.596   6.591   6.614  0.0079 -0.1591  0.1271
68971POPC   C3A19629  20.389   6.167   6.760  0.1732 -0.1682  0.0364
68971POPC   C4A19630  20.370   5.833   6.497 -0.2686  0.0640  0.3659
68971POPC   C1B19631  20.911   6.152   6.582 -0.0509  0.0863 -0.0316
68971POPC   C2B19632  20.779   6.276   7.021  0.0145 -0.0081 -0.1856
68971POPC   C3B19633  20.463   6.299   7.364 -0.0127  0.3581 -0.2068
68971POPC   C4B19634  20.096   6.543   7.579 -0.4016  0.2527 -0.0298
68972POPC   NC319635  24.854   4.865   9.845  0.0098 -0.1548 -0.1001
68972POPC   PO419636  25.198   4.696   9.743  0.1728  0.2820 -0.2816
68972POPC   GL119637  25.030   4.406   9.865  0.0384 -0.3152 -0.2609
68972POPC   GL219638  24.756   4.407   9.897  0.3048  0.0815 -0.0178
68972POPC   C1A19639  24.932   3.987   9.734  0.0406  0.0485 -0.0965
68972POPC   D2A19640  24.798   3.529   9.600 -0.0026 -0.1254 -0.2566
68972POPC   C3A19641  24.385   3.392   9.801 -0.0744  0.1083 -0.0018
68972POPC   C4A19642  23.921   3.275   9.909 -0.1584  0.1606 -0.1737
68972POPC   C1B19643  24.458   4.565   9.586  0.0157 -0.0946 -0.0459
68972POPC   C2B19644  24.091   4.699   9.381  0.1059  0.1436 -0.5342
68972POPC   C3B19645  23.629   4.590   9.344  0.0961 -0.2918 -0.2159
68972POPC   C4B19646  23.260   4.296   9.513  0.2387  0.0527  0.1375
68973POPC   NC319647  28.166   5.330   7.138 -0.3379 -0.0634  0.1353
68973POPC   PO419648  28.018   5.534   7.451  0.4014 -0.0712 -0.2613
68973POPC   GL119649  28.394   5.384   7.578 -0.0851 -0.3378 -0.0520
68973POPC   GL219650  28.223   5.389   7.866 -0.0647 -0.0790  0.1760
68973POPC   C1A19651  28.388   4.942   7.605  0.2405 -0.1699 -0.1838
68973POPC   D2A19652  28.516   4.496   7.535  0.1534  0.0169  0.2459
68973POPC   C3A19653  28.384   4.097   7.760  0.0899  0.1086  0.1214
68973POPC   C4A19654  28.432   3.687   7.881 -0.0284  0.0176 -0.0465
68973POPC   C1B19655  28.447   5.109   8.077 -0.2262 -0.1968 -0.0455
68973POPC   C2B19656  28.702   4.808   8.326  0.0321 -0.1699  0.0360
68973POPC   C3B19657  28.663   4.708   8.812 -0.0562 -0.0987  0.0142
68973POPC   C4B19658  28.889   4.378   9.031 -0.0294 -0.1035 -0.0527
68974POPC   NC319659  30.785   2.789   4.920 -0.0895 -0.2566 -0.1208
68974POPC   PO419660  31.032   2.468   4.768 -0.1358 -0.1712  0.2544
68974POPC   GL119661  30.859   2.307   5.014 -0.0930  0.0564  0.1061
68974POPC   GL219662  30.927   1.946   5.122  0.0761  0.0300 -0.0048
68974POPC   C1A19663  31.031   2.360   5.448  0.1217  0.1675  0.2185
68974POPC   D2A19664  31.438   2.524   5.691  0.3775 -0.3203  0.0799
68974POPC   C3A19665  31.333   2.785   6.060 -0.2543  0.0264 -0.0610
68974POPC   C4A19666  31.562   2.869   6.464 -0.2247  0.1009 -0.0829
68974POPC   C1B19667  30.749   1.954   5.555  0.0129 -0.3320  0.0160
68974POPC   C2B19668  30.823   2.032   6.004  0.1178 -0.0528  0.3662
68974POPC   C3B19669  30.743   1.903   6.507 -0.0368 -0.2301  0.3182
68974POPC   C4B19670  30.413   1.919   6.919  0.0000 -0.0924  0.1477
68975POPC   NC319671  18.605   1.095   4.344  0.0600 -0.0398 -0.0378
68975POPC   PO419672  18.934   1.343   4.320  0.1059 -0.0432 -0.3588
68975POPC   GL119673  19.064   1.562   4.654  0.0381 -0.1041 -0.0282
68975POPC   GL219674  18.845   1.775   4.765 -0.1782 -0.1126 -0.1824
68975POPC   C1A19675  19.323   1.627   5.002 -0.1099 -0.0464  0.0630
68975POPC   D2A19676  19.629   1.535   5.383 -0.1154 -0.0208  0.0109
68975POPC   C3A19677  19.680   1.596   5.848  0.0574  0.2948 -0.0002
68975POPC   C4A19678  20.072   1.662   6.132  0.0678  0.3748  0.1332
68975POPC   C1B19679  18.734   1.567   5.150 -0.2359 -0.2004  0.0790
68975POPC   C2B19680  18.765   1.460   5.643  0.1739  0.3309 -0.0868
68975POPC   C3B19681  18.840   1.270   6.013 -0.2484 -0.0245  0.2243
68975POPC   C4B19682  18.949   1.239   6.488 -0.0530  0.0094  0.0125
68976POPC   NC319683  21.860   7.160   5.824  0.0021 -0.1437  0.0310
68976POPC   PO419684  21.575   7.001   5.571  0.0870  0.2034  0.0278
68976POPC   GL119685  21.253   6.999   5.831 -0.0239 -0.1144 -0.1693
68976POPC   GL219686  21.275   7.310   5.901  0.0454  0.0213  0.1269
68976POPC   C1A19687  21.173   6.946   6.279 -0.3414  0.3127  0.2034
68976POPC   D2A19688  21.110   7.204   6.692  0.3004  0.1012  0.2328
68976POPC   C3A19689  20.881   7.639   6.753 -0.0782 -0.1418 -0.1976
68976POPC   C4A19690  20.693   7.909   7.068 -0.0490  0.1722 -0.0388
68976POPC   C1B19691  21.035   7.539   6.259  0.1301 -0.0380  0.0142
68976POPC   C2B19692  20.973   7.949   6.320  0.1518 -0.0211 -0.2159
68976POPC   C3B19693  21.081   8.357   6.404 -0.2088 -0.2720 -0.1934
68976POPC   C4B19694  21.179   8.770   6.356  0.1171 -0.2384 -0.1634
68977POPC   NC319695  19.720   1.069   4.528  0.0383  0.0191  0.1682
68977POPC   PO419696  20.102   0.983   4.418  0.0995 -0.2462 -0.1788
68977POPC   GL119697  19.988   0.797   4.801  0.2976  0.0768 -0.0549
68977POPC   GL219698  19.802   0.604   4.801  0.1727 -0.1358 -0.0796
68977POPC   C1A19699  19.946   0.979   5.234  0.1475 -0.1222 -0.3295
68977POPC   D2A19700  19.698   1.024   5.672 -0.1011  0.0395  0.0313
68977POPC   C3A19701  19.428   0.744   5.746  0.1529  0.0852 -0.2759
68977POPC   C4A19702  19.284   0.600   6.085  0.0367  0.0133  0.0328
68977POPC   C1B19703  19.746   0.544   5.268  0.0659  0.1157  0.2691
68977POPC   C2B19704  19.860   0.497   5.673  0.1453 -0.1564  0.0830
68977POPC   C3B19705  19.764   0.414   6.104  0.0540  0.0637 -0.1742
68977POPC   C4B19706  19.485   0.349   6.458  0.3474 -0.3300 -0.2208
68978POPC   NC319707  27.878   5.778   7.875 -0.2306 -0.2738 -0.0588
68978POPC   PO419708  27.634   5.881   8.150 -0.0797 -0.4209 -0.0138
68978POPC   GL119709  27.863   5.738   8.462 -0.0156  0.0032  0.2551
68978POPC   GL219710  28.036   5.500   8.299  0.0630  0.0273  0.3263
68978POPC   C1A19711  28.305   5.671   8.655  0.0487  0.0925  0.0287
68978POPC   D2A19712  28.380   5.529   9.062 -0.0127 -0.0398 -0.1856
68978POPC   C3A19713  28.489   5.097   9.184 -0.1891 -0.0059  0.1281
68978POPC   C4A19714  28.282   4.775   9.483  0.0214 -0.0614  0.3132
68978POPC   C1B19715  27.999   5.322   8.727  0.0123  0.3003  0.3189
68978POPC   C2B19716  27.859   5.342   9.138 -0.2318 -0.2096  0.0007
68978POPC   C3B19717  27.838   5.395   9.611 -0.0095 -0.1677  0.2248
68978POPC   C4B19718  27.920   5.507  10.090  0.0042 -0.0379  0.3293
68979POPC   NC319719  20.584   4.416   5.673  0.0693  0.3486  0.0721
68979POPC   PO419720  20.590   4.705   5.471  0.2272  0.2501 -0.0988
68979POPC   GL119721  20.563   4.815   5.869  0.0413 -0.2232  0.0326
68979POPC   GL219722  20.816   5.034   5.724 -0.0938  0.4528  0.0400
68979POPC   C1A19723  20.786   4.652   6.256  0.0085  0.1282 -0.1392
68979POPC   D2A19724  20.496   4.613   6.655 -0.2853  0.0038 -0.0775
68979POPC   C3A19725  20.455   4.821   7.050 -0.0552 -0.1829  0.0955
68979POPC   C4A19726  20.273   4.821   7.450 -0.2069 -0.0252 -0.0107
68979POPC   C1B19727  20.767   5.213   6.141  0.0061 -0.2066  0.0636
68979POPC   C2B19728  20.821   5.525   6.480  0.0273 -0.0109  0.1300
68979POPC   C3B19729  20.818   5.662   6.915 -0.0650  0.1882  0.1493
68979POPC   C4B19730  20.623   5.641   7.305 -0.1341 -0.0550 -0.2079
68980POPC   NC319731  22.259  16.519   4.618 -0.0556 -0.1022  0.2148
68980POPC   PO419732  22.577  16.753   4.742 -0.2636 -0.3228 -0.3995
68980POPC   GL119733  22.558  16.671   5.142  0.0562  0.2250 -0.0950
68980POPC   GL219734  22.299  16.577   5.191  0.0385 -0.1119  0.0428
68980POPC   C1A19735  22.594  16.547   5.549 -0.1368 -0.1470 -0.0471
68980POPC   D2A19736  22.512  16.376   6.063  0.2006 -0.0418  0.0051
68980POPC   C3A19737  22.697  16.005   6.245  0.2242  0.0026  0.0777
68980POPC   C4A19738  22.887  15.585   6.196 -0.0827 -0.0215  0.1041
68980POPC   C1B19739  22.082  16.389   5.570 -0.4620  0.2852  0.0924
68980POPC   C2B19740  22.030  16.248   5.988 -0.1299  0.0738 -0.1031
68980POPC   C3B19741  22.160  16.100   6.403 -0.3540  0.1301  0.2266
68980POPC   C4B19742  21.904  16.070   6.800 -0.2746  0.2307 -0.2272
68981POPC   NC319743  17.260   3.978   4.782 -0.2111  0.0313 -0.1505
68981POPC   PO419744  17.407   3.941   5.175  0.0307 -0.1227  0.3352
68981POPC   GL119745  17.136   3.644   5.191 -0.2388 -0.0322 -0.0953
68981POPC   GL219746  16.981   3.811   5.301  0.0041  0.1100 -0.3219
68981POPC   C1A19747  16.963   3.319   5.486 -0.0279  0.0827  0.3372
68981POPC   D2A19748  16.854   2.832   5.520  0.1816 -0.1656 -0.0584
68981POPC   C3A19749  16.876   2.723   6.017 -0.3914  0.1627  0.2063
68981POPC   C4A19750  17.042   2.528   6.364 -0.0298 -0.2211  0.2728
68981POPC   C1B19751  16.882   4.163   5.602 -0.4418 -0.0898  0.1668
68981POPC   C2B19752  16.954   4.113   6.024  0.0199  0.3229  0.3754
68981POPC   C3B19753  17.284   3.934   6.287  0.0026  0.4158  0.1218
68981POPC   C4B19754  17.688   3.977   6.570  0.2814  0.0049 -0.2133
68982POPC   NC319755  25.350  13.480   4.746  0.0247 -0.0307  0.0447
68982POPC   PO419756  25.669  13.743   4.867 -0.1301 -0.0468 -0.2726
68982POPC   GL119757  25.471  13.658   5.179  0.0009 -0.0949  0.0713
68982POPC   GL219758  25.555  13.850   5.347  0.1219  0.0316 -0.1373
68982POPC   C1A19759  24.984  13.594   5.223  0.0504  0.0093 -0.0432
68982POPC   D2A19760  24.626  13.391   5.421  0.0001  0.2128  0.0067
68982POPC   C3A19761  24.158  13.547   5.631 -0.0447 -0.1853 -0.2062
68982POPC   C4A19762  23.768  13.813   5.536 -0.2251 -0.3064 -0.1897
68982POPC   C1B19763  25.131  13.994   5.429 -0.0455 -0.2925  0.0998
68982POPC   C2B19764  25.000  14.079   5.891 -0.1340 -0.1940 -0.2601
68982POPC   C3B19765  24.714  14.144   6.319 -0.1859  0.1340  0.4301
68982POPC   C4B19766  24.771  14.284   6.777  0.1125  0.1390 -0.1461
68983POPC   NC319767  20.119  15.182   4.136 -0.0378  0.1299  0.0456
68983POPC   PO419768  20.108  14.825   4.314 -0.2907  0.0467 -0.0429
68983POPC   GL119769  19.817  14.778   4.541 -0.1547 -0.1916 -0.0789
68983POPC   GL219770  19.970  14.880   4.783 -0.3698 -0.0453 -0.2620
68983POPC   C1A19771  19.503  14.773   4.929 -0.3740 -0.1047 -0.0372
68983POPC   D2A19772  19.448  14.547   5.336  0.0449 -0.0035 -0.1776
68983POPC   C3A19773  19.636  14.614   5.778 -0.2354 -0.0784  0.0528
68983POPC   C4A19774  19.839  14.939   6.042  0.3081 -0.0450 -0.2074
68983POPC   C1B19775  19.937  14.595   5.164 -0.0239  0.2519 -0.2098
68983POPC   C2B19776  20.068  14.424   5.629 -0.1880 -0.1303 -0.1197
68983POPC   C3B19777  20.123  14.526   6.093  0.3330 -0.0195 -0.0584
68983POPC   C4B19778  20.005  14.692   6.505  0.1564 -0.0992 -0.1131
68984POPC   NC319779  26.720   4.896  11.666 -0.0284 -0.2202  0.0638
68984POPC   PO419780  26.801   4.837  12.047 -0.0997  0.0612 -0.0978
68984POPC   GL119781  26.792   4.450  12.105 -0.0262  0.1982  0.1572
68984POPC   GL219782  26.669   4.238  11.968 -0.1104  0.0441 -0.1060
68984POPC   C1A19783  27.171   4.188  12.143 -0.0178 -0.4016  0.5454
68984POPC   D2A19784  27.506   3.985  12.180  0.0834  0.1818 -0.1084
68984POPC   C3A19785  27.449   3.690  12.562 -0.0688 -0.1277 -0.1113
68984POPC   C4A19786  27.514   3.720  12.939 -0.0323 -0.0955 -0.2193
68984POPC   C1B19787  26.284   3.921  12.099  0.0272  0.0511  0.1431
68984POPC   C2B19788  26.121   3.514  12.266 -0.1433 -0.0511  0.1326
68984POPC   C3B19789  25.835   3.124  12.171 -0.0468  0.0444  0.0970
68984POPC   C4B19790  25.712   2.693  12.026 -0.2281  0.2676 -0.1695
68985POPC   NC319791  29.871  14.918   4.064  0.0182 -0.0730  0.0359
68985POPC   PO419792  29.900  14.788   4.410 -0.2297 -0.0033  0.0583
68985POPC   GL119793  30.029  14.939   4.755 -0.1093  0.0119 -0.1052
68985POPC   GL219794  29.738  14.950   4.878  0.3395 -0.1000  0.1568
68985POPC   C1A19795  30.126  14.757   5.159 -0.3736 -0.4136 -0.1780
68985POPC   D2A19796  30.202  14.505   5.518  0.0434  0.0350  0.0399
68985POPC   C3A19797  30.466  14.538   5.896 -0.2807 -0.0357  0.0653
68985POPC   C4A19798  30.456  14.518   6.320 -0.0347 -0.0730  0.1452
68985POPC   C1B19799  29.634  14.850   5.290 -0.0834 -0.4069  0.2400
68985POPC   C2B19800  29.756  14.793   5.734 -0.1663  0.3974 -0.2145
68985POPC   C3B19801  30.031  14.735   6.055  0.1533  0.1133 -0.1746
68985POPC   C4B19802  30.037  14.946   6.476  0.0275 -0.0017 -0.2826
68986POPC   NC319803  29.131  15.840   4.304  0.0131  0.3061 -0.2090
68986POPC   PO419804  29.545  15.865   4.243  0.2078 -0.0775  0.0629
68986POPC   GL119805  29.476  16.088   4.624  0.3845 -0.0495 -0.1828
68986POPC   GL219806  29.172  16.205   4.641 -0.0306 -0.0712  0.0536
68986POPC   C1A19807  29.756  16.213   4.946  0.2884 -0.1940  0.0247
68986POPC   D2A19808  30.095  16.293   5.221 -0.1429 -0.1195  0.0455
68986POPC   C3A19809  30.153  16.165   5.688 -0.2331 -0.1750  0.1078
68986POPC   C4A19810  30.334  16.020   6.053 -0.1921  0.4798  0.1626
68986POPC   C1B19811  29.210  15.872   4.905  0.1106  0.1003  0.3631
68986POPC   C2B19812  29.130  15.814   5.371 -0.0170  0.0228 -0.1623
68986POPC   C3B19813  29.099  15.878   5.836  0.0744  0.0669 -0.2414
68986POPC   C4B19814  29.366  15.829   6.255 -0.0094 -0.2475  0.1575
68987POPC   NC319815  26.758   5.380  11.868 -0.1878 -0.0602  0.2183
68987POPC   PO419816  27.115   5.166  11.798  0.3416 -0.2652  0.0909
68987POPC   GL119817  27.188   4.866  11.639 -0.4700 -0.0873  0.1672
68987POPC   GL219818  27.265   4.692  11.842  0.0418 -0.0470 -0.0866
68987POPC   C1A19819  27.240   4.682  11.234  0.0578 -0.1036  0.4942
68987POPC   D2A19820  27.367   4.465  10.822 -0.0584  0.1604 -0.1740
68987POPC   C3A19821  27.694   4.108  10.746  0.1746 -0.2680 -0.0894
68987POPC   C4A19822  28.016   3.812  10.952  0.0984 -0.0916 -0.0833
68987POPC   C1B19823  27.591   4.598  11.593  0.2187  0.1441  0.3035
68987POPC   C2B19824  27.735   4.661  11.154 -0.1291  0.2729  0.0581
68987POPC   C3B19825  28.050   4.427  10.956  0.0135  0.0374  0.0646
68987POPC   C4B19826  28.414   4.067  10.854  0.0054 -0.0648 -0.2447
68988POPC   NC319827  27.579   5.720   9.264 -0.0611  0.4259 -0.3178
68988POPC   PO419828  27.592   6.088   9.421  0.1648 -0.0226  0.0842
68988POPC   GL119829  27.840   6.245   9.695  0.0268 -0.0337  0.1637
68988POPC   GL219830  27.739   6.078   9.896  0.1534  0.0513  0.2474
68988POPC   C1A19831  27.805   6.582  10.020 -0.3343 -0.0465  0.1112
68988POPC   D2A19832  28.024   7.002  10.195 -0.0404 -0.0845 -0.0858
68988POPC   C3A19833  28.143   7.192  10.610 -0.2826  0.0961 -0.3005
68988POPC   C4A19834  28.564   7.273  10.793 -0.2932 -0.2544  0.0635
68988POPC   C1B19835  28.177   6.019   9.856 -0.0843 -0.1516  0.0843
68988POPC   C2B19836  28.601   6.132   9.789  0.0118  0.2532 -0.1515
68988POPC   C3B19837  29.017   6.104   9.542  0.0892  0.0637 -0.0144
68988POPC   C4B19838  29.221   5.760   9.271 -0.1764  0.0020  0.0700
68989POPC   NC319839  25.407   2.527   6.575 -0.0245  0.1214 -0.2517
68989POPC   PO419840  25.043   2.553   6.552  0.0844 -0.0455  0.1750
68989POPC   GL119841  24.987   2.196   6.736  0.0131  0.0795  0.0519
68989POPC   GL219842  25.099   1.945   6.629 -0.2168 -0.0459 -0.1269
68989POPC   C1A19843  24.836   1.992   7.087  0.0564  0.2032 -0.0422
68989POPC   D2A19844  24.951   1.787   7.534 -0.0497 -0.2585  0.0138
68989POPC   C3A19845  24.641   1.515   7.741 -0.2394 -0.0871 -0.1011
68989POPC   C4A19846  24.271   1.402   8.022 -0.0372 -0.0980  0.0981
68989POPC   C1B19847  25.263   1.704   6.983  0.1140  0.1486  0.1012
68989POPC   C2B19848  25.377   1.527   7.406  0.3320  0.1202  0.0365
68989POPC   C3B19849  25.790   1.556   7.479 -0.0664 -0.0284 -0.0908
68989POPC   C4B19850  26.238   1.599   7.608 -0.0425 -0.1370  0.0842
68990POPC   NC319851  18.017  16.361   3.567 -0.1800  0.1786 -0.2025
68990POPC   PO419852  17.896  16.660   3.756  0.1478 -0.0919 -0.2489
68990POPC   GL119853  17.655  16.682   4.056 -0.1380 -0.0411 -0.0606
68990POPC   GL219854  17.369  16.684   4.219 -0.0118  0.1642 -0.0620
68990POPC   C1A19855  17.721  16.417   4.449 -0.2973  0.1780  0.4834
68990POPC   D2A19856  17.630  16.117   4.778 -0.0049  0.4265  0.2051
68990POPC   C3A19857  17.753  15.987   5.169 -0.1391 -0.4189  0.1309
68990POPC   C4A19858  17.968  15.972   5.605  0.0518  0.1317  0.0412
68990POPC   C1B19859  17.598  16.882   4.505  0.1002  0.2248 -0.2291
68990POPC   C2B19860  17.618  16.984   4.940 -0.1237  0.3068  0.2507
68990POPC   C3B19861  17.715  16.958   5.428  0.0710  0.0871 -0.0024
68990POPC   C4B19862  17.546  16.931   5.849  0.0248 -0.3713 -0.1598
68991POPC   NC319863  26.923  12.479   5.714 -0.2994  0.2358 -0.0017
68991POPC   PO419864  26.854  12.582   5.318 -0.1091 -0.2005 -0.2060
68991POPC   GL119865  26.565  12.728   5.610  0.1028  0.0112 -0.3467
68991POPC   GL219866  26.350  12.592   5.673 -0.1879  0.0442  0.0794
68991POPC   C1A19867  26.636  12.614   6.081  0.1480  0.2218 -0.2250
68991POPC   D2A19868  26.395  12.480   6.471 -0.3312  0.0084  0.4145
68991POPC   C3A19869  26.573  12.423   6.885 -0.1407 -0.0823 -0.1058
68991POPC   C4A19870  26.871  12.676   7.084 -0.1584  0.0240 -0.1272
68991POPC   C1B19871  26.101  12.616   6.081  0.1981 -0.3181  0.2793
68991POPC   C2B19872  25.961  12.692   6.550 -0.0463  0.0137  0.1266
68991POPC   C3B19873  26.178  12.714   6.903 -0.0081  0.1068  0.1097
68991POPC   C4B19874  26.469  12.902   7.202 -0.0731  0.2023  0.1583
68992POPC   NC319875  23.074   3.092   5.841 -0.0588 -0.0254 -0.6540
68992POPC   PO419876  22.841   3.420   5.906  0.1066  0.0150  0.1852
68992POPC   GL119877  22.735   3.173   6.176  0.1943  0.2329 -0.1090
68992POPC   GL219878  22.524   3.273   6.358 -0.5793  0.0385 -0.1866
68992POPC   C1A19879  22.801   2.883   6.537 -0.0988 -0.0511 -0.1357
68992POPC   D2A19880  23.163   2.922   6.831 -0.0886 -0.1385 -0.0889
68992POPC   C3A19881  23.204   2.966   7.301  0.1510  0.2251 -0.3159
68992POPC   C4A19882  23.253   2.797   7.763  0.2418  0.2873  0.4437
68992POPC   C1B19883  22.333   3.160   6.766 -0.1061 -0.0922 -0.1244
68992POPC   C2B19884  22.138   2.981   7.112  0.0380  0.3698 -0.1549
68992POPC   C3B19885  21.954   2.771   7.422  0.2063 -0.0812 -0.1326
68992POPC   C4B19886  21.813   2.922   7.773  0.1588  0.2337  0.1083
68993POPC   NC319887  25.621   4.486   9.894  0.2481  0.0498 -0.0072
68993POPC   PO419888  25.458   4.555  10.235 -0.1687 -0.0251  0.3481
68993POPC   GL119889  25.356   4.149  10.273 -0.0448 -0.1642 -0.3470
68993POPC   GL219890  25.378   4.081  10.002 -0.3284  0.1587  0.2188
68993POPC   C1A19891  24.903   3.969  10.267  0.0884 -0.4344  0.0978
68993POPC   D2A19892  24.513   3.868   9.991  0.0864 -0.1602 -0.0685
68993POPC   C3A19893  24.488   3.948   9.515 -0.1282 -0.0091  0.1617
68993POPC   C4A19894  24.683   4.070   9.169 -0.3085  0.0740 -0.0376
68993POPC   C1B19895  25.589   3.700  10.067 -0.2068 -0.0366 -0.1510
68993POPC   C2B19896  25.682   3.299  10.277 -0.0339  0.0797 -0.1007
68993POPC   C3B19897  25.782   3.034  10.621  0.1941  0.2256 -0.0164
68993POPC   C4B19898  26.013   2.612  10.553  0.3640  0.3235 -0.1166
68994POPC   NC319899  31.184   4.968   5.598 -0.1360  0.3757  0.0254
68994POPC   PO419900  30.905   5.213   5.480  0.0243  0.2045 -0.0589
68994POPC   GL119901  30.927   5.262   5.906 -0.2202  0.1994 -0.1833
68994POPC   GL219902  31.176   5.372   5.975 -0.3323  0.1780 -0.1519
68994POPC   C1A19903  30.993   4.954   6.277 -0.0122  0.0143  0.2786
68994POPC   D2A19904  31.332   4.845   6.530 -0.0629 -0.0179  0.0985
68994POPC   C3A19905  31.294   5.038   6.927 -0.0439 -0.1561  0.2233
68994POPC   C4A19906  31.132   5.408   7.082 -0.2871 -0.0340  0.1087
68994POPC   C1B19907  31.439   5.009   6.052 -0.0229  0.2371  0.0262
68994POPC   C2B19908  31.900   4.916   6.044  0.0064  0.0322  0.0634
68994POPC   C3B19909  32.193   5.071   5.718  0.1269 -0.1677 -0.0060
68994POPC   C4B19910  32.419   5.316   5.441  0.1718 -0.2843 -0.0976
68995POPC   NC319911  21.600  10.853   5.040  0.0023  0.1035  0.4104
68995POPC   PO419912  21.724  10.720   4.698 -0.2518 -0.0942  0.0334
68995POPC   GL119913  21.920  10.522   4.965 -0.1852 -0.1252  0.1170
68995POPC   GL219914  22.084  10.719   5.236  0.1056 -0.1179 -0.0588
68995POPC   C1A19915  21.728  10.369   5.346  0.1599 -0.2669 -0.0878
68995POPC   D2A19916  21.752  10.234   5.784  0.0684 -0.1261  0.1577
68995POPC   C3A19917  21.363  10.413   5.892  0.2895  0.0717 -0.1171
68995POPC   C4A19918  21.045  10.648   6.028  0.0321 -0.1903 -0.2390
68995POPC   C1B19919  21.762  10.847   5.501 -0.0852  0.2824 -0.0293
68995POPC   C2B19920  21.577  10.854   5.903 -0.1231 -0.0793  0.3465
68995POPC   C3B19921  21.622  10.769   6.346  0.2075  0.0889  0.1412
68995POPC   C4B19922  22.002  10.761   6.568 -0.1447 -0.1679 -0.0208
68996POPC   NC319923  25.428   6.734  10.260  0.0636  0.2570 -0.2197
68996POPC   PO419924  25.050   6.845  10.327  0.0114  0.1815 -0.1283
68996POPC   GL119925  24.982   7.241  10.183 -0.0940 -0.1253 -0.1443
68996POPC   GL219926  25.175   7.280  10.467 -0.1846 -0.0782 -0.0115
68996POPC   C1A19927  25.192   7.637  10.104  0.0365 -0.0120  0.0936
68996POPC   D2A19928  25.061   8.099  10.211  0.0418  0.2069  0.1799
68996POPC   C3A19929  25.282   8.244  10.621  0.1995  0.1038 -0.3038
68996POPC   C4A19930  25.155   8.158  11.026 -0.1242 -0.0307  0.1784
68996POPC   C1B19931  24.881   7.380  10.751 -0.0298  0.1032 -0.0572
68996POPC   C2B19932  24.766   7.324  11.168 -0.1514  0.0767 -0.0557
68996POPC   C3B19933  24.627   7.611  11.449 -0.0397 -0.0094  0.1454
68996POPC   C4B19934  24.550   7.889  11.800  0.0371  0.1171  0.1911
68997POPC   NC319935  23.733   6.004   7.751 -0.0531  0.0681  0.0118
68997POPC   PO419936  23.953   6.223   7.499 -0.0557  0.2021  0.0078
68997POPC   GL119937  23.557   6.268   7.496  0.0989 -0.1656  0.2606
68997POPC   GL219938  23.481   6.521   7.425 -0.2856 -0.1027 -0.3936
68997POPC   C1A19939  23.223   6.153   7.822  0.0241 -0.4133  0.1388
68997POPC   D2A19940  22.816   6.255   8.045  0.3545  0.0324 -0.1006
68997POPC   C3A19941  22.836   6.574   8.416 -0.2109 -0.2907 -0.2317
68997POPC   C4A19942  22.626   6.829   8.700  0.5166 -0.5468 -0.0407
68997POPC   C1B19943  23.460   6.921   7.635 -0.0989 -0.2039 -0.0905
68997POPC   C2B19944  23.370   7.333   7.875  0.0234 -0.3269  0.1551
68997POPC   C3B19945  23.137   7.559   8.116 -0.1558  0.0647  0.2398
68997POPC   C4B19946  22.777   7.829   8.268  0.1063 -0.0603 -0.1001
68998POPC   NC319947  25.927  14.368   4.602  0.1280 -0.0130 -0.0796
68998POPC   PO419948  25.911  14.666   4.837 -0.0554  0.1123 -0.0658
68998POPC   GL119949  25.822  14.650   5.216  0.0017  0.1167  0.3838
68998POPC   GL219950  26.028  14.819   5.358 -0.0176  0.0522  0.1484
68998POPC   C1A19951  25.697  14.766   5.684  0.1069 -0.0592 -0.2016
68998POPC   D2A19952  25.791  14.862   6.152 -0.2688  0.0800 -0.1765
68998POPC   C3A19953  25.823  14.571   6.549  0.2948  0.0851  0.0705
68998POPC   C4A19954  25.726  14.239   6.853 -0.1541 -0.0593  0.1726
68998POPC   C1B19955  26.107  14.523   5.726 -0.0212 -0.0918 -0.0093
68998POPC   C2B19956  26.104  14.443   6.195 -0.1247  0.0186  0.0525
68998POPC   C3B19957  26.176  14.257   6.611 -0.3163  0.0145 -0.0585
68998POPC   C4B19958  26.392  13.878   6.611 -0.1844  0.2195 -0.0242
68999POPC   NC319959  22.017   1.546   5.011  0.2741 -0.1911  0.2529
68999POPC   PO419960  22.181   1.849   5.181 -0.0832  0.1005 -0.0988
68999POPC   GL119961  22.311   1.766   5.531 -0.2167 -0.3203  0.2866
68999POPC   GL219962  22.147   1.542   5.604 -0.1054  0.1437 -0.1091
68999POPC   C1A19963  22.562   1.687   5.911  0.0685  0.2543  0.0499
68999POPC   D2A19964  22.578   1.767   6.363 -0.0082  0.1426  0.0462
68999POPC   C3A19965  22.463   1.481   6.729  0.1748 -0.0648  0.0795
68999POPC   C4A19966  22.273   1.229   7.032  0.0822 -0.2673 -0.0608
68999POPC   C1B19967  22.088   1.297   5.996 -0.2670 -0.1427  0.0497
68999POPC   C2B19968  21.966   1.046   6.330  0.0116 -0.1671  0.0640
68999POPC   C3B19969  21.831   0.566   6.512  0.1237  0.0117  0.0501
68999POPC   C4B19970  21.701   0.202   6.738 -0.0448  0.0172 -0.2729
69000POPC   NC319971  24.449  12.141   4.805  0.1612  0.2940  0.2092
69000POPC   PO419972  24.229  12.414   4.949 -0.0189  0.0885  0.2619
69000POPC   GL119973  24.107  12.394   5.344 -0.0290 -0.3649  0.1062
69000POPC   GL219974  24.014  12.657   5.389  0.0949 -0.0053  0.1053
69000POPC   C1A19975  24.365  12.328   5.707 -0.2992 -0.1943 -0.0658
69000POPC   D2A19976  24.700  12.385   6.070  0.1479 -0.0480  0.1283
69000POPC   C3A19977  25.007  12.717   6.089 -0.0969  0.0016  0.1621
69000POPC   C4A19978  25.349  13.072   5.916 -0.0664  0.1377 -0.0580
69000POPC   C1B19979  23.869  12.883   5.739  0.2041  0.3262  0.0409
69000POPC   C2B19980  24.029  13.154   6.080 -0.2077 -0.1079  0.1015
69000POPC   C3B19981  23.988  13.492   6.402 -0.0996  0.0095  0.2584
69000POPC   C4B19982  23.878  13.749   6.792 -0.0454  0.0500 -0.0598
69001POPC   NC319983  27.188   9.352   7.403  0.1346 -0.0250  0.0906
69001POPC   PO419984  27.429   9.087   7.276  0.0080  0.1653 -0.1658
69001POPC   GL119985  27.572   9.347   7.628  0.2525 -0.2178 -0.0683
69001POPC   GL219986  27.541   9.152   7.845 -0.0205 -0.0730  0.0472
69001POPC   C1A19987  27.774   9.524   8.056  0.3178  0.1989 -0.1496
69001POPC   D2A19988  27.918   9.832   8.365 -0.1254 -0.1292  0.1771
69001POPC   C3A19989  27.788   9.673   8.759  0.0553  0.2525 -0.1772
69001POPC   C4A19990  27.444   9.347   8.870 -0.1626 -0.1426 -0.0760
69001POPC   C1B19991  27.231   9.449   7.944  0.0283  0.0082  0.1167
69001POPC   C2B19992  26.832   9.580   8.135  0.1992  0.1128 -0.0739
69001POPC   C3B19993  26.764   9.698   8.542  0.0216 -0.1599 -0.1611
69001POPC   C4B19994  26.703  10.141   8.717  0.0240  0.2495  0.0769
69002POPC   NC319995  25.217   8.278   7.647  0.0846  0.0725  0.0587
69002POPC   PO419996  24.928   8.000   7.621  0.0826  0.1773 -0.0327
69002POPC   GL119997  24.731   8.197   7.911  0.1973 -0.0309 -0.1177
69002POPC   GL219998  24.843   8.162   8.123  0.1563  0.0340 -0.1049
69002POPC   C1A19999  24.817   8.624   8.060 -0.1305 -0.0188  0.0214
69002POPC   D2A20000  24.866   9.056   8.216  0.0308  0.2415  0.1960
69002POPC   C3A20001  24.694   9.240   8.587  0.1478  0.1973 -0.0670
69002POPC   C4A20002  24.793   9.095   9.012 -0.2230 -0.0113 -0.4074
69002POPC   C1B20003  24.471   8.315   8.406 -0.1643  0.0816  0.0399
69002POPC   C2B20004  24.028   8.429   8.559  0.2033  0.2105  0.2338
69002POPC   C3B20005  23.703   8.451   8.910  0.2424  0.5031 -0.2145
69002POPC   C4B20006  23.334   8.701   8.973 -0.0324  0.2048  0.1710
69003POPC   NC320007  29.563   5.158   6.224  0.0263 -0.2574 -0.0176
69003POPC   PO420008  29.192   5.078   6.113  0.1064 -0.2426  0.3635
69003POPC   GL120009  29.249   4.817   6.416  0.1294 -0.3435  0.0007
69003POPC   GL220010  29.376   4.623   6.297 -0.0144 -0.0355  0.0184
69003POPC   C1A20011  29.581   4.817   6.760  0.1834  0.1768  0.1950
69003POPC   D2A20012  29.812   4.780   7.146  0.1754 -0.0884  0.0603
69003POPC   C3A20013  29.991   4.487   7.466  0.2488 -0.1625  0.1327
69003POPC   C4A20014  30.226   4.229   7.766  0.1869 -0.1995 -0.1403
69003POPC   C1B20015  29.639   4.343   6.581  0.3546  0.1019  0.2608
69003POPC   C2B20016  29.877   4.239   6.981 -0.2737 -0.0502  0.1732
69003POPC   C3B20017  30.174   4.039   7.320  0.0197 -0.0127  0.1877
69003POPC   C4B20018  30.574   3.791   7.342 -0.0740 -0.1579 -0.0561
69004POPC   NC320019  26.953  10.071   6.660  0.1901 -0.1009  0.0043
69004POPC   PO420020  26.760  10.280   6.367  0.2356  0.0941  0.2348
69004POPC   GL120021  26.513  10.281   6.718  0.2414  0.2457  0.0264
69004POPC   GL220022  26.237  10.374   6.854 -0.0737  0.1512 -0.1410
69004POPC   C1A20023  26.736  10.646   6.914  0.2608 -0.5071  0.0667
69004POPC   D2A20024  26.759  10.982   7.272 -0.1306 -0.1145 -0.2045
69004POPC   C3A20025  26.553  11.191   7.585  0.0235 -0.2442  0.0508
69004POPC   C4A20026  26.756  11.315   7.965 -0.0095 -0.1314  0.2289
69004POPC   C1B20027  26.210  10.652   7.227 -0.2978  0.2698  0.1907
69004POPC   C2B20028  26.223  10.725   7.686 -0.2388 -0.0643  0.1669
69004POPC   C3B20029  26.033  10.761   8.089 -0.2662  0.2427 -0.0308
69004POPC   C4B20030  25.905  11.129   8.414 -0.2192 -0.0458  0.2132
69005POPC   NC320031  28.073   7.870   8.169 -0.1504 -0.0869  0.1936
69005POPC   PO420032  28.320   7.790   7.873  0.1895 -0.0720  0.3465
69005POPC   GL120033  28.629   7.869   8.136 -0.1079 -0.0571 -0.6273
69005POPC   GL220034  28.579   8.111   8.224  0.0079  0.0891  0.1016
69005POPC   C1A20035  29.033   7.807   8.396  0.0120 -0.0751  0.2900
69005POPC   D2A20036  29.147   7.956   8.826  0.2454 -0.1403  0.2908
69005POPC   C3A20037  29.214   8.093   9.242  0.0188 -0.1802  0.1900
69005POPC   C4A20038  29.664   8.233   9.366  0.1213 -0.1086  0.1564
69005POPC   C1B20039  28.668   8.362   8.599 -0.3236 -0.0313 -0.0887
69005POPC   C2B20040  28.665   8.769   8.801 -0.0734  0.2733  0.1531
69005POPC   C3B20041  28.844   8.820   9.208  0.2099  0.1493 -0.0201
69005POPC   C4B20042  28.817   9.218   9.427  0.0195 -0.0337 -0.0218
69006POPC   NC320043  24.372  17.249   4.908  0.3005 -0.3795 -0.0518
69006POPC   PO420044  24.361  16.952   5.224 -0.1626 -0.1355  0.2503
69006POPC   GL120045  24.471  16.722   5.598  0.2557  0.0548  0.3264
69006POPC   GL220046  24.693  16.875   5.638  0.1200  0.0978 -0.0732
69006POPC   C1A20047  24.220  16.407   5.883 -0.1267 -0.0922 -0.1443
69006POPC   D2A20048  23.788  16.242   5.931  0.1572  0.0539 -0.0493
69006POPC   C3A20049  23.702  16.371   6.389 -0.2114  0.1471  0.1306
69006POPC   C4A20050  23.429  16.673   6.585  0.1435 -0.1821 -0.2057
69006POPC   C1B20051  24.538  16.869   6.093 -0.1613  0.0278 -0.0037
69006POPC   C2B20052  24.714  16.907   6.491  0.2438 -0.0317  0.2302
69006POPC   C3B20053  24.736  17.203   6.893 -0.0406  0.0646 -0.0019
69006POPC   C4B20054  24.661  17.508   7.238  0.2503  0.0861 -0.2533
69007POPC   NC320055  32.696  13.970   4.301  0.0958 -0.2470  0.0826
69007POPC   PO420056  32.513  13.615   4.189 -0.0806 -0.0550  0.1129
69007POPC   GL120057  32.503  13.318   4.539 -0.3623  0.0712 -0.1838
69007POPC   GL220058  32.221  13.282   4.596 -0.1506  0.1938 -0.1647
69007POPC   C1A20059  32.575  12.941   4.909  0.0564 -0.0052 -0.3240
69007POPC   D2A20060  32.571  12.924   5.412 -0.1365  0.0499  0.3427
69007POPC   C3A20061  32.722  12.768   5.839  0.2842  0.1776  0.1762
69007POPC   C4A20062  32.886  13.065   6.151  0.1077  0.0988  0.1072
69007POPC   C1B20063  32.386  13.404   5.035 -0.0987 -0.0594  0.4490
69007POPC   C2B20064  32.316  13.480   5.467  0.3247 -0.0321 -0.3606
69007POPC   C3B20065  32.445  13.226   5.871  0.2408 -0.1384 -0.0316
69007POPC   C4B20066  32.501  13.390   6.273 -0.3926 -0.1482  0.0106
69008POPC   NC320067  27.246   7.678   8.569  0.2971 -0.3447  0.0695
69008POPC   PO420068  27.168   7.400   8.814 -0.1018  0.3142 -0.1681
69008POPC   GL120069  27.412   7.531   9.064 -0.1978  0.0727  0.2803
69008POPC   GL220070  27.296   7.764   9.183  0.0529  0.2535 -0.1564
69008POPC   C1A20071  27.552   7.509   9.511  0.1318 -0.1543  0.1351
69008POPC   D2A20072  27.571   7.883   9.834  0.2500  0.1474  0.0223
69008POPC   C3A20073  27.571   8.290  10.030  0.2636 -0.3090  0.0202
69008POPC   C4A20074  27.506   8.750   9.882 -0.0767 -0.0034 -0.0372
69008POPC   C1B20075  27.385   8.148   9.441  0.0621 -0.4537 -0.0255
69008POPC   C2B20076  27.292   8.619   9.441 -0.2179  0.0242 -0.2227
69008POPC   C3B20077  27.438   9.058   9.478 -0.0604 -0.4791 -0.1186
69008POPC   C4B20078  27.342   9.478   9.386  0.1099  0.0873  0.3442
69009POPC   NC320079  24.885  10.209   5.883  0.1451 -0.1482 -0.0890
69009POPC   PO420080  24.754  10.406   5.568 -0.1031  0.0489 -0.1024
69009POPC   GL120081  24.567  10.495   5.935  0.1613 -0.1833 -0.2894
69009POPC   GL220082  24.377  10.695   6.012 -0.1859 -0.1636  0.1772
69009POPC   C1A20083  24.650  10.469   6.403  0.2529  0.0225 -0.1053
69009POPC   D2A20084  24.483  10.585   6.814 -0.0819 -0.3555  0.0186
69009POPC   C3A20085  24.651  10.911   7.134 -0.1884  0.0092  0.0307
69009POPC   C4A20086  24.982  11.108   7.395 -0.2068 -0.1122 -0.0446
69009POPC   C1B20087  24.219  10.717   6.411 -0.1081  0.0500 -0.0423
69009POPC   C2B20088  23.985  10.751   6.770 -0.2346  0.0292  0.0417
69009POPC   C3B20089  23.811  10.714   7.214  0.2367 -0.0954  0.0871
69009POPC   C4B20090  23.481  10.422   7.260 -0.1252  0.0243  0.0108
69010POPC   NC320091  31.314   6.767   5.615 -0.1990  0.2229  0.1066
69010POPC   PO420092  31.485   7.051   5.813 -0.1987  0.1843 -0.0887
69010POPC   GL120093  31.644   7.059   6.180 -0.2020  0.0138  0.1147
69010POPC   GL220094  31.427   7.290   6.256 -0.0708 -0.1591  0.4157
69010POPC   C1A20095  31.707   6.726   6.544  0.0839  0.0815 -0.0076
69010POPC   D2A20096  31.881   6.654   7.000  0.0388 -0.0763  0.1977
69010POPC   C3A20097  32.116   6.382   7.235 -0.1422 -0.0566 -0.0743
69010POPC   C4A20098  32.439   6.188   7.523  0.1741  0.4168  0.1053
69010POPC   C1B20099  31.654   7.254   6.605  0.0526  0.1105 -0.0296
69010POPC   C2B20100  31.970   7.489   6.839 -0.1472 -0.0800  0.1767
69010POPC   C3B20101  32.018   7.912   6.920 -0.0628 -0.4263 -0.2507
69010POPC   C4B20102  32.220   8.375   6.956  0.3297  0.1562 -0.0459
69011POPC   NC320103  23.278  14.777   4.433 -0.0042  0.3325 -0.1294
69011POPC   PO420104  23.144  14.687   4.805  0.0339 -0.2223 -0.0336
69011POPC   GL120105  23.163  14.700   5.224  0.2588  0.1909 -0.1934
69011POPC   GL220106  23.058  14.398   5.223 -0.0112 -0.0434 -0.0274
69011POPC   C1A20107  22.994  14.786   5.638 -0.4188  0.1871 -0.0096
69011POPC   D2A20108  22.852  15.013   6.013 -0.0119  0.0162  0.0287
69011POPC   C3A20109  22.777  14.813   6.462  0.2026  0.4840 -0.1969
69011POPC   C4A20110  22.901  14.936   6.909  0.2100 -0.0238 -0.1264
69011POPC   C1B20111  23.339  14.194   5.481 -0.2960 -0.1228 -0.5636
69011POPC   C2B20112  23.390  13.967   5.885  0.0179 -0.3150 -0.0323
69011POPC   C3B20113  23.298  14.150   6.313  0.1755  0.0579  0.0126
69011POPC   C4B20114  23.209  14.490   6.569  0.0001 -0.0243  0.2834
69012POPC   NC320115  17.032  16.039   3.926  0.0858  0.0772 -0.0211
69012POPC   PO420116  16.693  15.900   4.082  0.0046 -0.3058  0.0551
69012POPC   GL120117  16.714  16.186   4.316  0.0863 -0.0184 -0.0062
69012POPC   GL220118  16.823  16.041   4.584  0.2105 -0.2114 -0.1733
69012POPC   C1A20119  16.353  16.268   4.624  0.1215 -0.0121 -0.2509
69012POPC   D2A20120  16.100  16.155   5.003  0.1618  0.1890 -0.2116
69012POPC   C3A20121  16.356  16.160   5.398 -0.1121 -0.2404 -0.2429
69012POPC   C4A20122  16.298  16.117   5.892  0.1862 -0.1796  0.4324
69012POPC   C1B20123  17.158  16.077   4.887 -0.0534  0.0672 -0.1260
69012POPC   C2B20124  17.247  15.935   5.272  0.0005 -0.0793  0.4284
69012POPC   C3B20125  17.482  15.749   5.545 -0.0764 -0.1352  0.3656
69012POPC   C4B20126  17.573  15.396   5.879  0.1331 -0.2287 -0.3131
69013POPC   NC320127  17.423  13.947   3.832 -0.0344 -0.1121 -0.3922
69013POPC   PO420128  17.058  14.047   3.763  0.0296  0.0857  0.0587
69013POPC   GL120129  16.849  13.961   4.031  0.0815 -0.0720  0.3966
69013POPC   GL220130  17.052  13.853   4.220  0.0626  0.1720 -0.0914
69013POPC   C1A20131  16.560  13.894   4.411 -0.0693 -0.1849  0.2619
69013POPC   D2A20132  16.426  13.913   4.885 -0.2035  0.3109  0.1985
69013POPC   C3A20133  16.555  13.809   5.353  0.0356  0.2098 -0.0972
69013POPC   C4A20134  16.755  13.448   5.445 -0.4826  0.2686  0.0103
69013POPC   C1B20135  17.140  14.002   4.641  0.2772 -0.2875  0.0704
69013POPC   C2B20136  17.240  14.396   4.833  0.0516 -0.0046 -0.2081
69013POPC   C3B20137  17.219  14.712   5.170  0.1080 -0.0010  0.1090
69013POPC   C4B20138  17.246  14.950   5.587  0.0371  0.1389  0.1254
69014POPC   NC320139  25.262   6.486  11.215  0.0743  0.0543 -0.1361
69014POPC   PO420140  24.852   6.413  11.192 -0.2325  0.2377 -0.1314
69014POPC   GL120141  24.578   6.331  10.879 -0.3927 -0.2837  0.0128
69014POPC   GL220142  24.405   6.321  11.067 -0.1366 -0.0687  0.2190
69014POPC   C1A20143  24.286   6.531  10.539 -0.1339 -0.0522 -0.1094
69014POPC   D2A20144  23.946   6.814  10.444  0.2583 -0.0189  0.1170
69014POPC   C3A20145  23.599   6.675  10.229 -0.2595 -0.0225 -0.3354
69014POPC   C4A20146  23.417   6.246  10.075  0.3291 -0.3147 -0.0310
69014POPC   C1B20147  23.968   6.453  11.011 -0.2166 -0.0604  0.0573
69014POPC   C2B20148  23.599   6.196  11.012  0.2505  0.2306  0.1208
69014POPC   C3B20149  23.163   6.411  11.042 -0.0501  0.1347 -0.1075
69014POPC   C4B20150  22.792   6.181  11.033  0.3061 -0.3437  0.1306
69015POPC   NC320151  31.691  15.352   4.152 -0.2312 -0.1180 -0.0496
69015POPC   PO420152  32.111  15.421   4.144  0.0190 -0.1613  0.0044
69015POPC   GL120153  31.943  15.279   4.520  0.1745  0.0107 -0.1056
69015POPC   GL220154  31.981  14.992   4.429  0.2126  0.2776  0.0214
69015POPC   C1A20155  31.615  15.437   4.836  0.2808 -0.0163  0.3241
69015POPC   D2A20156  31.434  15.384   5.276 -0.0063 -0.0334  0.0055
69015POPC   C3A20157  31.556  15.232   5.724 -0.1770 -0.0007 -0.0520
69015POPC   C4A20158  31.474  15.020   6.140  0.1121 -0.3606 -0.2063
69015POPC   C1B20159  32.322  14.910   4.722  0.0137  0.0517  0.3396
69015POPC   C2B20160  32.710  14.810   4.958 -0.2685 -0.0762  0.1258
69015POPC   C3B20161  33.016  15.078   5.192 -0.1045 -0.2577  0.0918
69015POPC   C4B20162  33.446  15.227   5.210  0.2612 -0.1901 -0.0621
69016POPC   NC320163  19.475   0.252   4.488 -0.1539  0.0577 -0.0033
69016POPC   PO420164  19.434   0.671   4.495  0.1451  0.3514 -0.0103
69016POPC   GL120165  19.128   0.492   4.736  0.3686 -0.0926  0.1834
69016POPC   GL220166  18.973   0.344   4.458 -0.1150  0.2708 -0.0904
69016POPC   C1A20167  19.338   0.305   5.072 -0.0666 -0.1087  0.0092
69016POPC   D2A20168  19.554   0.170   5.488 -0.3057  0.3237 -0.2333
69016POPC   C3A20169  19.340   0.136   5.882  0.1493 -0.1777  0.1696
69016POPC   C4A20170  19.566  -0.069   6.226  0.0087  0.2000  0.1764
69016POPC   C1B20171  18.752   0.724   4.629 -0.0528  0.0316 -0.0508
69016POPC   C2B20172  18.803   1.070   4.940  0.0015  0.5276 -0.0790
69016POPC   C3B20173  19.071   1.209   5.235  0.0635  0.1409  0.3357
69016POPC   C4B20174  19.219   1.252   5.683 -0.1275 -0.2120  0.1658
69017POPC   NC320175  22.850   5.728   6.963  0.1344 -0.1089 -0.0916
69017POPC   PO420176  23.009   5.456   6.749  0.2990  0.3995  0.1063
69017POPC   GL120177  22.735   5.249   6.915 -0.1162  0.0299 -0.0503
69017POPC   GL220178  22.538   5.027   6.885  0.0357 -0.1801  0.0750
69017POPC   C1A20179  22.722   5.214   7.381 -0.1729  0.0760  0.0976
69017POPC   D2A20180  22.537   5.421   7.815  0.3460 -0.0772  0.0389
69017POPC   C3A20181  22.486   5.885   7.859 -0.1734  0.1737 -0.4400
69017POPC   C4A20182  22.229   6.214   7.957  0.0345  0.2157 -0.0096
69017POPC   C1B20183  22.238   5.222   7.127  0.1559 -0.0303  0.0961
69017POPC   C2B20184  22.065   5.301   7.563  0.3090  0.2925  0.2473
69017POPC   C3B20185  22.067   5.657   7.860  0.0834  0.1387  0.1767
69017POPC   C4B20186  22.007   5.841   8.293  0.0126  0.0532  0.1527
69018POPC   NC320187  29.370  11.951   4.329  0.1437  0.0304 -0.3080
69018POPC   PO420188  29.745  12.043   4.387  0.2294  0.0146  0.4484
69018POPC   GL120189  29.698  12.155   4.820 -0.0669 -0.1180  0.4198
69018POPC   GL220190  30.002  12.071   4.884  0.2525  0.3090 -0.1816
69018POPC   C1A20191  29.634  12.510   5.146 -0.2153  0.0199 -0.1216
69018POPC   D2A20192  29.752  12.689   5.558  0.1471  0.0382  0.0771
69018POPC   C3A20193  29.779  12.896   5.974  0.1415 -0.1625  0.0677
69018POPC   C4A20194  29.737  13.097   6.390 -0.0454 -0.2232 -0.1283
69018POPC   C1B20195  30.201  11.929   5.237 -0.0728 -0.1937  0.1616
69018POPC   C2B20196  30.223  12.046   5.661 -0.1717  0.0082 -0.0116
69018POPC   C3B20197  30.212  12.122   6.110  0.2107  0.2129  0.4344
69018POPC   C4B20198  30.156  12.157   6.588 -0.2228 -0.2112 -0.0837
69019POPC   NC320199  30.153   4.077   5.453  0.1950  0.1178  0.1468
69019POPC   PO420200  30.311   4.374   5.357  0.0137 -0.0311 -0.0066
69019POPC   GL120201  30.389   4.547   5.741 -0.1767  0.0565 -0.3199
69019POPC   GL220202  30.246   4.291   5.897 -0.1018  0.0217 -0.1816
69019POPC   C1A20203  30.593   4.562   6.174  0.1740 -0.1519  0.2057
69019POPC   D2A20204  30.786   4.581   6.636  0.0579  0.0582  0.0042
69019POPC   C3A20205  31.145   4.575   6.910  0.1271 -0.1891  0.3588
69019POPC   C4A20206  31.515   4.612   7.217 -0.0196 -0.3008  0.3156
69019POPC   C1B20207  30.268   4.116   6.343  0.2441 -0.2327  0.5047
69019POPC   C2B20208  30.373   4.245   6.754  0.0459  0.2294 -0.1055
69019POPC   C3B20209  30.621   4.272   7.200 -0.1657 -0.0338  0.0995
69019POPC   C4B20210  31.016   4.448   7.432 -0.1643  0.2666 -0.2019
69020POPC   NC320211  21.615   2.367   5.601  0.1686 -0.0383 -0.1389
69020POPC   PO420212  21.876   2.612   5.527  0.0360  0.2455 -0.1499
69020POPC   GL120213  21.918   2.565   5.884  0.0444  0.2757  0.0868
69020POPC   GL220214  22.154   2.559   5.960  0.0492 -0.2711 -0.4220
69020POPC   C1A20215  21.814   2.445   6.298 -0.2351 -0.1384  0.2444
69020POPC   D2A20216  21.942   2.320   6.694  0.3339 -0.4740 -0.3729
69020POPC   C3A20217  22.089   1.957   6.863  0.0078 -0.0245 -0.2208
69020POPC   C4A20218  21.966   1.604   7.154  0.0550  0.0820 -0.2801
69020POPC   C1B20219  22.354   2.727   6.339  0.1580 -0.2267 -0.2402
69020POPC   C2B20220  22.406   2.626   6.786  0.1680 -0.2760  0.0384
69020POPC   C3B20221  22.264   2.428   7.219  0.1917  0.1545  0.0721
69020POPC   C4B20222  22.076   2.035   7.364 -0.2622  0.0860  0.3143
69021POPC   NC320223  22.135   9.961   5.570 -0.0459  0.2797  0.0142
69021POPC   PO420224  22.425   9.819   5.305 -0.0557 -0.1530 -0.0550
69021POPC   GL120225  22.821   9.803   5.406 -0.0110 -0.4702 -0.0368
69021POPC   GL220226  22.826  10.091   5.336 -0.0569  0.0325 -0.0152
69021POPC   C1A20227  23.077   9.922   5.848 -0.1364 -0.1324 -0.1864
69021POPC   D2A20228  23.449   9.725   6.022  0.0116 -0.1935  0.0592
69021POPC   C3A20229  23.434   9.928   6.409  0.0942  0.2155  0.3990
69021POPC   C4A20230  23.265  10.008   6.877 -0.2895  0.0632  0.1193
69021POPC   C1B20231  22.672  10.299   5.729 -0.2054 -0.0456  0.4692
69021POPC   C2B20232  22.447  10.205   6.111  0.2173  0.0755  0.1526
69021POPC   C3B20233  22.249  10.168   6.554 -0.0015 -0.1219 -0.2596
69021POPC   C4B20234  22.165   9.780   6.774  0.0064  0.0282 -0.0572
69022POPC   NC320235  31.014   7.161   5.953  0.1608 -0.1677  0.1220
69022POPC   PO420236  30.699   6.959   5.887  0.1805 -0.1356  0.0184
69022POPC   GL120237  30.711   6.897   6.261  0.0389  0.2599  0.2194
69022POPC   GL220238  30.736   7.081   6.414 -0.3438  0.2022 -0.0686
69022POPC   C1A20239  30.912   6.511   6.520  0.1535 -0.0732  0.0455
69022POPC   D2A20240  30.701   6.101   6.570  0.2236  0.0200 -0.1726
69022POPC   C3A20241  30.806   6.160   7.013  0.0994 -0.1074 -0.1729
69022POPC   C4A20242  30.971   5.946   7.438  0.0696 -0.0073  0.3583
69022POPC   C1B20243  30.879   6.926   6.856  0.2150  0.1885 -0.0213
69022POPC   C2B20244  31.046   7.062   7.247  0.0456 -0.0230 -0.3945
69022POPC   C3B20245  31.122   7.029   7.713 -0.3218 -0.2402 -0.2892
69022POPC   C4B20246  31.326   7.296   8.005  0.4721 -0.2436 -0.1627
69023POPC   NC320247  23.243  15.129   5.011  0.1731 -0.2697 -0.1148
69023POPC   PO420248  23.515  15.186   4.707  0.0314  0.2731  0.1576
69023POPC   GL120249  23.651  15.266   5.119 -0.4669 -0.1076 -0.2820
69023POPC   GL220250  23.400  15.436   5.366 -0.5002 -0.1784 -0.1306
69023POPC   C1A20251  23.873  15.013   5.425  0.4405 -0.0797 -0.2261
69023POPC   D2A20252  23.972  14.704   5.815  0.2101 -0.2993  0.0248
69023POPC   C3A20253  23.626  14.542   6.008 -0.2223  0.1806 -0.1188
69023POPC   C4A20254  23.226  14.418   5.917  0.0118  0.0227 -0.3258
69023POPC   C1B20255  23.666  15.419   5.733 -0.1456  0.1028  0.0742
69023POPC   C2B20256  23.836  15.117   6.011 -0.1288  0.1261 -0.2501
69023POPC   C3B20257  24.071  14.849   6.306  0.1402  0.1473  0.2220
69023POPC   C4B20258  24.201  14.985   6.738  0.0713  0.1664 -0.1301
69024POPC   NC320259  19.020  11.561   4.391  0.2264 -0.1564  0.1127
69024POPC   PO420260  18.911  11.215   4.429 -0.1573  0.1467  0.0227
69024POPC   GL120261  19.172  11.223   4.757  0.0768 -0.0313  0.2028
69024POPC   GL220262  19.102  10.985   4.982  0.2742 -0.0070  0.2241
69024POPC   C1A20263  19.501  11.330   5.038 -0.1405  0.0484 -0.2147
69024POPC   D2A20264  19.613  11.201   5.482 -0.1344 -0.3486 -0.1213
69024POPC   C3A20265  19.842  11.467   5.838 -0.0378  0.2235 -0.0357
69024POPC   C4A20266  19.903  11.889   6.022 -0.0836  0.1044  0.1686
69024POPC   C1B20267  18.773  10.879   5.260 -0.4368 -0.0581  0.1274
69024POPC   C2B20268  18.391  11.137   5.488  0.0834  0.1266 -0.0772
69024POPC   C3B20269  18.055  11.207   5.816  0.3702 -0.0287 -0.0401
69024POPC   C4B20270  17.715  11.535   5.895 -0.0103  0.3384  0.0469
69025POPC   NC320271  25.341   4.855   9.254 -0.0092 -0.0839 -0.0676
69025POPC   PO420272  25.658   4.608   9.172  0.1158  0.0999  0.4002
69025POPC   GL120273  25.578   4.387   9.421 -0.1724  0.1351  0.0948
69025POPC   GL220274  25.870   4.311   9.492 -0.0273  0.0939  0.4912
69025POPC   C1A20275  25.393   3.965   9.429  0.2180  0.2927  0.0393
69025POPC   D2A20276  25.293   3.606   9.726 -0.0521  0.0155 -0.0693
69025POPC   C3A20277  25.089   3.506  10.117  0.0484  0.0790 -0.0150
69025POPC   C4A20278  24.641   3.472  10.276 -0.3715  0.1759  0.0941
69025POPC   C1B20279  25.831   3.913   9.725 -0.0074 -0.1174  0.6212
69025POPC   C2B20280  25.982   3.486   9.840  0.2833 -0.2366  0.3102
69025POPC   C3B20281  26.024   3.042   9.765  0.1725  0.0599 -0.3619
69025POPC   C4B20282  25.930   2.885   9.316 -0.0932  0.3207 -0.2043
69026POPC   NC320283  30.612  10.899   4.823 -0.3145  0.2814 -0.0718
69026POPC   PO420284  30.919  11.151   4.698  0.2542 -0.0658 -0.0152
69026POPC   GL120285  31.038  10.979   5.048 -0.2775  0.2367 -0.0671
69026POPC   GL220286  31.295  10.991   5.185 -0.1108 -0.2285 -0.0318
69026POPC   C1A20287  31.076  10.531   5.330  0.1637  0.1072  0.1221
69026POPC   D2A20288  31.290  10.398   5.758 -0.1266  0.0749 -0.0336
69026POPC   C3A20289  31.137  10.316   6.201 -0.0740  0.0207  0.1769
69026POPC   C4A20290  31.022  10.390   6.684  0.1141 -0.0888 -0.1138
69026POPC   C1B20291  31.191  10.932   5.628  0.1260 -0.0164 -0.1736
69026POPC   C2B20292  31.076  11.052   6.016  0.1154  0.2510 -0.0070
69026POPC   C3B20293  31.308  11.271   6.370 -0.3390  0.0697  0.0084
69026POPC   C4B20294  31.313  11.643   6.677 -0.0234  0.1281 -0.0095
69027POPC   NC320295  16.611  16.653   4.265  0.1528  0.1844 -0.0956
69027POPC   PO420296  16.910  16.612   4.020 -0.2096 -0.2170 -0.0791
69027POPC   GL120297  17.042  16.437   4.343  0.1895  0.3754  0.1464
69027POPC   GL220298  17.273  16.186   4.370 -0.3229 -0.0415  0.3178
69027POPC   C1A20299  17.248  16.583   4.692  0.0592 -0.1105  0.1053
69027POPC   D2A20300  17.396  16.521   5.139  0.2069 -0.0359 -0.2548
69027POPC   C3A20301  17.244  16.651   5.539  0.4499  0.1206  0.1370
69027POPC   C4A20302  17.147  16.483   5.967  0.1149 -0.3020  0.3587
69027POPC   C1B20303  17.615  15.895   4.320 -0.0233  0.2064  0.0974
69027POPC   C2B20304  17.777  15.678   4.675 -0.1880 -0.0036  0.2419
69027POPC   C3B20305  18.169  15.630   4.958 -0.1032  0.0323  0.0026
69027POPC   C4B20306  18.595  15.883   4.984  0.2109 -0.4102  0.0112
69028POPC   NC320307  28.527  10.326   5.809  0.3130 -0.1586  0.0054
69028POPC   PO420308  28.221  10.316   6.014 -0.2742 -0.1043  0.0966
69028POPC   GL120309  28.018  10.560   6.215  0.0645  0.1932  0.2917
69028POPC   GL220310  27.738  10.453   6.323 -0.0711 -0.0736 -0.1563
69028POPC   C1A20311  28.150  10.872   6.517 -0.0752  0.1289 -0.1742
69028POPC   D2A20312  28.232  11.249   6.785 -0.0467  0.0395 -0.0194
69028POPC   C3A20313  28.302  11.716   6.926  0.1304  0.1370 -0.1612
69028POPC   C4A20314  28.303  12.021   7.276  0.0400  0.0454 -0.0635
69028POPC   C1B20315  27.718  10.515   6.771 -0.0228  0.1095  0.0357
69028POPC   C2B20316  27.698  10.631   7.243  0.1176  0.0303 -0.1284
69028POPC   C3B20317  27.676  10.814   7.724  0.2256 -0.0446  0.1390
69028POPC   C4B20318  27.549  11.156   8.009 -0.0048  0.2357 -0.0278
69029POPC   NC320319  20.231   3.396   5.536 -0.0951 -0.1022 -0.1752
69029POPC   PO420320  20.003   3.280   5.234 -0.0606 -0.0834  0.0455
69029POPC   GL120321  19.802   3.285   5.636 -0.0450 -0.1372 -0.2155
69029POPC   GL220322  19.500   3.328   5.744 -0.3031 -0.1909  0.1168
69029POPC   C1A20323  19.968   3.494   5.962 -0.0011 -0.3555 -0.1675
69029POPC   D2A20324  20.123   3.384   6.402  0.0765  0.1384  0.1416
69029POPC   C3A20325  19.856   3.309   6.775 -0.1623 -0.1343 -0.0732
69029POPC   C4A20326  19.592   3.364   7.190  0.0293  0.0744 -0.0416
69029POPC   C1B20327  19.518   3.304   6.206  0.0629  0.2065  0.0598
69029POPC   C2B20328  19.349   3.128   6.589 -0.0379  0.0651  0.4268
69029POPC   C3B20329  19.079   3.402   6.833  0.1902  0.2538 -0.0048
69029POPC   C4B20330  19.014   3.505   7.288  0.0987  0.3400  0.0062
69030POPC   NC320331  18.269  12.574   4.141 -0.1144  0.0417 -0.2284
69030POPC   PO420332  18.156  12.212   4.334  0.3656  0.0283  0.0527
69030POPC   GL120333  17.871  11.990   4.373 -0.0439 -0.0393 -0.1362
69030POPC   GL220334  17.678  12.227   4.519 -0.0706  0.1628 -0.1385
69030POPC   C1A20335  17.693  11.834   4.810 -0.1591  0.3524  0.5096
69030POPC   D2A20336  17.423  12.177   5.034  0.0692 -0.1512 -0.1765
69030POPC   C3A20337  17.431  12.247   5.478  0.3174  0.1233 -0.1797
69030POPC   C4A20338  17.348  12.460   5.893 -0.0718  0.1322  0.0362
69030POPC   C1B20339  17.938  12.375   4.886  0.0374 -0.3681 -0.0054
69030POPC   C2B20340  18.068  12.641   5.216  0.1694 -0.0011 -0.0658
69030POPC   C3B20341  18.264  12.823   5.640 -0.0644 -0.1288 -0.2291
69030POPC   C4B20342  18.090  13.122   5.948 -0.0252 -0.2611  0.1178
69031POPC   NC320343  25.796   4.362   7.865  0.2359 -0.0104  0.0084
69031POPC   PO420344  25.845   4.668   8.144  0.1452 -0.2290  0.1504
69031POPC   GL120345  25.823   4.309   8.357 -0.0299  0.0103  0.4908
69031POPC   GL220346  25.904   4.033   8.276 -0.0899 -0.0520  0.0323
69031POPC   C1A20347  26.134   4.211   8.735 -0.0567  0.1303  0.1084
69031POPC   D2A20348  26.251   4.075   9.144  0.1575  0.2246  0.4454
69031POPC   C3A20349  26.400   3.643   9.035  0.4025 -0.1395  0.0356
69031POPC   C4A20350  26.493   3.217   8.870  0.1907  0.2505  0.0436
69031POPC   C1B20351  25.712   3.789   8.643 -0.1586 -0.2743  0.2396
69031POPC   C2B20352  25.498   3.485   9.013  0.1110 -0.1948 -0.0401
69031POPC   C3B20353  25.654   3.278   9.412 -0.1241 -0.1123 -0.0514
69031POPC   C4B20354  25.503   3.160   9.825 -0.2301  0.0404 -0.0823
69032POPC   NC320355  25.127   7.313   8.167 -0.0446  0.1691  0.0474
69032POPC   PO420356  25.538   7.355   8.184 -0.2021 -0.2583 -0.0339
69032POPC   GL120357  25.375   7.583   8.413  0.2169  0.1080  0.1835
69032POPC   GL220358  25.394   7.583   8.695  0.0248  0.0633  0.0028
69032POPC   C1A20359  24.931   7.714   8.502  0.0431  0.2437  0.0844
69032POPC   D2A20360  24.452   7.836   8.451 -0.1699  0.2563 -0.2571
69032POPC   C3A20361  24.171   7.739   8.826 -0.0712  0.1712 -0.0962
69032POPC   C4A20362  24.155   7.676   9.343  0.0465 -0.0624 -0.2604
69032POPC   C1B20363  25.022   7.774   8.968  0.1543  0.1059 -0.0664
69032POPC   C2B20364  24.977   8.156   9.206 -0.1481 -0.1196 -0.0860
69032POPC   C3B20365  24.905   8.237   9.640  0.0164  0.1284  0.0946
69032POPC   C4B20366  24.705   7.931   9.952  0.0538  0.1226 -0.0340
69033POPC   NC320367   0.300   5.364   4.915  0.3464 -0.0911  0.0500
69033POPC   PO420368  -0.044   5.563   4.912 -0.0620 -0.2109  0.0677
69033POPC   GL120369   0.057   5.440   5.293 -0.0402  0.1238 -0.1568
69033POPC   GL220370   0.259   5.178   5.447 -0.1070 -0.1284 -0.0347
69033POPC   C1A20371   0.146   5.615   5.725  0.0499 -0.4572 -0.1585
69033POPC   D2A20372   0.459   5.823   6.029 -0.2585 -0.1031  0.0157
69033POPC   C3A20373   0.541   5.680   6.425 -0.0886  0.4113 -0.1184
69033POPC   C4A20374   0.663   5.504   6.837  0.0888 -0.1333 -0.4052
69033POPC   C1B20375  -0.072   5.183   5.731 -0.1140 -0.2090  0.1368
69033POPC   C2B20376  -0.203   5.087   6.195 -0.3109  0.1963 -0.0841
69033POPC   C3B20377  -0.036   4.924   6.623 -0.1404 -0.2178  0.0711
69033POPC   C4B20378   0.244   4.640   6.902 -0.2650  0.1872  0.1579
69034POPC   NC320379  27.148  13.996   4.650 -0.2659  0.0065  0.3428
69034POPC   PO420380  27.069  13.689   4.880  0.1784 -0.3157  0.0232
69034POPC   GL120381  27.126  13.865   5.293 -0.2142  0.1221  0.1047
69034POPC   GL220382  27.150  13.631   5.497  0.2785 -0.1957 -0.1339
69034POPC   C1A20383  27.296  14.055   5.695  0.1802 -0.0555 -0.0659
69034POPC   D2A20384  27.561  14.416   5.898  0.0608 -0.0123 -0.1484
69034POPC   C3A20385  27.564  14.480   6.391  0.1434 -0.2813  0.1348
69034POPC   C4A20386  27.714  14.421   6.813 -0.0806 -0.1667 -0.0338
69034POPC   C1B20387  27.355  13.537   5.920 -0.0167 -0.0236 -0.2069
69034POPC   C2B20388  27.693  13.311   6.290  0.0459 -0.2035 -0.1954
69034POPC   C3B20389  27.833  13.277   6.714  0.2525  0.0454 -0.1944
69034POPC   C4B20390  27.982  13.190   7.121 -0.0988  0.4478 -0.0472
69035POPC   NC320391  26.215   5.055  12.426  0.2109 -0.1352  0.1679
69035POPC   PO420392  25.895   4.868  12.256  0.2275  0.1033  0.3760
69035POPC   GL120393  25.651   4.650  12.385  0.2651 -0.2022  0.2285
69035POPC   GL220394  25.453   4.615  12.597  0.1254  0.0491  0.0893
69035POPC   C1A20395  25.233   4.565  12.148  0.4369  0.0823  0.1073
69035POPC   D2A20396  24.771   4.618  12.236  0.0517  0.0833  0.0495
69035POPC   C3A20397  24.494   4.495  12.649 -0.0898 -0.3123  0.1842
69035POPC   C4A20398  24.096   4.298  12.829  0.1462  0.1995 -0.1915
69035POPC   C1B20399  25.345   4.187  12.486 -0.2036  0.1756  0.1162
69035POPC   C2B20400  25.238   3.907  12.168 -0.4023 -0.0492  0.0390
69035POPC   C3B20401  25.186   3.719  11.801  0.2522 -0.0882  0.0406
69035POPC   C4B20402  24.965   3.357  11.636 -0.1813 -0.1376  0.2557
69036POPC   NC320403  18.263  14.256   3.736 -0.0562 -0.0459  0.3047
69036POPC   PO420404  17.916  14.021   3.794 -0.0244  0.1373  0.3690
69036POPC   GL120405  17.985  13.909   4.172 -0.2714 -0.1844 -0.2950
69036POPC   GL220406  18.235  13.808   4.250  0.4245  0.0108 -0.0094
69036POPC   C1A20407  17.664  13.871   4.461 -0.0475 -0.2866  0.1487
69036POPC   D2A20408  17.704  14.042   4.873  0.1902 -0.1051  0.0102
69036POPC   C3A20409  17.578  14.274   5.180 -0.0195  0.2089 -0.2467
69036POPC   C4A20410  17.571  14.590   5.553 -0.2215 -0.1032  0.0454
69036POPC   C1B20411  18.643  14.027   4.398 -0.1183  0.0942  0.2279
69036POPC   C2B20412  18.702  14.236   4.862  0.2039  0.0884  0.0790
69036POPC   C3B20413  18.566  14.367   5.278  0.1165  0.1875 -0.1512
69036POPC   C4B20414  18.896  14.345   5.629  0.2018  0.0788 -0.0191
69037POPC   NC320415  29.553   6.160   6.361 -0.2971 -0.0742 -0.6034
69037POPC   PO420416  29.442   5.844   6.619 -0.0484 -0.0393 -0.0124
69037POPC   GL120417  29.537   5.643   7.008 -0.2568 -0.0783 -0.1304
69037POPC   GL220418  29.833   5.725   7.052  0.2117 -0.0894  0.1383
69037POPC   C1A20419  29.540   5.238   7.209  0.1022  0.1141  0.2730
69037POPC   D2A20420  29.313   4.866   7.363  0.0030 -0.0455  0.0082
69037POPC   C3A20421  29.548   4.610   7.656 -0.0163  0.1973  0.1801
69037POPC   C4A20422  29.767   4.496   8.053  0.2069  0.3271 -0.2458
69037POPC   C1B20423  29.912   5.674   7.476 -0.2145  0.0165 -0.0276
69037POPC   C2B20424  29.850   5.574   7.919  0.2101  0.2982 -0.3082
69037POPC   C3B20425  30.140   5.336   8.169  0.3512  0.0028 -0.2523
69037POPC   C4B20426  30.538   5.434   8.353 -0.0954 -0.0156 -0.2920
69038POPC   NC320427  25.599   9.094   6.605  0.0078  0.3540  0.0986
69038POPC   PO420428  25.277   9.048   6.844  0.0717  0.0487 -0.5012
69038POPC   GL120429  25.432   9.231   7.193 -0.2057 -0.1001 -0.1253
69038POPC   GL220430  25.189   9.354   7.294 -0.1201  0.1775  0.2953
69038POPC   C1A20431  25.829   9.313   7.439  0.1039 -0.0594  0.1815
69038POPC   D2A20432  26.204   9.582   7.522  0.0360  0.2663 -0.2821
69038POPC   C3A20433  26.307   9.756   7.895 -0.1022 -0.1160 -0.3035
69038POPC   C4A20434  26.370   9.976   8.315 -0.1861  0.2294  0.0092
69038POPC   C1B20435  24.865   9.607   7.441  0.2076  0.1398  0.1712
69038POPC   C2B20436  24.894  10.004   7.621  0.2601 -0.0001 -0.3378
69038POPC   C3B20437  25.047  10.352   7.835  0.0741 -0.0512  0.0695
69038POPC   C4B20438  25.186  10.803   7.789  0.0720  0.0386 -0.1057
69039POPC   NC320439  26.769   5.197   9.424 -0.2162  0.0512 -0.0568
69039POPC   PO420440  26.544   5.002   9.170 -0.0267 -0.0593  0.1062
69039POPC   GL120441  26.590   4.603   9.189 -0.0291 -0.1562 -0.0688
69039POPC   GL220442  26.364   4.526   9.318  0.1949 -0.0554 -0.2363
69039POPC   C1A20443  26.878   4.410   9.481 -0.1043 -0.0307  0.1535
69039POPC   D2A20444  27.116   3.971   9.658  0.0961  0.1533 -0.1755
69039POPC   C3A20445  27.182   3.636   9.382 -0.2394 -0.2412  0.1776
69039POPC   C4A20446  26.883   3.513   9.040 -0.2906 -0.3494  0.0740
69039POPC   C1B20447  26.350   4.241   9.645 -0.0086  0.3171 -0.3876
69039POPC   C2B20448  26.682   4.030   9.874 -0.1549  0.1472 -0.0369
69039POPC   C3B20449  26.936   3.621   9.931  0.0266 -0.2460  0.0337
69039POPC   C4B20450  27.232   3.220   9.856  0.3605  0.1508  0.0742
69040POPC   NC320451  24.234   5.344   8.023  0.1776 -0.0247 -0.2779
69040POPC   PO420452  24.228   5.000   8.204  0.0318 -0.1378  0.3954
69040POPC   GL120453  23.940   4.910   7.991 -0.4741 -0.4800  0.0969
69040POPC   GL220454  23.957   4.598   8.078 -0.0320 -0.1983 -0.2658
69040POPC   C1A20455  23.496   4.819   8.142 -0.0166 -0.0828 -0.0991
69040POPC   D2A20456  23.174   4.740   8.530  0.1386  0.1663  0.2227
69040POPC   C3A20457  22.759   4.721   8.558 -0.1096 -0.1377 -0.0550
69040POPC   C4A20458  22.514   4.427   8.777  0.1171  0.1143  0.0938
69040POPC   C1B20459  23.779   4.242   8.353  0.0256  0.2409  0.1176
69040POPC   C2B20460  23.921   4.101   8.830 -0.0450  0.2533  0.0386
69040POPC   C3B20461  24.114   4.231   9.246 -0.1386 -0.0051 -0.2129
69040POPC   C4B20462  24.089   4.278   9.725  0.3961  0.1946 -0.1888
69041POPC   NC320463  25.479  16.442   5.612 -0.0761  0.1188 -0.0484
69041POPC   PO420464  25.872  16.345   5.539  0.0891  0.0267  0.2484
69041POPC   GL120465  25.840  16.146   5.822 -0.0159 -0.1238 -0.0898
69041POPC   GL220466  25.650  15.968   5.874  0.2580  0.0127 -0.1329
69041POPC   C1A20467  26.044  15.959   6.215  0.0566 -0.2846 -0.1149
69041POPC   D2A20468  26.399  15.664   6.462  0.3124  0.0470  0.2041
69041POPC   C3A20469  26.367  15.300   6.693 -0.1006  0.2096 -0.0320
69041POPC   C4A20470  26.251  15.142   7.103  0.2038 -0.1423  0.1046
69041POPC   C1B20471  25.358  15.877   6.251  0.0740 -0.1775  0.2165
69041POPC   C2B20472  25.170  15.504   6.486 -0.1077  0.0847  0.0536
69041POPC   C3B20473  25.100  15.212   6.802 -0.1878 -0.0607  0.0638
69041POPC   C4B20474  24.980  15.126   7.239 -0.0960 -0.0361 -0.0810
69042POPC   NC320475  24.467   1.605   6.237 -0.1445 -0.0983  0.1433
69042POPC   PO420476  24.813   1.797   6.181 -0.0654 -0.2581  0.0607
69042POPC   GL120477  24.941   1.567   6.385 -0.0080  0.1929 -0.2467
69042POPC   GL220478  24.905   1.283   6.328 -0.0167  0.0120 -0.0795
69042POPC   C1A20479  24.809   1.433   6.834  0.1817 -0.1623 -0.2190
69042POPC   D2A20480  24.861   1.345   7.291 -0.1618  0.0253  0.0955
69042POPC   C3A20481  25.055   1.148   7.648  0.1171  0.1311  0.0115
69042POPC   C4A20482  25.189   1.381   7.990  0.2910  0.3412  0.0679
69042POPC   C1B20483  24.617   1.077   6.601 -0.0080  0.2469  0.1216
69042POPC   C2B20484  24.409   0.828   6.890 -0.2087  0.2044  0.2025
69042POPC   C3B20485  24.099   0.947   7.225 -0.1660 -0.1645  0.0527
69042POPC   C4B20486  23.786   0.823   7.506 -0.0029 -0.0090 -0.1127
69043POPC   NC320487  18.759  17.283   3.769  0.1567  0.1244  0.0814
69043POPC   PO420488  18.959  17.349   4.138 -0.3725 -0.0939  0.0270
69043POPC   GL120489  19.093  17.188   4.493  0.0263  0.0527  0.0186
69043POPC   GL220490  18.958  16.998   4.595  0.1547  0.0314 -0.1661
69043POPC   C1A20491  19.162  17.304   4.962 -0.1477 -0.1779  0.0913
69043POPC   D2A20492  19.115  17.406   5.429 -0.0130  0.0257  0.0957
69043POPC   C3A20493  18.909  17.244   5.784  0.3405 -0.0176  0.1549
69043POPC   C4A20494  18.460  17.275   5.866 -0.1423  0.3461  0.0450
69043POPC   C1B20495  18.960  16.887   5.089 -0.2432 -0.0896 -0.0964
69043POPC   C2B20496  18.919  16.737   5.461  0.1580  0.3170 -0.1178
69043POPC   C3B20497  18.808  16.734   5.841 -0.0917  0.0895  0.0220
69043POPC   C4B20498  18.893  16.799   6.274 -0.1523  0.0680  0.2019
69044POPC   NC320499  31.001  13.575   3.965 -0.0344 -0.0499  0.0378
69044POPC   PO420500  30.744  13.804   4.147 -0.1691  0.0670  0.0975
69044POPC   GL120501  30.913  13.780   4.497 -0.1469 -0.2595  0.1307
69044POPC   GL220502  30.803  13.665   4.732  0.3825  0.1229 -0.2375
69044POPC   C1A20503  31.234  13.916   4.819  0.4128 -0.0685  0.2069
69044POPC   D2A20504  31.503  13.901   5.214 -0.0354  0.1149  0.2733
69044POPC   C3A20505  31.419  13.981   5.688  0.3626 -0.0437  0.0159
69044POPC   C4A20506  31.382  13.878   6.144  0.0218 -0.0469  0.0169
69044POPC   C1B20507  31.022  13.505   5.063 -0.1179  0.0362 -0.0812
69044POPC   C2B20508  31.126  13.558   5.534 -0.2132 -0.0318 -0.0601
69044POPC   C3B20509  31.155  13.381   5.981  0.2519  0.0983  0.0016
69044POPC   C4B20510  31.285  13.474   6.419  0.0368 -0.0609 -0.1413
69045POPC   NC320511  20.199   1.824   4.217  0.1095 -0.1642 -0.0362
69045POPC   PO420512  20.163   1.513   4.519 -0.1450 -0.0259  0.2120
69045POPC   GL120513  19.957   1.356   4.829  0.2801  0.1958  0.1249
69045POPC   GL220514  19.906   1.527   4.994 -0.3136 -0.0404 -0.0559
69045POPC   C1A20515  19.564   1.156   5.026  0.1866  0.2659  0.1832
69045POPC   D2A20516  19.283   0.784   5.132  0.1091  0.1966  0.0824
69045POPC   C3A20517  19.143   0.498   5.475 -0.3718 -0.0408  0.1944
69045POPC   C4A20518  18.887   0.370   5.804  0.2796  0.4164  0.5365
69045POPC   C1B20519  20.138   1.406   5.371 -0.0633 -0.4067 -0.2803
69045POPC   C2B20520  20.129   1.244   5.801 -0.0128 -0.1132 -0.0997
69045POPC   C3B20521  19.866   1.245   6.213 -0.1324  0.1194  0.1248
69045POPC   C4B20522  19.667   0.841   6.347  0.2226 -0.6240 -0.4263
69046POPC   NC320523  25.219   4.978   8.319  0.0990  0.1548 -0.0301
69046POPC   PO420524  25.392   4.613   8.386  0.1454  0.0333 -0.0793
69046POPC   GL120525  25.382   4.440   8.730 -0.1650 -0.1795 -0.1511
69046POPC   GL220526  25.586   4.251   8.742 -0.0993 -0.1975  0.0255
69046POPC   C1A20527  25.162   4.045   8.889 -0.0797  0.0190 -0.1392
69046POPC   D2A20528  25.071   3.704   9.156  0.2367 -0.0985  0.4855
69046POPC   C3A20529  25.137   3.296   9.367 -0.2607  0.2119  0.2968
69046POPC   C4A20530  25.377   2.897   9.430  0.1158  0.0608  0.0783
69046POPC   C1B20531  25.787   4.016   9.037 -0.0502 -0.0239 -0.0600
69046POPC   C2B20532  25.955   3.684   9.284 -0.1899 -0.0077 -0.2301
69046POPC   C3B20533  26.217   3.285   9.349  0.0329  0.1500  0.1995
69046POPC   C4B20534  26.519   2.871   9.297  0.0816  0.4123 -0.2634
69047POPC   NC320535  29.927   7.252   6.328 -0.0008  0.0339 -0.1982
69047POPC   PO420536  29.831   7.020   6.648  0.1737  0.1593 -0.0302
69047POPC   GL120537  30.098   6.802   6.868 -0.3837  0.0548  0.2262
69047POPC   GL220538  30.369   6.951   6.707 -0.0794  0.1015 -0.2621
69047POPC   C1A20539  30.166   6.834   7.317 -0.1630  0.1423  0.1987
69047POPC   D2A20540  30.129   7.232   7.536  0.3428  0.0945 -0.3854
69047POPC   C3A20541  30.399   7.601   7.452  0.0059  0.2109  0.0546
69047POPC   C4A20542  30.581   7.997   7.467  0.1302 -0.0248  0.2046
69047POPC   C1B20543  30.475   6.616   7.012 -0.1520  0.0779 -0.0287
69047POPC   C2B20544  30.605   6.577   7.453  0.0456  0.1831 -0.0191
69047POPC   C3B20545  30.956   6.553   7.763 -0.0174  0.0591 -0.0278
69047POPC   C4B20546  31.158   6.713   8.103  0.0169  0.1552  0.2100
69048POPC   NC320547  28.777   6.960   6.985  0.4484 -0.1489  0.0263
69048POPC   PO420548  29.064   7.244   6.960  0.0895 -0.1853  0.2349
69048POPC   GL120549  29.091   7.495   7.369  0.3335  0.0528 -0.3559
69048POPC   GL220550  29.380   7.505   7.466  0.0293  0.2705  0.0454
69048POPC   C1A20551  28.924   7.718   7.775 -0.1407  0.1244 -0.2017
69048POPC   D2A20552  29.081   8.105   8.048 -0.1531  0.0216  0.0849
69048POPC   C3A20553  29.351   8.242   8.408  0.2460  0.3178 -0.0481
69048POPC   C4A20554  29.711   8.466   8.494  0.0648 -0.0304  0.0182
69048POPC   C1B20555  29.825   7.700   7.352  0.2158  0.1848 -0.0844
69048POPC   C2B20556  30.125   8.024   7.396  0.0378 -0.0436 -0.0925
69048POPC   C3B20557  30.135   8.351   7.719 -0.1711 -0.0588 -0.2811
69048POPC   C4B20558  30.328   8.376   8.114  0.0397  0.0503  0.0114
69049POPC   NC320559  17.593   1.601   4.446  0.0196  0.0696  0.1377
69049POPC   PO420560  17.631   1.274   4.208 -0.1216  0.2414 -0.0449
69049POPC   GL120561  17.604   1.164   4.582 -0.1838 -0.1316  0.1641
69049POPC   GL220562  17.375   1.221   4.708  0.0861  0.1833 -0.3553
69049POPC   C1A20563  17.912   1.210   4.922  0.0154  0.1188 -0.0221
69049POPC   D2A20564  18.394   1.264   4.993  0.1219 -0.0077  0.0200
69049POPC   C3A20565  18.573   1.087   5.401 -0.0208  0.0690  0.1376
69049POPC   C4A20566  18.876   0.879   5.711 -0.4102 -0.1131  0.0819
69049POPC   C1B20567  17.387   1.158   5.177 -0.0641  0.1451  0.0869
69049POPC   C2B20568  17.761   1.138   5.466 -0.1363 -0.2089 -0.1342
69049POPC   C3B20569  18.122   0.795   5.400 -0.2079  0.0308 -0.3450
69049POPC   C4B20570  18.492   0.632   5.627  0.1415 -0.1880 -0.0434
69050POPC   NC320571  31.424   5.228   5.195 -0.1948 -0.1452  0.2630
69050POPC   PO420572  31.391   5.453   5.513  0.1769 -0.1028 -0.1013
69050POPC   GL120573  31.600   5.548   5.805  0.0098 -0.0254  0.1725
69050POPC   GL220574  31.845   5.473   5.775  0.0940  0.2516  0.3858
69050POPC   C1A20575  31.718   5.402   6.268 -0.1663  0.2069 -0.1284
69050POPC   D2A20576  31.848   5.106   6.566 -0.0727 -0.2395 -0.0221
69050POPC   C3A20577  31.834   5.062   7.007  0.0698  0.0602  0.0303
69050POPC   C4A20578  31.829   5.003   7.490  0.2028 -0.0217 -0.3699
69050POPC   C1B20579  32.165   5.357   6.103 -0.2823  0.3002  0.1810
69050POPC   C2B20580  32.432   5.427   6.467  0.2007 -0.0573 -0.3526
69050POPC   C3B20581  32.620   5.724   6.776 -0.0293 -0.1589 -0.1621
69050POPC   C4B20582  32.585   5.761   7.221  0.0771  0.3072  0.0000
69051POPC   NC320583  23.697   8.442   6.148 -0.0751  0.3268  0.1555
69051POPC   PO420584  23.597   8.112   6.324 -0.2072 -0.0344 -0.0642
69051POPC   GL120585  23.536   8.057   6.651 -0.1281 -0.1398  0.0180
69051POPC   GL220586  23.265   8.126   6.638  0.2276  0.1227  0.0545
69051POPC   C1A20587  23.716   7.872   7.100 -0.1953 -0.2015  0.0510
69051POPC   D2A20588  23.962   7.747   7.491 -0.1715  0.0929  0.0316
69051POPC   C3A20589  23.804   8.080   7.758 -0.1947  0.0939  0.0597
69051POPC   C4A20590  23.759   8.407   8.137 -0.3183  0.1509  0.2049
69051POPC   C1B20591  22.871   8.225   6.938 -0.2738  0.1389  0.1583
69051POPC   C2B20592  22.758   8.337   7.365 -0.1227 -0.0319 -0.0900
69051POPC   C3B20593  22.332   8.306   7.639  0.3226 -0.0487 -0.4210
69051POPC   C4B20594  22.333   8.194   8.107 -0.1378  0.0799 -0.1423
69052POPC   NC320595  28.793  16.242   3.680 -0.0486 -0.1065  0.1486
69052POPC   PO420596  28.904  16.316   4.052  0.0588 -0.2442 -0.1392
69052POPC   GL120597  28.777  16.376   4.501 -0.1818  0.0608  0.0441
69052POPC   GL220598  28.642  16.111   4.634 -0.1661  0.0694  0.2503
69052POPC   C1A20599  28.901  16.446   4.971 -0.0987 -0.0721 -0.0585
69052POPC   D2A20600  29.030  16.778   5.285 -0.0899  0.1628 -0.0041
69052POPC   C3A20601  29.120  16.709   5.730 -0.0562  0.1810 -0.0463
69052POPC   C4A20602  29.087  16.585   6.178  0.0419  0.1188 -0.0644
69052POPC   C1B20603  28.645  15.953   5.043 -0.1371 -0.1015  0.0603
69052POPC   C2B20604  28.560  15.856   5.499 -0.1643 -0.2223 -0.0761
69052POPC   C3B20605  28.746  15.566   5.796 -0.0391  0.2444  0.2512
69052POPC   C4B20606  29.110  15.375   6.096 -0.2773 -0.2469 -0.1815
69053POPC   NC320607  22.759   8.345   6.117 -0.1436 -0.1347 -0.0702
69053POPC   PO420608  22.541   8.577   5.864 -0.1683 -0.0885 -0.0238
69053POPC   GL120609  22.625   8.855   6.066 -0.3039  0.0158 -0.1253
69053POPC   GL220610  22.932   8.841   6.112  0.0084  0.0976  0.1210
69053POPC   C1A20611  22.633   9.183   6.399  0.0034 -0.0749 -0.2182
69053POPC   D2A20612  22.600   9.455   6.730  0.1222 -0.1098 -0.2755
69053POPC   C3A20613  22.688   9.912   6.883 -0.1310  0.0581 -0.1003
69053POPC   C4A20614  22.679  10.199   7.188 -0.1147  0.0497 -0.2588
69053POPC   C1B20615  23.100   9.024   6.584  0.0813 -0.0459  0.0570
69053POPC   C2B20616  23.092   9.198   7.032  0.0522 -0.1009 -0.0716
69053POPC   C3B20617  22.734   9.306   7.253  0.0529  0.2380 -0.0956
69053POPC   C4B20618  22.297   9.206   7.193  0.0077 -0.0239 -0.0402
69054POPC   NC320619  16.319   3.735   4.350  0.0912  0.2247 -0.1224
69054POPC   PO420620  16.407   3.720   4.742 -0.1871  0.2659  0.0620
69054POPC   GL120621  16.300   3.625   5.088 -0.2699  0.5299  0.1439
69054POPC   GL220622  16.508   3.493   5.282  0.0579  0.0264  0.1528
69054POPC   C1A20623  16.150   3.761   5.550 -0.2293  0.0039 -0.2013
69054POPC   D2A20624  16.186   3.622   5.946  0.1182  0.0949  0.0286
69054POPC   C3A20625  16.075   3.865   6.326 -0.0098 -0.0992  0.3649
69054POPC   C4A20626  16.000   4.132   6.656 -0.0476 -0.0083 -0.4687
69054POPC   C1B20627  16.671   3.692   5.679 -0.0826 -0.1104  0.1506
69054POPC   C2B20628  16.611   3.765   6.091 -0.1298 -0.0416  0.0063
69054POPC   C3B20629  16.494   3.747   6.543 -0.1212  0.1812  0.0988
69054POPC   C4B20630  16.149   3.690   6.879  0.0102 -0.2847 -0.0896
69055POPC   NC320631  25.057   4.278   7.404 -0.0456  0.3018 -0.0442
69055POPC   PO420632  25.419   4.361   7.431  0.3090  0.2495 -0.0665
69055POPC   GL120633  25.511   3.985   7.577 -0.0236  0.5888 -0.1012
69055POPC   GL220634  25.200   3.876   7.661  0.3552  0.1096  0.2348
69055POPC   C1A20635  25.982   3.878   7.700  0.0079  0.4732  0.1024
69055POPC   D2A20636  26.132   3.643   8.053 -0.2612 -0.0211 -0.1939
69055POPC   C3A20637  26.238   3.731   8.488 -0.0611  0.1425 -0.0945
69055POPC   C4A20638  26.010   3.436   8.799 -0.1835 -0.0014 -0.2111
69055POPC   C1B20639  25.094   3.662   8.015 -0.1146  0.1762  0.1069
69055POPC   C2B20640  25.180   3.305   8.296 -0.0615 -0.1207 -0.0816
69055POPC   C3B20641  25.515   3.232   8.592  0.0387 -0.0599  0.0111
69055POPC   C4B20642  25.770   2.979   8.879 -0.0607 -0.4327  0.0701
69056POPC   NC320643  29.002   5.288   7.137 -0.1300  0.1411  0.2253
69056POPC   PO420644  28.843   4.980   6.933  0.2039 -0.1676  0.0236
69056POPC   GL120645  28.867   4.653   7.203 -0.1378 -0.0078 -0.1472
69056POPC   GL220646  28.790   4.450   7.042 -0.1923  0.0235 -0.2784
69056POPC   C1A20647  29.058   4.410   7.533 -0.1425  0.2372  0.2147
69056POPC   D2A20648  29.290   4.151   7.858  0.2129 -0.4295  0.0486
69056POPC   C3A20649  29.132   3.939   8.260 -0.1212 -0.0042  0.0450
69056POPC   C4A20650  28.738   3.753   8.281  0.1345  0.2751 -0.0685
69056POPC   C1B20651  29.074   4.041   7.044 -0.0124  0.1533 -0.0507
69056POPC   C2B20652  29.210   3.770   7.463 -0.2799  0.1163  0.1079
69056POPC   C3B20653  29.314   3.307   7.532  0.1135 -0.1169 -0.0325
69056POPC   C4B20654  29.674   3.000   7.477  0.4474  0.1105 -0.1037
69057POPC   NC320655  27.770  15.531   4.866  0.0860 -0.2891  0.0471
69057POPC   PO420656  27.601  15.853   4.693 -0.0144 -0.0145  0.2126
69057POPC   GL120657  27.715  15.928   5.088  0.0307  0.2503 -0.1105
69057POPC   GL220658  27.527  16.149   5.226  0.0662  0.1621  0.0425
69057POPC   C1A20659  27.961  15.708   5.385 -0.0678 -0.0341 -0.0553
69057POPC   D2A20660  28.109  15.664   5.849 -0.1100 -0.0215  0.0099
69057POPC   C3A20661  28.485  15.827   6.078 -0.1215  0.1365 -0.0912
69057POPC   C4A20662  28.866  15.931   6.313 -0.2545  0.2719 -0.0012
69057POPC   C1B20663  27.685  16.050   5.671 -0.0450 -0.4155 -0.1090
69057POPC   C2B20664  27.786  16.002   6.083 -0.0914 -0.0990 -0.2281
69057POPC   C3B20665  28.036  16.142   6.419 -0.2844 -0.4834 -0.0272
69057POPC   C4B20666  28.312  16.212   6.771 -0.3427  0.0435  0.1240
69058POPC   NC320667  16.733  13.369   4.251 -0.1936 -0.2725 -0.0907
69058POPC   PO420668  16.890  13.065   4.003  0.0498 -0.0188 -0.1444
69058POPC   GL120669  17.120  13.065   4.324 -0.1028 -0.0807  0.1278
69058POPC   GL220670  16.921  12.843   4.494  0.3401 -0.2173  0.1639
69058POPC   C1A20671  17.283  13.105   4.818 -0.1051 -0.0987  0.1442
69058POPC   D2A20672  17.186  13.214   5.248 -0.1047 -0.0986  0.0452
69058POPC   C3A20673  17.256  13.486   5.636 -0.2040 -0.1865 -0.1381
69058POPC   C4A20674  17.063  13.869   5.860 -0.0791 -0.2056 -0.1848
69058POPC   C1B20675  16.837  13.218   4.735  0.2553 -0.0458 -0.2818
69058POPC   C2B20676  16.942  13.591   5.005  0.2755  0.3252 -0.2164
69058POPC   C3B20677  17.050  13.914   5.348 -0.1696  0.3049  0.2920
69058POPC   C4B20678  17.194  14.246   5.602  0.1200 -0.0416 -0.2199
69059POPC   NC320679  24.327   4.489   8.404  0.2244  0.3263 -0.2934
69059POPC   PO420680  24.417   4.820   8.592 -0.1549 -0.1912  0.1342
69059POPC   GL120681  24.016   4.774   8.729 -0.2766  0.1060 -0.2785
69059POPC   GL220682  24.071   4.984   8.923  0.1081  0.1479 -0.0516
69059POPC   C1A20683  23.625   4.493   8.731 -0.1649 -0.0056  0.5079
69059POPC   D2A20684  23.371   4.073   8.771  0.0606 -0.0952  0.1230
69059POPC   C3A20685  23.573   3.660   8.903 -0.0593 -0.1253 -0.0391
69059POPC   C4A20686  23.562   3.224   9.106  0.2020  0.0156  0.3739
69059POPC   C1B20687  23.916   5.208   9.316  0.3990 -0.0072 -0.1291
69059POPC   C2B20688  23.603   5.302   9.713 -0.0825 -0.0777  0.1808
69059POPC   C3B20689  23.414   5.142  10.142 -0.1551  0.1996  0.1703
69059POPC   C4B20690  23.261   4.910  10.477 -0.0331  0.1693  0.0004
69060POPC   NC320691  23.355   7.939   5.953  0.0854 -0.2954  0.2169
69060POPC   PO420692  23.225   8.302   6.047  0.0895  0.2013  0.0302
69060POPC   GL120693  23.154   8.487   6.413 -0.1112 -0.1084 -0.0381
69060POPC   GL220694  23.429   8.607   6.459 -0.3246  0.1770 -0.1685
69060POPC   C1A20695  22.737   8.614   6.532 -0.3343  0.1914 -0.1260
69060POPC   D2A20696  22.449   8.872   6.824  0.2473  0.1946 -0.1840
69060POPC   C3A20697  22.194   9.226   6.663  0.2419 -0.4207  0.2379
69060POPC   C4A20698  21.804   9.383   6.790 -0.0273  0.0451 -0.0427
69060POPC   C1B20699  23.288   8.606   6.861  0.2862 -0.0726 -0.0802
69060POPC   C2B20700  22.888   8.703   7.034  0.0925  0.2014  0.0308
69060POPC   C3B20701  22.669   8.867   7.443  0.0484  0.0112 -0.0843
69060POPC   C4B20702  22.702   9.185   7.782 -0.1369  0.1860 -0.1385
69061POPC   NC320703  19.232  12.398   4.326  0.0056 -0.3426  0.2792
69061POPC   PO420704  19.011  12.077   4.198 -0.0334  0.2045 -0.0878
69061POPC   GL120705  18.925  11.930   4.609  0.2726 -0.0405 -0.2996
69061POPC   GL220706  19.150  12.058   4.705 -0.0565 -0.2252  0.3243
69061POPC   C1A20707  19.138  11.704   4.972 -0.0243  0.3997  0.0030
69061POPC   D2A20708  19.150  11.457   5.359 -0.2668 -0.2870 -0.2497
69061POPC   C3A20709  18.759  11.458   5.505 -0.0963  0.0486  0.2295
69061POPC   C4A20710  18.434  11.528   5.828  0.0548 -0.0858  0.0290
69061POPC   C1B20711  18.920  12.366   4.947  0.0086  0.0080  0.4159
69061POPC   C2B20712  18.617  12.420   5.317 -0.0426 -0.1157 -0.0868
69061POPC   C3B20713  18.592  12.361   5.761 -0.1285 -0.1719  0.0981
69061POPC   C4B20714  18.532  12.637   6.130  0.0373  0.2760  0.0610
69062POPC   NC320715  16.778   5.000   5.119  0.3112 -0.0146  0.0021
69062POPC   PO420716  17.015   5.333   4.917  0.0166  0.0795 -0.1411
69062POPC   GL120717  17.233   5.398   5.327  0.0301  0.2844  0.0705
69062POPC   GL220718  17.144   5.220   5.499  0.0547  0.4450 -0.1987
69062POPC   C1A20719  17.525   5.503   5.649 -0.0796 -0.0341  0.0266
69062POPC   D2A20720  17.467   5.692   6.075 -0.3429  0.0670  0.0986
69062POPC   C3A20721  17.864   5.593   6.310 -0.0701  0.0244  0.2298
69062POPC   C4A20722  18.162   5.752   6.645  0.3417 -0.0832  0.1380
69062POPC   C1B20723  17.094   5.376   5.942  0.1291 -0.2829 -0.0111
69062POPC   C2B20724  17.148   5.484   6.433  0.0563  0.1634 -0.0234
69062POPC   C3B20725  17.374   5.775   6.688  0.1229  0.0735  0.3192
69062POPC   C4B20726  17.477   5.891   7.115 -0.3446  0.0802 -0.0983
69063POPC   NC320727  29.380   6.898   6.845  0.0155  0.3041  0.2254
69063POPC   PO420728  29.208   6.598   7.047 -0.0282  0.0066 -0.1570
69063POPC   GL120729  29.437   6.423   7.377 -0.0426  0.1078 -0.3374
69063POPC   GL220730  29.185   6.526   7.543 -0.2453 -0.3532  0.0360
69063POPC   C1A20731  29.878   6.483   7.583  0.3559  0.1280 -0.2002
69063POPC   D2A20732  30.182   6.643   7.885  0.0711 -0.0049 -0.1087
69063POPC   C3A20733  30.332   6.306   8.094  0.1135  0.2509  0.0093
69063POPC   C4A20734  30.258   5.823   8.006 -0.0471 -0.2840 -0.2259
69063POPC   C1B20735  29.489   6.568   7.834  0.1807 -0.0089 -0.0728
69063POPC   C2B20736  29.815   6.781   8.140  0.2404  0.0815 -0.0462
69063POPC   C3B20737  30.204   6.714   8.383 -0.0117  0.1812 -0.1257
69063POPC   C4B20738  30.580   6.866   8.579  0.4463  0.0044 -0.0749
69064POPC   NC320739  25.705  15.031   5.067 -0.0107 -0.1561  0.0958
69064POPC   PO420740  25.837  15.396   5.111 -0.1049  0.1252  0.1321
69064POPC   GL120741  25.947  15.342   5.513  0.1008 -0.2319 -0.0435
69064POPC   GL220742  25.729  15.205   5.532 -0.0805 -0.2094 -0.2772
69064POPC   C1A20743  26.244  15.037   5.723 -0.2941 -0.0058  0.0987
69064POPC   D2A20744  26.436  14.805   6.047  0.2457  0.0240 -0.1576
69064POPC   C3A20745  26.284  14.767   6.522 -0.2790 -0.3896  0.0701
69064POPC   C4A20746  26.224  14.658   6.907 -0.0054 -0.0778  0.1495
69064POPC   C1B20747  25.737  15.413   5.945  0.0258  0.1765 -0.5714
69064POPC   C2B20748  25.674  15.517   6.389  0.0149 -0.1071 -0.1341
69064POPC   C3B20749  25.585  15.793   6.717  0.2579 -0.0102  0.0096
69064POPC   C4B20750  25.683  15.935   7.115  0.2225  0.0517 -0.0020
69065POPC   NC320751  30.809   8.609   5.554  0.0682  0.2733 -0.0690
69065POPC   PO420752  31.175   8.542   5.710  0.0389 -0.3100  0.1808
69065POPC   GL120753  31.373   8.540   6.036  0.0430 -0.0491  0.0899
69065POPC   GL220754  31.221   8.322   6.153  0.0102  0.0351 -0.1631
69065POPC   C1A20755  31.431   8.821   6.389 -0.2835 -0.3404  0.3926
69065POPC   D2A20756  31.544   9.010   6.813  0.2683  0.4269  0.1039
69065POPC   C3A20757  31.792   8.770   7.142 -0.1701  0.0765  0.1773
69065POPC   C4A20758  31.967   8.452   7.356 -0.2244  0.0572 -0.0671
69065POPC   C1B20759  31.229   8.401   6.610  0.0322 -0.2510 -0.2446
69065POPC   C2B20760  31.219   8.577   7.014  0.2982 -0.2958 -0.0377
69065POPC   C3B20761  31.446   8.541   7.419 -0.0051 -0.0128  0.2052
69065POPC   C4B20762  31.577   8.545   7.900  0.0528 -0.0038  0.1850
69066POPC   NC320763  16.027   4.774   5.142 -0.1498  0.0920  0.0832
69066POPC   PO420764  16.256   5.088   5.233  0.0422 -0.1933  0.1607
69066POPC   GL120765  16.173   4.962   5.627  0.2261  0.4179  0.1467
69066POPC   GL220766  15.861   4.927   5.589 -0.0025  0.2074  0.3043
69066POPC   C1A20767  16.342   5.081   6.052  0.5475  0.0498  0.2149
69066POPC   D2A20768  16.427   4.741   6.394 -0.0645 -0.0808  0.0007
69066POPC   C3A20769  16.507   4.953   6.754 -0.0053  0.0386 -0.0698
69066POPC   C4A20770  16.451   5.165   7.130  0.0983  0.0476  0.4284
69066POPC   C1B20771  16.074   4.668   5.946  0.0446 -0.2150  0.2961
69066POPC   C2B20772  16.000   4.522   6.390 -0.0576 -0.1905 -0.1736
69066POPC   C3B20773  15.973   4.630   6.810 -0.0011  0.3249  0.0370
69066POPC   C4B20774  16.200   4.630   7.185 -0.0702  0.0921 -0.0679
69067POPC   NC320775  18.417   8.857   4.692  0.2715 -0.0576  0.2628
69067POPC   PO420776  18.482   8.826   5.067  0.1614  0.3312 -0.0681
69067POPC   GL120777  18.307   8.964   5.403  0.0862 -0.0837 -0.0856
69067POPC   GL220778  18.518   8.825   5.623  0.4535  0.1739 -0.1299
69067POPC   C1A20779  18.334   9.278   5.770 -0.1133  0.4483  0.0098
69067POPC   D2A20780  18.158   9.196   6.202  0.4061 -0.0528 -0.0730
69067POPC   C3A20781  18.230   8.833   6.524  0.1272  0.2033 -0.0522
69067POPC   C4A20782  18.529   8.790   6.891 -0.1674 -0.1391 -0.0928
69067POPC   C1B20783  18.474   8.732   6.048 -0.0499 -0.0616  0.0809
69067POPC   C2B20784  18.638   8.588   6.446  0.1199  0.1271 -0.0603
69067POPC   C3B20785  18.737   8.190   6.729  0.2342 -0.1272  0.0132
69067POPC   C4B20786  18.853   7.805   7.037 -0.1061 -0.0458  0.2075
69068POPC   NC320787  26.531   5.488  10.513 -0.3440 -0.0746  0.2778
69068POPC   PO420788  26.884   5.354  10.444 -0.3354 -0.1510  0.1360
69068POPC   GL120789  27.215   5.269  10.565  0.1747 -0.1963 -0.2600
69068POPC   GL220790  27.502   5.406  10.615 -0.0198  0.3388 -0.2396
69068POPC   C1A20791  27.433   4.943  10.736  0.1450 -0.0824 -0.4201
69068POPC   D2A20792  27.756   4.652  10.626 -0.1394  0.0429  0.0744
69068POPC   C3A20793  27.911   4.650  10.231  0.2089  0.4499  0.0944
69068POPC   C4A20794  27.992   4.956   9.838 -0.0571  0.1196 -0.0252
69068POPC   C1B20795  27.823   5.128  10.445  0.0496 -0.0360 -0.0716
69068POPC   C2B20796  28.215   5.061  10.347  0.1390 -0.0024  0.0779
69068POPC   C3B20797  28.628   5.094  10.136  0.0595  0.3803 -0.2534
69068POPC   C4B20798  29.040   5.288  10.122  0.2102 -0.0077  0.0226
69069POPC   NC320799  26.696   8.511   8.268  0.1577 -0.0832  0.1334
69069POPC   PO420800  26.708   8.622   7.866  0.0593  0.0232  0.1477
69069POPC   GL120801  26.771   8.959   8.171  0.1986 -0.0611  0.2191
69069POPC   GL220802  27.068   8.924   8.149  0.2605 -0.0087 -0.1860
69069POPC   C1A20803  26.585   9.024   8.553 -0.0097 -0.2100  0.2528
69069POPC   D2A20804  26.664   9.352   8.864  0.1106 -0.4336 -0.1542
69069POPC   C3A20805  26.325   9.749   8.845  0.0650 -0.0330 -0.3537
69069POPC   C4A20806  26.111  10.165   8.690 -0.0090  0.1597 -0.0449
69069POPC   C1B20807  27.104   9.182   8.554 -0.2071  0.3130 -0.0624
69069POPC   C2B20808  27.031   9.127   9.026  0.0025 -0.1201  0.2133
69069POPC   C3B20809  26.956   8.955   9.517 -0.3669 -0.0148  0.1380
69069POPC   C4B20810  27.152   9.065   9.948 -0.2604  0.1608  0.0476
69070POPC   NC320811  30.666  15.025   4.031 -0.0777 -0.1560  0.2086
69070POPC   PO420812  30.548  14.681   4.225  0.0075 -0.1809 -0.1952
69070POPC   GL120813  30.668  14.906   4.520 -0.0499  0.1653 -0.1138
69070POPC   GL220814  30.758  15.188   4.492  0.1165  0.2388  0.4135
69070POPC   C1A20815  30.592  14.875   5.033  0.1390 -0.1560 -0.1953
69070POPC   D2A20816  30.683  14.717   5.424 -0.1452  0.0472  0.0602
69070POPC   C3A20817  30.597  14.966   5.852 -0.3642 -0.1448 -0.2415
69070POPC   C4A20818  30.478  15.092   6.285  0.3105  0.2523 -0.1368
69070POPC   C1B20819  30.381  15.208   4.755  0.0496 -0.1125  0.0201
69070POPC   C2B20820  30.038  15.298   5.081  0.0866  0.0363 -0.0811
69070POPC   C3B20821  29.748  15.363   5.432 -0.0611 -0.3980 -0.2148
69070POPC   C4B20822  29.553  15.613   5.801 -0.0384 -0.1608  0.1638
69071POPC   NC320823   0.195  14.526   3.881 -0.2231  0.2336  0.0853
69071POPC   PO420824  -0.122  14.377   4.007  0.1371 -0.1398  0.0726
69071POPC   GL120825  -0.171  14.549   4.355 -0.1387  0.1575  0.0472
69071POPC   GL220826   0.066  14.453   4.421 -0.0404  0.0157  0.2484
69071POPC   C1A20827  -0.340  14.451   4.742  0.2821  0.0022 -0.2021
69071POPC   D2A20828  -0.392  14.151   5.045  0.0465 -0.0445  0.0416
69071POPC   C3A20829  -0.485  14.430   5.432  0.1605 -0.0952  0.1000
69071POPC   C4A20830  -0.453  14.444   5.897  0.0265  0.0082 -0.0921
69071POPC   C1B20831   0.194  14.241   4.765 -0.2359 -0.0234 -0.4430
69071POPC   C2B20832   0.040  14.385   5.163  0.2436 -0.1080 -0.0124
69071POPC   C3B20833  -0.049  14.675   5.492  0.1150  0.3081  0.2058
69071POPC   C4B20834   0.079  15.029   5.690 -0.0743  0.1026 -0.0708
69072POPC   NC320835  19.690   4.865   5.040  0.1007 -0.1267 -0.0575
69072POPC   PO420836  19.726   4.622   5.350 -0.1249 -0.0994  0.2224
69072POPC   GL120837  19.616   4.692   5.739  0.3090  0.0115 -0.0220
69072POPC   GL220838  19.341   4.484   5.725 -0.3321  0.0741 -0.2432
69072POPC   C1A20839  19.283   4.949   5.996 -0.1565  0.2537  0.1154
69072POPC   D2A20840  19.249   5.237   6.346  0.2591 -0.2015  0.0111
69072POPC   C3A20841  19.526   5.601   6.251 -0.2124 -0.0457 -0.1184
69072POPC   C4A20842  20.009   5.716   6.214 -0.1012 -0.0710 -0.2586
69072POPC   C1B20843  19.242   4.476   6.127  0.0640 -0.0760  0.0964
69072POPC   C2B20844  19.020   4.665   6.468 -0.1544 -0.0955  0.0204
69072POPC   C3B20845  18.927   4.993   6.738 -0.1020 -0.2469  0.3371
69072POPC   C4B20846  19.106   5.417   6.865  0.0301  0.0656 -0.1976
69073POPC   NC320847  27.577   8.146   7.485  0.0796 -0.0153 -0.0745
69073POPC   PO420848  27.788   8.482   7.592 -0.4138  0.0687  0.6460
69073POPC   GL120849  27.884   8.694   7.838 -0.2979 -0.2825  0.2572
69073POPC   GL220850  27.755   8.753   8.056  0.3745 -0.5583  0.0488
69073POPC   C1A20851  28.282   8.769   8.038  0.1974 -0.0425  0.1627
69073POPC   D2A20852  28.419   8.889   8.424  0.1883 -0.0725 -0.4139
69073POPC   C3A20853  28.295   9.074   8.815 -0.2627  0.1021 -0.0090
69073POPC   C4A20854  28.326   9.134   9.292 -0.0828 -0.2919 -0.0263
69073POPC   C1B20855  27.543   9.113   8.339 -0.1515  0.0575 -0.0111
69073POPC   C2B20856  27.440   9.557   8.400 -0.1771  0.1749 -0.1029
69073POPC   C3B20857  27.175   9.711   8.739  0.0909 -0.0833  0.0709
69073POPC   C4B20858  26.995   9.794   9.162  0.0395 -0.0185 -0.0166
69074POPC   NC320859  30.209  12.174   4.395 -0.0385 -0.3930  0.2765
69074POPC   PO420860  30.532  11.971   4.353 -0.1870 -0.1079  0.0827
69074POPC   GL120861  30.628  12.249   4.594 -0.5245  0.1021 -0.2443
69074POPC   GL220862  30.874  12.230   4.767 -0.2268 -0.0938  0.2129
69074POPC   C1A20863  30.390  12.339   4.987  0.1027 -0.0872 -0.0134
69074POPC   D2A20864  30.174  12.426   5.346 -0.0068 -0.0488 -0.1977
69074POPC   C3A20865  30.197  12.546   5.767 -0.0087  0.1546 -0.0387
69074POPC   C4A20866  30.155  12.661   6.192 -0.1181  0.1683 -0.1141
69074POPC   C1B20867  31.156  12.053   5.066  0.4588  0.0760 -0.0894
69074POPC   C2B20868  31.155  12.144   5.539 -0.2473 -0.2873  0.2340
69074POPC   C3B20869  31.275  12.027   5.982  0.1687  0.0369 -0.0553
69074POPC   C4B20870  31.478  12.040   6.441  0.0321  0.1574 -0.0586
69075POPC   NC320871  26.072  12.063   5.789 -0.0713  0.1669  0.0318
69075POPC   PO420872  25.851  11.758   5.655 -0.0380  0.0355 -0.0575
69075POPC   GL120873  25.619  12.068   5.751 -0.1824 -0.2893 -0.1839
69075POPC   GL220874  25.670  12.373   5.760  0.3513 -0.1635  0.0854
69075POPC   C1A20875  25.638  12.066   6.224 -0.2879  0.2836  0.1237
69075POPC   D2A20876  25.434  12.115   6.611  0.3799  0.3700 -0.0943
69075POPC   C3A20877  25.525  12.560   6.759 -0.0911 -0.0780 -0.1931
69075POPC   C4A20878  25.751  12.826   7.096  0.0161 -0.1543  0.2803
69075POPC   C1B20879  25.519  12.545   6.145 -0.0948 -0.2312  0.1955
69075POPC   C2B20880  25.313  12.864   6.449 -0.0634  0.1705 -0.0954
69075POPC   C3B20881  25.051  13.075   6.759  0.0469 -0.1585  0.0476
69075POPC   C4B20882  24.894  13.406   7.127 -0.4283  0.0052  0.0100
69076POPC   NC320883  25.193   9.827   5.735 -0.0097  0.0653  0.5164
69076POPC   PO420884  25.421  10.156   5.871  0.1586 -0.0395 -0.0881
69076POPC   GL120885  25.445  10.441   6.239  0.1823  0.2080  0.1191
69076POPC   GL220886  25.189  10.385   6.449 -0.0236 -0.3380  0.1185
69076POPC   C1A20887  25.422  10.798   6.491 -0.1209  0.3272 -0.1240
69076POPC   D2A20888  25.524  11.195   6.657 -0.1336  0.2357  0.1378
69076POPC   C3A20889  25.156  11.264   6.946  0.2054 -0.2372  0.1204
69076POPC   C4A20890  24.689  11.395   6.985 -0.2358  0.2719 -0.2072
69076POPC   C1B20891  24.898  10.233   6.800  0.0699  0.3127  0.2034
69076POPC   C2B20892  24.647  10.264   7.158  0.2101 -0.0169 -0.3926
69076POPC   C3B20893  24.366  10.525   7.414  0.0965  0.0317 -0.0771
69076POPC   C4B20894  24.191  10.661   7.806 -0.0915 -0.0309  0.0443
69077POPC   NC320895  28.348   8.850   6.532  0.1705  0.1626  0.2103
69077POPC   PO420896  28.318   8.782   6.865 -0.2125 -0.3439  0.0064
69077POPC   GL120897  28.472   9.044   7.034 -0.2358  0.1933 -0.0010
69077POPC   GL220898  28.375   9.057   7.334 -0.1811 -0.2631  0.1098
69077POPC   C1A20899  28.442   9.516   7.076  0.2754  0.2557  0.0756
69077POPC   D2A20900  28.440   9.755   7.445  0.0513  0.2924 -0.0916
69077POPC   C3A20901  28.552  10.195   7.579 -0.0828  0.0198 -0.2496
69077POPC   C4A20902  28.571  10.431   7.965 -0.2584 -0.0183  0.1624
69077POPC   C1B20903  28.728   9.402   7.557 -0.0450  0.3763  0.0147
69077POPC   C2B20904  28.779   9.802   7.839 -0.0798  0.0896 -0.1668
69077POPC   C3B20905  28.952  10.169   8.036 -0.1817 -0.0254 -0.1230
69077POPC   C4B20906  28.951  10.495   8.349  0.0686 -0.0191  0.1658
69078POPC   NC320907  31.509   8.897   5.466 -0.1779  0.2244 -0.0316
69078POPC   PO420908  31.779   8.809   5.157  0.0219 -0.0113 -0.0884
69078POPC   GL120909  31.936   8.772   5.543 -0.2181  0.1297  0.0077
69078POPC   GL220910  32.117   9.013   5.496  0.0265  0.3296 -0.1149
69078POPC   C1A20911  31.760   8.900   5.955  0.1426 -0.1967 -0.1854
69078POPC   D2A20912  31.646   9.319   6.111  0.0954 -0.0510 -0.1693
69078POPC   C3A20913  31.459   9.531   6.548  0.1060  0.3952 -0.3703
69078POPC   C4A20914  31.437   9.722   6.942 -0.1640 -0.1926 -0.0567
69078POPC   C1B20915  32.084   9.260   5.818  0.1030 -0.0722  0.0608
69078POPC   C2B20916  32.427   9.409   6.098  0.1525 -0.1319 -0.1966
69078POPC   C3B20917  32.400   9.777   6.386 -0.2001 -0.2872 -0.1514
69078POPC   C4B20918  32.580  10.194   6.316 -0.0689 -0.0055 -0.0308
69079POPC   NC320919  24.104   2.955   6.733  0.0689 -0.1525 -0.2236
69079POPC   PO420920  24.398   3.231   6.730 -0.0809  0.0993  0.1991
69079POPC   GL120921  24.277   3.225   7.076  0.2674  0.1971  0.1072
69079POPC   GL220922  23.989   3.246   7.222  0.0054 -0.1589  0.0548
69079POPC   C1A20923  24.272   2.757   7.164  0.0822 -0.2741  0.1210
69079POPC   D2A20924  24.096   2.393   7.441 -0.0963  0.1286 -0.3690
69079POPC   C3A20925  23.819   2.110   7.721  0.0196  0.3068 -0.2340
69079POPC   C4A20926  23.507   1.858   7.876 -0.0768  0.1751  0.1111
69079POPC   C1B20927  23.627   3.210   7.464 -0.1385 -0.0245  0.1319
69079POPC   C2B20928  23.249   3.326   7.679  0.0307 -0.0000  0.4249
69079POPC   C3B20929  23.192   3.167   8.144  0.1298  0.0175 -0.2444
69079POPC   C4B20930  22.947   3.231   8.516 -0.0590 -0.0671 -0.2216
69080POPC   NC320931  26.346   5.662  11.229 -0.0198  0.3844  0.1191
69080POPC   PO420932  26.716   5.598  11.401 -0.1603  0.0546  0.0548
69080POPC   GL120933  27.182   5.491  11.449  0.1910 -0.6399 -0.1605
69080POPC   GL220934  27.285   5.605  11.669 -0.0660 -0.0488  0.2381
69080POPC   C1A20935  27.471   5.164  11.220  0.0977 -0.0522  0.2068
69080POPC   D2A20936  27.840   5.078  10.912  0.0089 -0.0507  0.0283
69080POPC   C3A20937  28.251   5.198  10.869 -0.2243  0.0571 -0.2177
69080POPC   C4A20938  28.667   5.190  10.687 -0.1686  0.0099 -0.1731
69080POPC   C1B20939  27.719   5.539  11.817 -0.1942  0.1455 -0.0729
69080POPC   C2B20940  28.077   5.285  11.999  0.1979  0.1149 -0.1827
69080POPC   C3B20941  28.459   5.151  12.283  0.2638  0.2693  0.0559
69080POPC   C4B20942  28.512   5.171  12.767  0.4105 -0.0580  0.1046
69081POPC   NC320943  31.177  17.556   4.440  0.2721  0.0564  0.2539
69081POPC   PO420944  30.817  17.532   4.238  0.0538  0.0620 -0.1651
69081POPC   GL120945  30.650  17.099   4.418  0.1216  0.1214  0.0576
69081POPC   GL220946  30.921  16.985   4.411 -0.0140 -0.2697  0.0624
69081POPC   C1A20947  30.593  16.935   4.860  0.3012  0.1233  0.0164
69081POPC   D2A20948  30.754  16.918   5.292  0.2007  0.1434 -0.0875
69081POPC   C3A20949  30.539  16.555   5.552  0.0541  0.0480 -0.0694
69081POPC   C4A20950  30.737  16.265   5.861 -0.1724  0.3530  0.0453
69081POPC   C1B20951  31.119  16.896   4.818 -0.0588  0.1812  0.0450
69081POPC   C2B20952  31.105  16.601   5.177  0.0827 -0.1879 -0.1342
69081POPC   C3B20953  31.018  16.692   5.638  0.1295 -0.1956 -0.3187
69081POPC   C4B20954  30.703  16.971   5.841  0.0419  0.0357  0.1476
69082POPC   NC320955  20.546  17.337   4.416  0.1915  0.2177 -0.1285
69082POPC   PO420956  20.229  17.166   4.589  0.3218 -0.0927 -0.0021
69082POPC   GL120957  20.164  17.058   4.932 -0.2565  0.0676  0.2632
69082POPC   GL220958  20.138  16.757   4.923  0.0221 -0.1091 -0.0255
69082POPC   C1A20959  20.442  16.893   5.269  0.1835 -0.0530  0.0022
69082POPC   D2A20960  20.530  16.671   5.656 -0.1669  0.1475 -0.0462
69082POPC   C3A20961  20.715  16.677   6.103  0.3178 -0.2409  0.0141
69082POPC   C4A20962  20.529  16.663   6.473  0.0161 -0.5594  0.0304
69082POPC   C1B20963  20.036  16.465   5.226 -0.1618  0.0412 -0.1339
69082POPC   C2B20964  20.151  16.367   5.697  0.1358 -0.2057 -0.0474
69082POPC   C3B20965  20.189  16.295   6.176  0.0281  0.2826  0.1734
69082POPC   C4B20966  19.950  16.467   6.497 -0.0919 -0.3610  0.3864
69083POPC   NC320967  25.011   4.491  10.296 -0.2257 -0.0909 -0.3054
69083POPC   PO420968  25.006   4.912  10.322 -0.0151  0.1323  0.0557
69083POPC   GL120969  24.832   4.832  10.587  0.2301  0.2250  0.0585
69083POPC   GL220970  24.547   4.712  10.413  0.3195 -0.3048 -0.5044
69083POPC   C1A20971  24.523   4.999  10.862 -0.0690  0.0981  0.0058
69083POPC   D2A20972  24.205   5.194  11.130 -0.1304  0.1338 -0.0300
69083POPC   C3A20973  23.945   4.914  11.381  0.3872  0.2781 -0.0907
69083POPC   C4A20974  23.546   4.877  11.585  0.1279  0.0571  0.3211
69083POPC   C1B20975  24.485   4.435  10.765 -0.1736 -0.1608 -0.1788
69083POPC   C2B20976  24.754   4.082  10.863  0.2460 -0.1473  0.0865
69083POPC   C3B20977  24.976   3.655  10.677  0.0977 -0.2626 -0.0559
69083POPC   C4B20978  25.346   3.400  10.698 -0.2266  0.0648 -0.0878
69084POPC   NC320979  19.352   9.321   5.196  0.0046 -0.4143 -0.0611
69084POPC   PO420980  19.169   8.979   5.129  0.0539  0.1851  0.0113
69084POPC   GL120981  19.158   9.103   5.544  0.1362  0.2454 -0.1685
69084POPC   GL220982  19.109   8.857   5.735 -0.1294  0.0182 -0.0534
69084POPC   C1A20983  18.881   9.353   5.845 -0.0075 -0.2244  0.3027
69084POPC   D2A20984  18.530   9.505   6.147 -0.0929 -0.0438 -0.2659
69084POPC   C3A20985  18.871   9.626   6.404  0.0359 -0.0134  0.3020
69084POPC   C4A20986  19.338   9.780   6.470  0.4579  0.0221 -0.2523
69084POPC   C1B20987  18.906   8.958   6.133 -0.3173 -0.2377 -0.0756
69084POPC   C2B20988  18.628   9.105   6.510 -0.0638 -0.2328 -0.0500
69084POPC   C3B20989  18.238   9.259   6.749  0.1454  0.0040 -0.1389
69084POPC   C4B20990  17.766   9.368   6.753  0.1221  0.1453  0.0175
69085POPC   NC320991  26.787  12.114   5.322 -0.2161  0.0780  0.1512
69085POPC   PO420992  26.537  12.106   5.631 -0.2621  0.0196 -0.6390
69085POPC   GL120993  26.479  12.178   6.080  0.0060 -0.0202 -0.3428
69085POPC   GL220994  26.637  11.922   6.137 -0.0882  0.1884  0.0462
69085POPC   C1A20995  26.162  12.041   6.429 -0.2918  0.1242  0.1949
69085POPC   D2A20996  25.952  12.156   6.815 -0.0676  0.0458 -0.0687
69085POPC   C3A20997  25.753  12.075   7.225  0.1019 -0.1117 -0.0127
69085POPC   C4A20998  25.550  11.688   7.347 -0.2795 -0.0996  0.2082
69085POPC   C1B20999  26.770  12.097   6.487 -0.0797  0.0125 -0.1932
69085POPC   C2B21000  27.063  12.259   6.765  0.1303  0.1588  0.0814
69085POPC   C3B21001  27.338  12.566   6.958 -0.1892  0.1784 -0.2168
69085POPC   C4B21002  27.784  12.718   7.054  0.1844 -0.3515 -0.0927
69086POPC   NC321003  29.876  16.040   3.886 -0.0401 -0.1038 -0.1707
69086POPC   PO421004  30.266  15.996   3.794  0.2487  0.0880  0.2449
69086POPC   GL121005  30.197  15.780   4.098 -0.3374  0.0126  0.4168
69086POPC   GL221006  30.055  15.861   4.391  0.2478 -0.1321  0.0081
69086POPC   C1A21007  30.465  15.630   4.473  0.3356  0.1130 -0.0392
69086POPC   D2A21008  30.544  15.668   4.957  0.1150 -0.1443  0.0266
69086POPC   C3A21009  30.465  15.418   5.351 -0.0302  0.0798 -0.0572
69086POPC   C4A21010  30.245  15.035   5.521  0.1212 -0.0971  0.0379
69086POPC   C1B21011  30.118  15.859   4.839 -0.2445  0.1577 -0.1670
69086POPC   C2B21012  30.159  15.751   5.308  0.0872 -0.1029  0.0847
69086POPC   C3B21013  30.088  15.628   5.769  0.0928  0.2672 -0.0250
69086POPC   C4B21014  30.038  15.202   5.915  0.0432 -0.0782 -0.2522
69087POPC   NC321015  21.400   4.294   5.576 -0.1242 -0.0615  0.0899
69087POPC   PO421016  21.693   4.303   5.835 -0.1075  0.0533  0.0725
69087POPC   GL121017  21.586   4.419   6.197 -0.2377  0.0302 -0.0878
69087POPC   GL221018  21.514   4.729   6.156 -0.0571 -0.1923 -0.0464
69087POPC   C1A21019  21.367   4.110   6.481  0.0969  0.2407 -0.2963
69087POPC   D2A21020  21.210   4.118   6.895  0.0362  0.0892  0.1016
69087POPC   C3A21021  21.010   4.208   7.303  0.1591  0.2113  0.3386
69087POPC   C4A21022  20.776   4.630   7.366 -0.1762 -0.0039 -0.0281
69087POPC   C1B21023  21.341   4.607   6.552  0.1540 -0.0676  0.2919
69087POPC   C2B21024  20.989   4.535   6.808 -0.3467  0.0002 -0.1407
69087POPC   C3B21025  20.669   4.264   6.883 -0.2663 -0.1492 -0.0564
69087POPC   C4B21026  20.402   3.968   6.650  0.0058 -0.1616 -0.1462
69088POPC   NC321027  31.068   3.748   4.967 -0.2165 -0.2766 -0.5135
69088POPC   PO421028  31.385   3.791   4.699  0.1391 -0.1751 -0.1084
69088POPC   GL121029  31.426   3.472   4.986  0.1557 -0.2944 -0.0607
69088POPC   GL221030  31.639   3.165   4.998  0.2629  0.0098 -0.0596
69088POPC   C1A21031  31.384   3.434   5.414  0.4898 -0.0991  0.0813
69088POPC   D2A21032  31.690   3.559   5.728 -0.0326 -0.0405  0.0348
69088POPC   C3A21033  31.699   3.598   6.170 -0.3358  0.0504  0.0017
69088POPC   C4A21034  31.737   3.501   6.646 -0.0962 -0.0373  0.2662
69088POPC   C1B21035  31.678   3.011   5.408  0.2284  0.1262  0.2743
69088POPC   C2B21036  31.713   3.098   5.867 -0.3664  0.0369 -0.1897
69088POPC   C3B21037  31.950   3.215   6.252  0.3571  0.0034  0.3192
69088POPC   C4B21038  32.197   3.565   6.392  0.2128  0.1994  0.0099
69089POPC   NC321039  29.520  13.782   4.896  0.3407  0.0675  0.2797
69089POPC   PO421040  29.275  14.083   4.803 -0.0008  0.0136  0.0144
69089POPC   GL121041  29.324  14.258   5.154 -0.1176  0.3131 -0.3321
69089POPC   GL221042  29.285  14.096   5.353  0.1955 -0.2079  0.1826
69089POPC   C1A21043  29.271  14.577   5.491 -0.1709  0.2246 -0.1504
69089POPC   D2A21044  29.065  14.595   5.926  0.1115 -0.0656  0.1284
69089POPC   C3A21045  29.130  14.234   6.195 -0.1292  0.2972 -0.1924
69089POPC   C4A21046  29.050  13.751   6.237  0.2681  0.1102 -0.3293
69089POPC   C1B21047  29.338  13.938   5.730 -0.3407  0.1089  0.0083
69089POPC   C2B21048  29.654  13.812   6.039 -0.0866  0.0277  0.0973
69089POPC   C3B21049  29.861  13.720   6.438 -0.0339 -0.0794 -0.0694
69089POPC   C4B21050  30.061  13.760   6.821  0.3808  0.1566  0.0147
69090POPC   NC321051  21.250   4.103   5.998 -0.3084 -0.0383 -0.1232
69090POPC   PO421052  20.942   4.127   5.784 -0.0051  0.0935  0.0422
69090POPC   GL121053  20.706   4.185   6.107 -0.2058  0.1312 -0.2486
69090POPC   GL221054  20.392   4.258   6.092 -0.1142  0.0545  0.0132
69090POPC   C1A21055  20.854   3.990   6.505 -0.1695 -0.1890 -0.0828
69090POPC   D2A21056  20.747   3.775   6.958  0.1163  0.2909 -0.1269
69090POPC   C3A21057  20.933   3.764   7.391 -0.1882  0.0220 -0.0823
69090POPC   C4A21058  21.209   3.603   7.728 -0.1598 -0.1239 -0.0764
69090POPC   C1B21059  20.140   4.369   6.457 -0.0473  0.0705 -0.1653
69090POPC   C2B21060  20.151   4.298   6.929  0.0063 -0.0359 -0.2931
69090POPC   C3B21061  20.427   4.062   7.248  0.2291 -0.1144 -0.0545
69090POPC   C4B21062  20.469   3.634   7.486 -0.0514 -0.0430  0.0644
69091POPC   NC321063  17.674  10.860   4.896  0.1887  0.0479 -0.3649
69091POPC   PO421064  18.046  10.730   4.736 -0.2256 -0.0875 -0.0375
69091POPC   GL121065  18.048  10.774   5.059 -0.0703 -0.1993 -0.0067
69091POPC   GL221066  17.961  10.584   5.210 -0.0560 -0.1355 -0.1722
69091POPC   C1A21067  17.828  11.118   5.279 -0.1345  0.0314 -0.0166
69091POPC   D2A21068  17.858  11.480   5.084 -0.1522 -0.4039 -0.1034
69091POPC   C3A21069  17.782  11.886   5.362 -0.1255 -0.2365  0.1829
69091POPC   C4A21070  18.005  11.873   5.761 -0.0700  0.2623  0.2763
69091POPC   C1B21071  18.041  10.742   5.627  0.0600 -0.1985  0.2636
69091POPC   C2B21072  17.905  10.684   6.068  0.1175  0.2417 -0.0826
69091POPC   C3B21073  17.938  10.767   6.540 -0.2800  0.3473 -0.0627
69091POPC   C4B21074  17.718  10.790   6.959 -0.1501  0.0393  0.1075
69092POPC   NC321075  30.049   4.822   5.635  0.1869 -0.3319  0.0264
69092POPC   PO421076  29.863   4.527   5.592 -0.0289  0.2059 -0.4231
69092POPC   GL121077  29.800   4.177   5.839  0.2414  0.0750 -0.1127
69092POPC   GL221078  29.761   4.250   6.093 -0.1347  0.1334 -0.2537
69092POPC   C1A21079  30.032   3.801   5.933  0.0182  0.2806  0.0622
69092POPC   D2A21080  29.938   3.408   6.150  0.0641 -0.2714  0.2526
69092POPC   C3A21081  29.506   3.082   6.047 -0.0849 -0.0028 -0.1789
69092POPC   C4A21082  29.171   2.810   6.076  0.0454  0.4104 -0.0744
69092POPC   C1B21083  29.830   3.933   6.402  0.3005  0.0009 -0.1785
69092POPC   C2B21084  30.080   3.795   6.798 -0.2015  0.1448 -0.0537
69092POPC   C3B21085  30.517   3.711   6.768  0.0375 -0.1417  0.2364
69092POPC   C4B21086  30.858   3.474   7.088 -0.1102 -0.3716 -0.3578
69093POPC   NC321087  27.806   7.226   8.048 -0.1908 -0.2229 -0.0613
69093POPC   PO421088  27.620   7.532   8.221  0.1872  0.2143 -0.2132
69093POPC   GL121089  27.704   7.821   8.456 -0.0353 -0.1074 -0.0638
69093POPC   GL221090  27.618   8.052   8.492  0.2617 -0.0652  0.1622
69093POPC   C1A21091  28.149   7.959   8.638 -0.1128  0.1537  0.0564
69093POPC   D2A21092  28.610   7.914   8.654  0.0425  0.1829  0.0014
69093POPC   C3A21093  28.834   7.591   8.896  0.1209 -0.0431  0.1971
69093POPC   C4A21094  29.096   7.496   9.305 -0.0008  0.0233  0.1701
69093POPC   C1B21095  27.678   7.881   8.889 -0.3025 -0.1934  0.2855
69093POPC   C2B21096  27.787   7.919   9.359 -0.2210  0.1693 -0.0300
69093POPC   C3B21097  28.120   7.727   9.698 -0.0590  0.0062 -0.0065
69093POPC   C4B21098  28.225   7.426  10.042 -0.2735  0.2723 -0.0439
69094POPC   NC321099  22.598  10.106   4.825  0.1236  0.0582  0.1003
69094POPC   PO421100  22.387  10.435   4.779  0.0138 -0.0086 -0.3178
69094POPC   GL121101  22.446  10.473   5.206  0.2298  0.3465 -0.0831
69094POPC   GL221102  22.687  10.548   5.250 -0.1284  0.0939  0.3118
69094POPC   C1A21103  22.202  10.475   5.599  0.1342  0.3459 -0.0252
69094POPC   D2A21104  22.130  10.638   5.987 -0.1304  0.0033 -0.0539
69094POPC   C3A21105  21.875  10.360   6.243 -0.2872  0.1596  0.2242
69094POPC   C4A21106  21.692  10.413   6.673 -0.3022 -0.0111  0.1461
69094POPC   C1B21107  22.582  10.766   5.655 -0.2712  0.0880  0.1614
69094POPC   C2B21108  22.395  11.086   5.986 -0.1111  0.1852 -0.1610
69094POPC   C3B21109  21.988  11.080   6.214 -0.1747  0.0894 -0.0136
69094POPC   C4B21110  21.802  11.230   6.606 -0.1619  0.2302 -0.2529
69095POPC   NC321111  17.385  11.620   4.440 -0.0667 -0.0874  0.1469
69095POPC   PO421112  17.272  11.266   4.591 -0.0004 -0.1899 -0.2093
69095POPC   GL121113  17.430  11.336   4.951 -0.0858 -0.1163  0.0099
69095POPC   GL221114  17.358  11.610   5.021  0.2697 -0.1147 -0.1411
69095POPC   C1A21115  17.228  11.240   5.420 -0.3213 -0.0012  0.2929
69095POPC   D2A21116  16.878  11.135   5.714  0.1083 -0.2128 -0.2214
69095POPC   C3A21117  16.428  11.206   5.742 -0.0559  0.0738  0.1331
69095POPC   C4A21118  16.116  11.235   6.123  0.0237  0.1442  0.0003
69095POPC   C1B21119  17.309  11.786   5.495  0.2369 -0.1507  0.3597
69095POPC   C2B21120  17.383  11.878   5.950 -0.3114  0.3319  0.0258
69095POPC   C3B21121  17.242  11.954   6.393 -0.2168  0.0260  0.1022
69095POPC   C4B21122  17.154  12.373   6.580 -0.2633 -0.0182  0.1914
69096POPC   NC321123  26.388   6.771  12.063 -0.1440 -0.0015  0.2986
69096POPC   PO421124  26.293   6.480  12.321 -0.0583 -0.2974 -0.0777
69096POPC   GL121125  26.546   6.700  12.499 -0.0537  0.1730 -0.1175
69096POPC   GL221126  26.742   6.532  12.598  0.4819  0.2585 -0.0126
69096POPC   C1A21127  26.899   7.021  12.495  0.1418 -0.0896  0.1665
69096POPC   D2A21128  27.111   7.469  12.442 -0.0340 -0.2187 -0.2221
69096POPC   C3A21129  27.449   7.717  12.286  0.1534  0.3455  0.0941
69096POPC   C4A21130  27.785   7.683  12.003  0.0742 -0.0808 -0.3633
69096POPC   C1B21131  26.865   6.792  12.916 -0.0463 -0.0172  0.1595
69096POPC   C2B21132  27.031   6.969  13.260  0.2110 -0.2373  0.1516
69096POPC   C3B21133  27.362   7.016  13.561  0.1555 -0.1430  0.1945
69096POPC   C4B21134  27.733   6.820  13.618  0.1331 -0.1666  0.3203
69097POPC   NC321135  26.637   7.963   8.293  0.1673 -0.2840 -0.0662
69097POPC   PO421136  26.999   8.051   8.434  0.3328  0.0751  0.0324
69097POPC   GL121137  27.116   8.375   8.345  0.2163 -0.2037  0.0879
69097POPC   GL221138  27.367   8.463   8.399  0.1328 -0.0755  0.1041
69097POPC   C1A21139  26.957   8.669   8.697  0.0133 -0.1989 -0.2506
69097POPC   D2A21140  26.696   8.697   9.086  0.4124  0.1513 -0.1642
69097POPC   C3A21141  26.515   9.070   9.290  0.3038 -0.2551 -0.1624
69097POPC   C4A21142  26.048   9.073   9.430  0.1278 -0.1132 -0.1333
69097POPC   C1B21143  27.457   8.789   8.731  0.0522  0.0617 -0.0002
69097POPC   C2B21144  27.792   8.940   8.998 -0.2368  0.0436  0.0972
69097POPC   C3B21145  27.872   8.692   9.341 -0.0788 -0.0808  0.0328
69097POPC   C4B21146  27.793   8.407   9.638  0.0792  0.0492 -0.2711
69098POPC   NC321147  19.570   8.137   5.295 -0.3304  0.0947  0.3101
69098POPC   PO421148  19.393   8.467   5.228  0.2814  0.0797  0.1588
69098POPC   GL121149  19.572   8.701   5.613 -0.3046 -0.2519  0.0184
69098POPC   GL221150  19.702   8.463   5.644  0.1009  0.1699 -0.3099
69098POPC   C1A21151  19.461   8.780   6.055 -0.1675 -0.2904 -0.1433
69098POPC   D2A21152  19.670   8.664   6.445  0.0405  0.1192 -0.2755
69098POPC   C3A21153  19.420   9.015   6.690  0.0707  0.1209 -0.4621
69098POPC   C4A21154  19.311   9.416   6.837  0.0059 -0.3420 -0.2711
69098POPC   C1B21155  19.929   8.443   5.998  0.0267  0.1722 -0.0983
69098POPC   C2B21156  20.179   8.439   6.367  0.3579 -0.0111  0.0259
69098POPC   C3B21157  20.209   8.615   6.795 -0.2320 -0.3605  0.0715
69098POPC   C4B21158  20.442   8.964   7.025  0.0307 -0.0225  0.0914
69099POPC   NC321159  24.098   1.550   5.303  0.0364 -0.0771 -0.0238
69099POPC   PO421160  23.780   1.337   5.355  0.0146 -0.5404  0.2677
69099POPC   GL121161  23.756   0.962   5.622 -0.1801  0.1785 -0.0489
69099POPC   GL221162  24.052   0.985   5.699 -0.0048  0.1044 -0.0685
69099POPC   C1A21163  23.471   0.631   5.804  0.1354  0.0052  0.0037
69099POPC   D2A21164  23.348   0.251   6.047 -0.0388 -0.0787  0.1907
69099POPC   C3A21165  23.124   0.280   6.464  0.3741 -0.1766  0.1067
69099POPC   C4A21166  22.879   0.049   6.771 -0.1796  0.1184 -0.1119
69099POPC   C1B21167  23.773   1.085   6.066  0.1177 -0.0759  0.0824
69099POPC   C2B21168  23.629   0.985   6.455 -0.4609  0.1503  0.1475
69099POPC   C3B21169  23.871   0.766   6.797  0.0264  0.1651  0.1161
69099POPC   C4B21170  23.981   0.445   7.136  0.1100  0.2185 -0.0128
69100POPC   NC321171  19.250  14.225   4.173  0.2118 -0.0482 -0.1351
69100POPC   PO421172  19.611  13.965   4.182  0.0382 -0.1644  0.2179
69100POPC   GL121173  19.734  14.161   4.486 -0.2644  0.1908  0.1292
69100POPC   GL221174  19.584  14.412   4.525  0.2299 -0.1131 -0.1497
69100POPC   C1A21175  20.141  14.290   4.709  0.0841 -0.0524  0.1907
69100POPC   D2A21176  20.390  14.651   4.857  0.0910  0.4032 -0.0145
69100POPC   C3A21177  20.664  14.402   5.198 -0.0913  0.3708 -0.1143
69100POPC   C4A21178  20.914  14.186   5.574 -0.0503  0.0915 -0.1842
69100POPC   C1B21179  19.655  14.258   4.929 -0.2538 -0.3086 -0.2744
69100POPC   C2B21180  19.721  13.989   5.277 -0.1657 -0.1432 -0.2852
69100POPC   C3B21181  19.738  13.770   5.691 -0.1457 -0.2003  0.1991
69100POPC   C4B21182  20.062  13.529   5.904 -0.1025 -0.0262 -0.0954
69101POPC   NC321183  25.984  11.334   5.837  0.3009  0.1831 -0.0036
69101POPC   PO421184  26.340  11.144   5.844  0.0009 -0.0313 -0.1202
69101POPC   GL121185  26.550  11.067   6.188  0.0539 -0.6829 -0.3251
69101POPC   GL221186  26.688  11.306   6.289 -0.1215 -0.0348  0.0406
69101POPC   C1A21187  26.519  11.042   6.675  0.1331 -0.2537  0.0802
69101POPC   D2A21188  26.477  11.288   7.037  0.0717 -0.2489 -0.1465
69101POPC   C3A21189  26.815  11.564   7.122  0.1857 -0.0476  0.0832
69101POPC   C4A21190  26.906  12.019   7.240 -0.0044  0.0235  0.1019
69101POPC   C1B21191  26.566  11.634   6.588 -0.2038  0.0814 -0.0854
69101POPC   C2B21192  26.486  11.960   6.897 -0.2197 -0.1343 -0.1486
69101POPC   C3B21193  26.266  12.215   7.185  0.0173 -0.0644  0.0917
69101POPC   C4B21194  26.045  12.550   7.431 -0.4414 -0.0984  0.0173
69102POPC   NC321195  18.341   2.679   4.750  0.0353 -0.0475 -0.0761
69102POPC   PO421196  18.247   2.945   4.991  0.0816  0.0454  0.0862
69102POPC   GL121197  18.200   2.716   5.198  0.5261 -0.1131 -0.1790
69102POPC   GL221198  18.424   2.588   5.317 -0.4330 -0.1801 -0.0934
69102POPC   C1A21199  18.118   2.262   5.389 -0.2531 -0.0497  0.1320
69102POPC   D2A21200  18.378   1.968   5.468 -0.1603 -0.2419  0.0218
69102POPC   C3A21201  18.245   1.865   5.914  0.0172 -0.0361 -0.1036
69102POPC   C4A21202  18.052   1.892   6.346 -0.1019 -0.1777  0.0012
69102POPC   C1B21203  18.447   2.415   5.719  0.2604  0.1449 -0.1633
69102POPC   C2B21204  18.571   2.291   6.115  0.0923  0.2283  0.1489
69102POPC   C3B21205  18.355   2.469   6.490 -0.3560 -0.1334  0.2275
69102POPC   C4B21206  18.122   2.649   6.905  0.2035  0.1291  0.3414
69103POPC   NC321207  26.323   9.408   6.495  0.1778 -0.3076  0.1674
69103POPC   PO421208  25.977   9.516   6.543 -0.2600 -0.0318  0.0751
69103POPC   GL121209  25.609   9.650   6.573 -0.0586 -0.1631 -0.0519
69103POPC   GL221210  25.419   9.511   6.759  0.0091  0.2484  0.1865
69103POPC   C1A21211  25.598  10.030   6.841  0.1424  0.0950 -0.0628
69103POPC   D2A21212  25.740  10.461   6.793 -0.0602  0.2654 -0.1276
69103POPC   C3A21213  25.688  10.830   7.037  0.2095  0.4386 -0.1857
69103POPC   C4A21214  25.501  11.163   7.305  0.1872  0.0107 -0.2473
69103POPC   C1B21215  25.181   9.800   7.044  0.1074 -0.0705  0.0768
69103POPC   C2B21216  25.229  10.212   7.224 -0.1461 -0.0406 -0.2473
69103POPC   C3B21217  25.435  10.559   7.426 -0.4158  0.2673  0.1686
69103POPC   C4B21218  25.750  10.859   7.717 -0.0509  0.2383  0.0557
69104POPC   NC321219  25.005   4.310   7.921 -0.0425  0.1164 -0.0233
69104POPC   PO421220  25.369   4.206   8.069  0.1014 -0.0804  0.1863
69104POPC   GL121221  25.364   3.971   8.428  0.1609 -0.3616 -0.2587
69104POPC   GL221222  25.033   4.071   8.424  0.0914 -0.2955  0.0002
69104POPC   C1A21223  25.150   3.630   8.646  0.2592 -0.2346 -0.1774
69104POPC   D2A21224  25.058   3.275   8.865 -0.0116 -0.0564 -0.0431
69104POPC   C3A21225  24.930   2.892   9.117  0.3830  0.3590 -0.3049
69104POPC   C4A21226  24.545   2.631   9.187  0.2315  0.0339 -0.1294
69104POPC   C1B21227  24.718   3.893   8.722 -0.0877  0.0273 -0.1464
69104POPC   C2B21228  24.571   3.601   9.110  0.3171  0.3274 -0.0998
69104POPC   C3B21229  24.520   3.140   9.278 -0.0377 -0.0005  0.0226
69104POPC   C4B21230  24.433   2.813   9.608  0.3614  0.2034 -0.0109
69105POPC   NC321231  27.332   3.594   5.996  0.2314  0.0647 -0.1900
69105POPC   PO421232  27.386   3.834   6.281  0.1265  0.0378 -0.1276
69105POPC   GL121233  27.346   3.507   6.546 -0.0497 -0.1098  0.2621
69105POPC   GL221234  27.434   3.269   6.422  0.2726 -0.0247  0.3676
69105POPC   C1A21235  27.570   3.559   6.954  0.0961  0.1776  0.0003
69105POPC   D2A21236  27.719   3.442   7.370  0.0956  0.0711 -0.2669
69105POPC   C3A21237  27.851   3.156   7.661 -0.3500 -0.1223 -0.0256
69105POPC   C4A21238  27.946   2.760   7.827  0.4290 -0.1602 -0.0471
69105POPC   C1B21239  27.372   3.144   6.884 -0.1767  0.2935 -0.4074
69105POPC   C2B21240  27.486   2.906   7.254  0.2524 -0.0120 -0.0889
69105POPC   C3B21241  27.572   2.595   7.567  0.2289  0.1714  0.1058
69105POPC   C4B21242  27.435   2.672   7.960  0.1058 -0.0482 -0.1276
69106POPC   NC321243  25.111  16.236   4.980 -0.0259 -0.2321 -0.0011
69106POPC   PO421244  25.084  15.832   4.868  0.1812  0.1463 -0.0261
69106POPC   GL121245  25.152  15.595   5.175  0.0063 -0.1288  0.0865
69106POPC   GL221246  25.298  15.335   5.216 -0.1598 -0.0603 -0.0746
69106POPC   C1A21247  24.984  15.515   5.536  0.0090  0.0029 -0.1943
69106POPC   D2A21248  24.668  15.638   5.835 -0.0760  0.0451 -0.2441
69106POPC   C3A21249  24.860  15.906   6.133  0.2509 -0.0157  0.2714
69106POPC   C4A21250  24.725  16.038   6.594  0.1185 -0.0025  0.1336
69106POPC   C1B21251  25.287  15.039   5.604 -0.2091  0.2480  0.0143
69106POPC   C2B21252  25.320  14.911   6.031  0.0428  0.1473 -0.0700
69106POPC   C3B21253  25.413  15.020   6.455 -0.1737  0.3992 -0.1158
69106POPC   C4B21254  25.480  14.789   6.882 -0.3514 -0.2877  0.1664
69107POPC   NC321255  26.499   7.774   8.979  0.0254 -0.3090 -0.0037
69107POPC   PO421256  26.733   7.630   8.734  0.1015 -0.0487 -0.3047
69107POPC   GL121257  26.959   7.946   8.931 -0.0554 -0.1586  0.2729
69107POPC   GL221258  26.828   8.209   9.182 -0.1564 -0.0411 -0.0420
69107POPC   C1A21259  27.276   8.248   8.934  0.1559 -0.1831  0.0791
69107POPC   D2A21260  27.756   8.432   8.883  0.1905  0.0070  0.0995
69107POPC   C3A21261  28.095   8.210   9.132  0.1866  0.2275 -0.2939
69107POPC   C4A21262  28.289   8.177   9.551  0.2044 -0.2159 -0.2251
69107POPC   C1B21263  26.726   8.519   9.530  0.0059 -0.0797  0.0590
69107POPC   C2B21264  26.443   8.801   9.792 -0.0317 -0.2045 -0.1338
69107POPC   C3B21265  26.117   8.929  10.082 -0.1905 -0.1760 -0.0720
69107POPC   C4B21266  26.029   9.150  10.469  0.0501 -0.1303  0.0436
69108POPC   NC321267  21.988  16.913   4.892 -0.5592  0.0485 -0.2024
69108POPC   PO421268  21.788  16.735   4.622  0.2307  0.3443  0.0667
69108POPC   GL121269  21.584  16.495   4.847 -0.1422  0.0928 -0.1500
69108POPC   GL221270  21.778  16.440   5.087 -0.0894  0.1044  0.2864
69108POPC   C1A21271  21.246  16.332   5.163  0.2243 -0.0573 -0.0888
69108POPC   D2A21272  21.149  16.132   5.561 -0.2247 -0.2367 -0.0462
69108POPC   C3A21273  21.053  16.342   5.918 -0.1491 -0.0063  0.0982
69108POPC   C4A21274  21.219  16.457   6.301 -0.0253  0.0227  0.3714
69108POPC   C1B21275  21.535  16.487   5.523 -0.2351  0.2276  0.4628
69108POPC   C2B21276  21.577  16.515   5.985 -0.0096 -0.1101 -0.0866
69108POPC   C3B21277  21.564  16.794   6.386 -0.0842 -0.1197  0.2865
69108POPC   C4B21278  21.639  16.548   6.806 -0.1619 -0.1484  0.0498
69109POPC   NC321279  24.103   9.108   6.114  0.1089 -0.1525  0.1619
69109POPC   PO421280  24.433   9.320   5.962  0.2806 -0.0610  0.1174
69109POPC   GL121281  24.256   9.546   6.306  0.0120  0.1995  0.2989
69109POPC   GL221282  24.517   9.508   6.437  0.4330  0.0013  0.0023
69109POPC   C1A21283  23.888   9.404   6.572  0.0990 -0.0163 -0.1444
69109POPC   D2A21284  23.505   9.395   6.838  0.0188  0.1024 -0.2193
69109POPC   C3A21285  23.465   9.380   7.372 -0.2586  0.4268  0.2954
69109POPC   C4A21286  23.705   9.218   7.698 -0.1683 -0.0035  0.0929
69109POPC   C1B21287  24.247   9.527   6.892  0.2150  0.0799  0.2105
69109POPC   C2B21288  23.903   9.502   7.209  0.0331  0.3289 -0.0463
69109POPC   C3B21289  23.971   9.679   7.622 -0.1509  0.0631 -0.2751
69109POPC   C4B21290  24.309   9.702   7.917 -0.0113  0.1979 -0.1223
69110POPC   NC321291  24.900  15.989   5.342 -0.2657  0.1442 -0.0960
69110POPC   PO421292  25.021  16.399   5.448  0.0634 -0.0971  0.1040
69110POPC   GL121293  24.897  16.506   5.823 -0.0300 -0.3026  0.0372
69110POPC   GL221294  25.162  16.698   5.872  0.0434  0.0746 -0.2954
69110POPC   C1A21295  24.660  16.391   6.241 -0.0782 -0.0482 -0.1412
69110POPC   D2A21296  24.396  16.472   6.666 -0.4297 -0.0362  0.0311
69110POPC   C3A21297  24.466  16.803   6.953 -0.2807  0.1838  0.0859
69110POPC   C4A21298  24.458  17.042   7.408 -0.0597  0.0346  0.1264
69110POPC   C1B21299  25.137  16.952   6.274  0.2076 -0.2285 -0.0559
69110POPC   C2B21300  25.150  16.917   6.729  0.0515  0.0589 -0.1778
69110POPC   C3B21301  25.427  16.922   7.099 -0.1946  0.1951 -0.1465
69110POPC   C4B21302  25.779  16.991   7.410 -0.0353 -0.2301  0.1306
69111POPC   NC321303  22.216   9.298   4.994 -0.1674 -0.0462 -0.0120
69111POPC   PO421304  22.027   9.146   5.308  0.1529  0.0346  0.2596
69111POPC   GL121305  21.726   9.040   5.563 -0.3381 -0.3011 -0.1483
69111POPC   GL221306  21.574   9.299   5.583 -0.0371 -0.1398  0.0760
69111POPC   C1A21307  21.771   8.803   5.968  0.1253 -0.0215 -0.0338
69111POPC   D2A21308  22.072   8.827   6.343  0.1482 -0.0636  0.2072
69111POPC   C3A21309  21.951   8.691   6.729  0.0349  0.2195  0.0449
69111POPC   C4A21310  21.887   8.906   7.101  0.0009 -0.1745  0.1602
69111POPC   C1B21311  21.503   9.228   6.034  0.0825  0.2687  0.0348
69111POPC   C2B21312  21.646   9.049   6.481 -0.0995  0.1730 -0.1055
69111POPC   C3B21313  21.435   8.975   6.903 -0.0994 -0.2109  0.1766
69111POPC   C4B21314  21.260   8.911   7.321  0.0644  0.1730 -0.1049
69112POPC   NC321315  26.883  10.427   5.922  0.0105  0.0760 -0.1617
69112POPC   PO421316  27.286  10.525   5.887 -0.2127  0.2242 -0.2288
69112POPC   GL121317  27.268  10.600   6.259 -0.1000  0.0564  0.2265
69112POPC   GL221318  27.295  10.410   6.470  0.2044  0.1129  0.2462
69112POPC   C1A21319  27.463  10.845   6.595 -0.2557 -0.1859 -0.1952
69112POPC   D2A21320  27.779  11.020   6.917  0.1139  0.1456 -0.0111
69112POPC   C3A21321  27.588  11.151   7.262 -0.1543  0.0192 -0.1072
69112POPC   C4A21322  27.629  11.467   7.662  0.0652  0.3195  0.1280
69112POPC   C1B21323  27.221  10.470   6.904  0.3267  0.1922  0.3619
69112POPC   C2B21324  27.167  10.648   7.328  0.1611  0.0660  0.2569
69112POPC   C3B21325  27.221  10.996   7.589  0.1521  0.0492 -0.1021
69112POPC   C4B21326  27.173  11.452   7.776 -0.0909  0.2577  0.0825
69113POPC   NC321327  24.666   5.475  11.097  0.0441 -0.2704 -0.4805
69113POPC   PO421328  24.915   5.555  11.371 -0.1907 -0.1102  0.0102
69113POPC   GL121329  24.673   5.410  11.657  0.2897 -0.0516 -0.0704
69113POPC   GL221330  24.708   5.592  11.847  0.2802 -0.0992  0.0338
69113POPC   C1A21331  24.240   5.462  11.505  0.0745 -0.1543  0.0775
69113POPC   D2A21332  23.769   5.350  11.542 -0.3037  0.1694 -0.0955
69113POPC   C3A21333  23.376   5.331  11.253 -0.1267  0.0163 -0.3475
69113POPC   C4A21334  22.991   5.180  11.005 -0.1410 -0.0841 -0.1975
69113POPC   C1B21335  24.470   5.962  12.036 -0.4216 -0.0149  0.0402
69113POPC   C2B21336  24.173   6.057  12.371  0.2241 -0.0093 -0.5808
69113POPC   C3B21337  23.687   6.119  12.403  0.3475 -0.1399 -0.1573
69113POPC   C4B21338  23.218   6.301  12.287 -0.1026 -0.1669 -0.1019
69114POPC   NC321339  16.272  13.400   3.584  0.1814  0.3949 -0.0205
69114POPC   PO421340  16.136  13.685   3.813 -0.0533 -0.0907  0.1902
69114POPC   GL121341  16.109  13.609   4.301  0.0122  0.0647 -0.0183
69114POPC   GL221342  16.098  13.968   4.411 -0.2253 -0.1445 -0.0253
69114POPC   C1A21343  16.336  13.453   4.683 -0.2567  0.1493  0.0084
69114POPC   D2A21344  16.418  13.326   5.101 -0.0570 -0.1640  0.2076
69114POPC   C3A21345  16.278  13.413   5.578 -0.1804  0.1191 -0.5202
69114POPC   C4A21346  16.087  13.476   6.017  0.0508 -0.1590  0.0498
69114POPC   C1B21347  15.920  13.720   4.811  0.0750 -0.1637 -0.1836
69114POPC   C2B21348  16.055  13.777   5.329 -0.0815  0.0653  0.2550
69114POPC   C3B21349  15.752  13.646   5.677  0.0723  0.1408 -0.0257
69114POPC   C4B21350  15.633  13.620   6.112 -0.4275 -0.1467  0.0679
69115POPC   NC321351  27.340   1.771   5.840  0.1164 -0.0975 -0.1013
69115POPC   PO421352  27.129   2.099   5.706  0.1110 -0.0609 -0.2355
69115POPC   GL121353  27.158   2.148   6.088  0.2857  0.4359  0.3135
69115POPC   GL221354  27.424   2.200   6.122  0.0285 -0.1539 -0.1662
69115POPC   C1A21355  27.040   2.181   6.535 -0.1658  0.0604  0.0453
69115POPC   D2A21356  26.957   1.992   6.925  0.1560 -0.0271 -0.1827
69115POPC   C3A21357  27.241   1.759   7.156  0.0393 -0.0166 -0.1096
69115POPC   C4A21358  27.313   1.447   7.470  0.0880 -0.0322 -0.0879
69115POPC   C1B21359  27.521   2.113   6.571  0.0015 -0.0763 -0.1748
69115POPC   C2B21360  27.438   2.216   7.010 -0.0333 -0.1160  0.0256
69115POPC   C3B21361  27.442   2.133   7.431 -0.1011 -0.2431 -0.0929
69115POPC   C4B21362  27.266   1.981   7.827  0.0433  0.1778  0.0772
69116POPC   NC321363  21.652   3.154   5.440 -0.0629  0.1586 -0.1011
69116POPC   PO421364  21.319   3.304   5.530  0.0275 -0.2091 -0.0827
69116POPC   GL121365  21.052   3.356   5.785  0.3648 -0.1491  0.0991
69116POPC   GL221366  20.912   3.638   5.807 -0.3555  0.3313 -0.2725
69116POPC   C1A21367  20.754   3.261   6.076  0.4173  0.1389 -0.0793
69116POPC   D2A21368  20.502   3.048   6.421  0.1337 -0.3697 -0.0054
69116POPC   C3A21369  20.212   2.919   6.728  0.0088 -0.0188  0.2568
69116POPC   C4A21370  19.984   2.541   6.774  0.0087 -0.4606 -0.2322
69116POPC   C1B21371  21.143   3.684   6.236  0.0690 -0.0943 -0.0137
69116POPC   C2B21372  21.258   3.670   6.697  0.0139 -0.1891  0.2147
69116POPC   C3B21373  21.372   3.359   6.953 -0.0647 -0.1334  0.0385
69116POPC   C4B21374  21.661   3.122   7.184 -0.2361 -0.0126  0.1187
69117POPC   NC321375  22.465   7.020   6.343 -0.0025 -0.0139 -0.1586
69117POPC   PO421376  22.814   7.191   6.265 -0.4600 -0.2194  0.0164
69117POPC   GL121377  22.626   7.506   6.491 -0.2851  0.0919  0.4182
69117POPC   GL221378  22.604   7.384   6.722  0.2115 -0.1105  0.0488
69117POPC   C1A21379  22.265   7.733   6.716  0.0907  0.2434 -0.0543
69117POPC   D2A21380  21.979   7.765   7.115  0.1909  0.1128 -0.0260
69117POPC   C3A21381  22.000   7.889   7.584 -0.4162  0.2280  0.0487
69117POPC   C4A21382  21.826   8.107   7.986  0.1520 -0.0545 -0.2331
69117POPC   C1B21383  22.475   7.326   7.156  0.2020 -0.3134  0.0570
69117POPC   C2B21384  22.146   7.440   7.463  0.1700  0.0337  0.2481
69117POPC   C3B21385  21.706   7.406   7.425  0.3222  0.1686 -0.0551
69117POPC   C4B21386  21.275   7.534   7.591  0.0129 -0.0483 -0.0285
69118POPC   NC321387  30.758  15.874   3.648 -0.0861 -0.0903 -0.1577
69118POPC   PO421388  30.985  15.721   3.923  0.0724  0.1458 -0.0697
69118POPC   GL121389  30.912  15.598   4.270 -0.1552  0.0248 -0.1079
69118POPC   GL221390  31.185  15.524   4.410  0.0615 -0.1633  0.1745
69118POPC   C1A21391  30.790  15.901   4.622 -0.1995  0.0174  0.0994
69118POPC   D2A21392  31.027  16.122   4.964  0.2404 -0.3293 -0.0846
69118POPC   C3A21393  31.189  16.159   5.367 -0.0150  0.0978  0.1300
69118POPC   C4A21394  31.342  16.346   5.803  0.2459  0.0329  0.2148
69118POPC   C1B21395  31.116  15.600   4.901  0.0585  0.1209  0.2184
69118POPC   C2B21396  30.971  15.751   5.307  0.3954  0.1922  0.0108
69118POPC   C3B21397  31.070  15.888   5.736 -0.0146 -0.2476 -0.0264
69118POPC   C4B21398  31.198  15.980   6.221  0.0554  0.1164 -0.2035
69119POPC   NC321399  18.492  14.995   4.296  0.2315  0.0942  0.2608
69119POPC   PO421400  18.866  15.095   4.223 -0.1544 -0.2067  0.1077
69119POPC   GL121401  18.837  15.144   4.625 -0.2344  0.4039  0.0644
69119POPC   GL221402  18.777  14.865   4.698 -0.1404  0.1319 -0.1116
69119POPC   C1A21403  19.101  15.223   4.939 -0.1876  0.1798 -0.0726
69119POPC   D2A21404  19.287  15.348   5.387 -0.2351 -0.0871  0.1176
69119POPC   C3A21405  19.193  15.808   5.466 -0.0491 -0.2446 -0.1922
69119POPC   C4A21406  18.905  16.069   5.624 -0.0362 -0.0083 -0.1731
69119POPC   C1B21407  18.995  14.671   5.000 -0.2505 -0.3115  0.2140
69119POPC   C2B21408  19.096  14.916   5.359 -0.2687  0.1991 -0.0878
69119POPC   C3B21409  18.866  15.217   5.668  0.1250  0.0984 -0.2096
69119POPC   C4B21410  18.649  15.587   5.894  0.0791 -0.1273  0.2308
69120POPC   NC321411  29.389   7.698   7.024  0.0514  0.1428 -0.1663
69120POPC   PO421412  29.032   7.800   7.053  0.5103 -0.1709 -0.1250
69120POPC   GL121413  29.123   7.938   7.449  0.3858 -0.3075  0.2577
69120POPC   GL221414  29.009   8.176   7.526 -0.0478  0.0058  0.0567
69120POPC   C1A21415  29.519   7.930   7.624  0.0175 -0.0368  0.0658
69120POPC   D2A21416  29.854   7.721   7.907  0.1882 -0.0109 -0.1532
69120POPC   C3A21417  30.285   7.911   7.845  0.0197 -0.2751 -0.0437
69120POPC   C4A21418  30.591   7.869   8.172  0.2149  0.1341 -0.0225
69120POPC   C1B21419  29.142   8.510   7.765 -0.2559 -0.0417 -0.4598
69120POPC   C2B21420  29.351   8.820   8.004  0.0394 -0.0337  0.1200
69120POPC   C3B21421  29.375   9.115   8.338 -0.0538 -0.2174 -0.1406
69120POPC   C4B21422  29.497   9.473   8.659  0.0739  0.2117 -0.0416
69121POPC   NC321423  20.553   7.591   5.305 -0.2614  0.0071  0.0051
69121POPC   PO421424  20.255   7.585   5.034 -0.0171 -0.1205  0.4019
69121POPC   GL121425  20.077   7.527   5.436  0.0435 -0.3453 -0.1925
69121POPC   GL221426  19.783   7.619   5.310  0.0420  0.1620 -0.1302
69121POPC   C1A21427  20.092   7.790   5.859  0.1521  0.1260 -0.0675
69121POPC   D2A21428  20.062   7.774   6.357  0.3806  0.2091  0.4547
69121POPC   C3A21429  19.968   7.333   6.495 -0.2393  0.0273  0.1413
69121POPC   C4A21430  19.930   6.879   6.585 -0.1063 -0.2044 -0.6678
69121POPC   C1B21431  19.667   7.450   5.750 -0.1564  0.0154 -0.0463
69121POPC   C2B21432  19.650   7.562   6.204  0.0220  0.2048  0.3538
69121POPC   C3B21433  19.598   7.633   6.647 -0.1900  0.0021 -0.3508
69121POPC   C4B21434  19.433   7.639   7.066  0.3799 -0.3438  0.1439
69122POPC   NC321435  30.385  32.802   4.231 -0.0474  0.1086 -0.0138
69122POPC   PO421436  30.065  32.615   4.081  0.0096  0.1548 -0.0418
69122POPC   GL121437  29.968  32.545   4.562  0.0315  0.2061 -0.0419
69122POPC   GL221438  29.836  32.262   4.560 -0.3043  0.0169  0.2991
69122POPC   C1A21439  29.851  32.662   4.982  0.3269 -0.0548  0.1833
69122POPC   D2A21440  30.210  32.828   5.266  0.4435 -0.1902 -0.0500
69122POPC   C3A21441  30.162  33.036   5.697 -0.5524  0.0235  0.1435
69122POPC   C4A21442  29.995  33.123   6.091  0.2039 -0.4105  0.2004
69122POPC   C1B21443  29.836  32.176   5.013  0.0699 -0.1770  0.1829
69122POPC   C2B21444  29.993  32.317   5.367 -0.1009  0.1463 -0.4096
69122POPC   C3B21445  30.067  32.232   5.792  0.1311 -0.3271  0.2525
69122POPC   C4B21446  29.770  32.078   6.169  0.3507 -0.0373  0.0371
69123POPC   NC321447  24.287   4.829   7.731  0.0824  0.1286  0.1312
69123POPC   PO421448  24.429   4.500   7.921  0.0429  0.2354 -0.2062
69123POPC   GL121449  24.334   4.141   8.076  0.2382 -0.1881  0.3683
69123POPC   GL221450  24.605   4.057   8.122  0.0254 -0.0985  0.0494
69123POPC   C1A21451  24.177   3.888   8.414 -0.1725  0.0215 -0.4168
69123POPC   D2A21452  24.226   3.714   8.780 -0.4868  0.2037 -0.2376
69123POPC   C3A21453  24.046   3.726   9.234  0.2155  0.3124 -0.1058
69123POPC   C4A21454  24.051   3.717   9.722 -0.0487 -0.0258  0.1881
69123POPC   C1B21455  24.686   3.648   8.289 -0.2758 -0.0640  0.1124
69123POPC   C2B21456  24.583   3.346   8.640 -0.1650  0.1932  0.5729
69123POPC   C3B21457  24.487   2.982   8.801  0.0857  0.0361 -0.2914
69123POPC   C4B21458  24.441   2.517   8.708  0.0927 -0.0800 -0.0533
69124POPC   NC321459  27.457   9.955   6.053  0.1579 -0.2947 -0.1944
69124POPC   PO421460  27.343   9.710   6.361 -0.3462 -0.0160 -0.0860
69124POPC   GL121461  27.411   9.789   6.847  0.0681  0.0528  0.6240
69124POPC   GL221462  27.458  10.022   6.711 -0.0622  0.0402  0.1435
69124POPC   C1A21463  27.387  10.123   7.210  0.1994 -0.0143  0.0760
69124POPC   D2A21464  27.525  10.285   7.619 -0.2454 -0.1340  0.0494
69124POPC   C3A21465  27.203  10.413   7.902  0.2260  0.2744  0.5034
69124POPC   C4A21466  26.843  10.472   8.229  0.0426 -0.2427 -0.0156
69124POPC   C1B21467  27.801  10.060   6.996  0.2752 -0.1749 -0.2939
69124POPC   C2B21468  28.042  10.214   7.342 -0.1026 -0.2316 -0.1771
69124POPC   C3B21469  28.200  10.535   7.574  0.2101  0.4023  0.1000
69124POPC   C4B21470  28.537  10.824   7.656 -0.0564  0.2989  0.1012
69125POPC   NC321471  28.025  17.294   4.504  0.1462 -0.1957 -0.1659
69125POPC   PO421472  27.927  17.674   4.495  0.2319 -0.1015 -0.0183
69125POPC   GL121473  28.272  17.634   4.762 -0.0387 -0.1117  0.0180
69125POPC   GL221474  28.355  17.868   4.924  0.0975 -0.2497  0.1670
69125POPC   C1A21475  28.572  17.403   4.985  0.0574  0.2197 -0.0016
69125POPC   D2A21476  28.554  17.246   5.463 -0.4246 -0.3025 -0.0497
69125POPC   C3A21477  28.875  17.182   5.762  0.2597 -0.0908 -0.0095
69125POPC   C4A21478  29.141  17.075   6.086  0.0071  0.0036  0.1049
69125POPC   C1B21479  28.140  17.626   5.266 -0.1674 -0.3125  0.5689
69125POPC   C2B21480  28.101  17.365   5.642 -0.0461  0.0239 -0.0222
69125POPC   C3B21481  28.261  17.079   5.976 -0.4392  0.3010 -0.0738
69125POPC   C4B21482  28.144  16.743   6.266  0.1325 -0.1008  0.1245
69126POPC   NC321483  18.109  13.576   3.775 -0.0130  0.3180 -0.0715
69126POPC   PO421484  18.457  13.781   3.814 -0.1127 -0.2979  0.0156
69126POPC   GL121485  18.748  13.661   4.100 -0.3925 -0.1028  0.3806
69126POPC   GL221486  19.027  13.773   4.160  0.3130 -0.1970 -0.0601
69126POPC   C1A21487  18.721  13.473   4.545  0.4350 -0.1363 -0.0164
69126POPC   D2A21488  18.410  13.196   4.754 -0.0653  0.1624  0.0460
69126POPC   C3A21489  18.199  13.151   5.174  0.3967 -0.0989 -0.0161
69126POPC   C4A21490  18.371  13.362   5.626 -0.0711  0.0147 -0.2192
69126POPC   C1B21491  19.047  13.800   4.636  0.2342 -0.1533 -0.0950
69126POPC   C2B21492  18.872  13.798   5.057 -0.1107  0.2089  0.0116
69126POPC   C3B21493  18.681  13.865   5.499  0.2778 -0.0399  0.1917
69126POPC   C4B21494  18.728  14.029   5.967 -0.4410  0.1248 -0.0916
69127POPC   NC321495  17.970  10.250   4.830 -0.0673 -0.2074  0.1293
69127POPC   PO421496  18.315  10.031   4.788  0.1025 -0.1311  0.0769
69127POPC   GL121497  18.454   9.915   5.116 -0.2328  0.1439 -0.0696
69127POPC   GL221498  18.259   9.983   5.253 -0.4101 -0.2289 -0.3368
69127POPC   C1A21499  18.686   9.861   5.460  0.2622 -0.1801  0.2068
69127POPC   D2A21500  18.851   9.835   5.917  0.4312  0.1789  0.2558
69127POPC   C3A21501  18.921  10.120   6.323  0.2295 -0.4926  0.0779
69127POPC   C4A21502  18.734  10.299   6.650 -0.4193 -0.1412 -0.0649
69127POPC   C1B21503  18.274  10.281   5.604 -0.3321  0.2446 -0.1050
69127POPC   C2B21504  18.388  10.559   5.938 -0.4038  0.3258  0.0602
69127POPC   C3B21505  18.534  11.013   5.986  0.1035  0.2894 -0.3934
69127POPC   C4B21506  18.636  11.284   6.281  0.1213  0.1071 -0.3613
69128POPC   NC321507  27.534   5.517   7.506  0.2998  0.1085  0.0681
69128POPC   PO421508  27.268   5.422   7.761 -0.1164 -0.2650 -0.0196
69128POPC   GL121509  27.478   5.122   7.915 -0.0726  0.1327 -0.0633
69128POPC   GL221510  27.750   5.250   7.933 -0.0498  0.1999 -0.0471
69128POPC   C1A21511  27.529   4.780   8.244  0.2341 -0.1142  0.0149
69128POPC   D2A21512  27.885   4.665   8.450  0.0349 -0.3095 -0.0352
69128POPC   C3A21513  28.239   4.883   8.564 -0.0752 -0.1748  0.1429
69128POPC   C4A21514  28.557   5.208   8.622 -0.2340 -0.0401 -0.1160
69128POPC   C1B21515  27.950   4.913   8.007 -0.1097  0.0534 -0.1476
69128POPC   C2B21516  28.302   4.596   8.005 -0.1520 -0.0944  0.2932
69128POPC   C3B21517  28.676   4.360   8.130 -0.1267 -0.0185 -0.0483
69128POPC   C4B21518  28.878   4.192   8.543 -0.1758  0.1852  0.0647
69129POPC   NC321519  31.556  16.334   4.023 -0.2400 -0.1418  0.2013
69129POPC   PO421520  31.326  16.622   4.124 -0.0438 -0.1081 -0.1538
69129POPC   GL121521  31.137  16.387   4.368  0.1406 -0.2121  0.0278
69129POPC   GL221522  31.085  16.103   4.304 -0.2039  0.0682 -0.1643
69129POPC   C1A21523  30.767  16.474   4.652  0.0478  0.1069 -0.1865
69129POPC   D2A21524  30.545  16.464   5.049 -0.0960  0.0578 -0.0576
69129POPC   C3A21525  30.628  16.098   5.308  0.0551  0.1927 -0.1078
69129POPC   C4A21526  30.588  15.819   5.633 -0.1993  0.1609 -0.2613
69129POPC   C1B21527  31.343  15.969   4.653 -0.1473  0.0537  0.1567
69129POPC   C2B21528  31.541  15.911   5.042  0.1322  0.0703 -0.0452
69129POPC   C3B21529  31.638  15.863   5.511  0.1565  0.2801 -0.3334
69129POPC   C4B21530  31.613  15.977   5.972  0.0106  0.0562 -0.0069
69130POPC   NC321531  30.286  13.028   4.276  0.0012 -0.0708 -0.2948
69130POPC   PO421532  29.991  12.975   4.523 -0.2077 -0.0211 -0.2737
69130POPC   GL121533  29.972  12.915   4.966 -0.1221  0.0216  0.1229
69130POPC   GL221534  30.176  12.762   4.970  0.0694  0.2989 -0.2748
69130POPC   C1A21535  30.075  13.301   5.221  0.1117 -0.3879  0.0173
69130POPC   D2A21536  30.224  13.501   5.568  0.0415 -0.1561  0.0283
69130POPC   C3A21537  30.556  13.771   5.679  0.1623 -0.2807 -0.1175
69130POPC   C4A21538  30.921  13.894   5.845  0.3322  0.1460  0.0073
69130POPC   C1B21539  30.251  12.893   5.429 -0.3079 -0.0048  0.3720
69130POPC   C2B21540  30.273  13.045   5.886  0.0208  0.0096 -0.0421
69130POPC   C3B21541  30.220  13.215   6.318 -0.2596 -0.0599  0.0293
69130POPC   C4B21542  30.280  13.201   6.786  0.0457 -0.4005  0.0803
69131POPC   NC321543  24.472   6.651   8.077 -0.0694 -0.1475  0.2815
69131POPC   PO421544  24.250   6.881   7.838 -0.0489  0.3715 -0.1698
69131POPC   GL121545  24.010   7.163   8.088  0.3025  0.0849  0.5645
69131POPC   GL221546  23.918   7.284   7.820  0.1676 -0.2636  0.0790
69131POPC   C1A21547  23.609   7.152   8.305 -0.0134  0.0093  0.0092
69131POPC   D2A21548  23.308   7.127   8.649 -0.0926 -0.0172  0.3533
69131POPC   C3A21549  22.981   7.368   8.796 -0.2099 -0.1748 -0.1135
69131POPC   C4A21550  22.821   7.722   9.015  0.1261 -0.3856 -0.0334
69131POPC   C1B21551  23.733   7.674   7.988  0.0956  0.3591 -0.0833
69131POPC   C2B21552  23.491   7.910   8.324 -0.2336  0.2289  0.0792
69131POPC   C3B21553  23.420   8.310   8.530 -0.1872 -0.0044  0.0719
69131POPC   C4B21554  23.208   8.693   8.406 -0.2787  0.2226  0.1479
69132POPC   NC321555  16.780  31.384   4.351 -0.1086 -0.0493  0.0412
69132POPC   PO421556  16.536  31.705   4.305  0.0575  0.0911  0.2643
69132POPC   GL121557  16.557  31.739   4.624 -0.2027  0.2120 -0.0714
69132POPC   GL221558  16.865  31.731   4.776  0.0057 -0.1249 -0.0145
69132POPC   C1A21559  16.342  31.991   4.952 -0.0079 -0.0700  0.1405
69132POPC   D2A21560  16.200  32.316   5.257 -0.2219  0.2436  0.2998
69132POPC   C3A21561  16.319  32.409   5.671  0.1862  0.0886  0.1706
69132POPC   C4A21562  16.317  32.375   6.134  0.0008 -0.1086 -0.2474
69132POPC   C1B21563  16.986  32.075   5.009 -0.0566 -0.4155 -0.4710
69132POPC   C2B21564  17.156  32.007   5.482 -0.0117 -0.2122  0.0645
69132POPC   C3B21565  17.222  31.972   5.958 -0.1645  0.1358  0.0359
69132POPC   C4B21566  17.509  31.859   6.332  0.3162  0.0667 -0.1147
69133POPC   NC321567  26.639  13.076   5.349  0.0196  0.0017 -0.3516
69133POPC   PO421568  27.002  13.127   5.234 -0.4699 -0.0882 -0.3263
69133POPC   GL121569  27.117  13.194   5.668  0.1422  0.4926  0.0252
69133POPC   GL221570  26.961  12.977   5.782 -0.0424  0.3749  0.0302
69133POPC   C1A21571  26.842  13.455   5.906 -0.3284 -0.1627  0.1674
69133POPC   D2A21572  26.522  13.546   6.195  0.1371 -0.3968 -0.0213
69133POPC   C3A21573  26.710  13.521   6.599  0.0938 -0.1254  0.0115
69133POPC   C4A21574  26.742  13.335   7.016 -0.1109 -0.1861 -0.0913
69133POPC   C1B21575  27.222  13.080   6.180 -0.0869  0.1203 -0.0020
69133POPC   C2B21576  27.237  13.539   6.421  0.0523 -0.0474  0.0221
69133POPC   C3B21577  27.289  13.612   6.859  0.1336  0.0999 -0.0779
69133POPC   C4B21578  27.602  13.574   7.164  0.0748 -0.0756  0.4287
69134POPC   NC321579  32.431   2.946   4.294 -0.2290  0.0356 -0.2261
69134POPC   PO421580  32.404   2.710   4.544  0.2067 -0.2294  0.0487
69134POPC   GL121581  32.247   2.640   4.862  0.6383  0.3211 -0.1034
69134POPC   GL221582  32.443   2.446   5.019 -0.0169 -0.0900 -0.2283
69134POPC   C1A21583  32.199   2.996   5.152  0.1850  0.0711  0.1020
69134POPC   D2A21584  32.052   3.306   5.520 -0.0514 -0.1527  0.0081
69134POPC   C3A21585  32.343   3.319   5.864 -0.2990 -0.0786 -0.1307
69134POPC   C4A21586  32.661   3.221   6.167 -0.1639  0.0428  0.0583
69134POPC   C1B21587  32.318   2.640   5.413  0.0294  0.2170 -0.2273
69134POPC   C2B21588  31.932   2.644   5.760 -0.1316 -0.0358  0.2938
69134POPC   C3B21589  31.978   2.687   6.235 -0.3362  0.1911  0.1866
69134POPC   C4B21590  31.975   2.671   6.661  0.0697  0.2537  0.2572
69135POPC   NC321591  27.387  12.415   5.126 -0.0931  0.3568  0.1297
69135POPC   PO421592  27.255  12.218   5.408  0.4423  0.1127 -0.1677
69135POPC   GL121593  27.277  12.152   5.820 -0.3210  0.2967 -0.2468
69135POPC   GL221594  27.034  12.006   5.807  0.0020  0.0657  0.0271
69135POPC   C1A21595  27.049  12.329   6.180 -0.1117  0.0392 -0.0295
69135POPC   D2A21596  27.000  12.652   6.476  0.3102 -0.1979  0.0603
69135POPC   C3A21597  26.634  12.857   6.699  0.0453  0.1641  0.1308
69135POPC   C4A21598  26.362  13.233   6.685  0.1336  0.2955  0.0291
69135POPC   C1B21599  27.098  11.802   6.260 -0.2065 -0.4289  0.2471
69135POPC   C2B21600  27.222  11.784   6.712 -0.3741  0.1095  0.2196
69135POPC   C3B21601  27.544  11.986   6.947 -0.0650  0.0336 -0.1222
69135POPC   C4B21602  27.834  12.237   7.231 -0.0830 -0.0952  0.0663
69136POPC   NC321603  31.591   8.325   5.148  0.1145  0.2513  0.0493
69136POPC   PO421604  31.624   8.433   5.519  0.0326 -0.0823  0.1681
69136POPC   GL121605  31.803   8.297   5.824 -0.2293  0.1194 -0.1815
69136POPC   GL221606  32.145   8.360   5.651 -0.1051 -0.2029  0.1144
69136POPC   C1A21607  31.851   8.532   6.240  0.0296 -0.0358  0.0014
69136POPC   D2A21608  31.896   8.684   6.676  0.1175  0.2164 -0.3294
69136POPC   C3A21609  32.276   8.884   6.864  0.3494 -0.1851 -0.1168
69136POPC   C4A21610  32.350   9.237   7.173 -0.2003 -0.1474 -0.2389
69136POPC   C1B21611  32.249   8.722   5.880  0.0268  0.1405 -0.1126
69136POPC   C2B21612  32.171   8.987   6.239 -0.1235 -0.0549 -0.0287
69136POPC   C3B21613  32.374   9.233   6.558 -0.0552 -0.1445 -0.2158
69136POPC   C4B21614  32.365   9.614   6.844  0.1250 -0.0761  0.0176
69137POPC   NC321615  18.503   3.706   5.381  0.0584 -0.0447 -0.2627
69137POPC   PO421616  18.309   4.096   5.273 -0.3177 -0.2237 -0.0766
69137POPC   GL121617  18.428   4.253   5.608  0.0775 -0.0520 -0.1046
69137POPC   GL221618  18.545   4.034   5.807 -0.2360 -0.2802 -0.2113
69137POPC   C1A21619  18.060   4.257   5.842  0.0196  0.0779 -0.2930
69137POPC   D2A21620  17.942   4.291   6.286  0.1525  0.1939 -0.2584
69137POPC   C3A21621  17.668   4.500   6.614 -0.2744 -0.0858  0.0227
69137POPC   C4A21622  17.711   4.484   7.053 -0.2552 -0.2109  0.0636
69137POPC   C1B21623  18.436   4.018   6.257 -0.1867 -0.3844  0.0877
69137POPC   C2B21624  18.477   4.052   6.757  0.1807  0.2772  0.2852
69137POPC   C3B21625  18.533   3.689   7.081  0.3237  0.2906  0.0873
69137POPC   C4B21626  18.324   3.382   7.382 -0.3895  0.1266 -0.3849
69138POPC   NC321627  19.506   2.653   4.798  0.0581  0.1633  0.1690
69138POPC   PO421628  19.722   2.969   4.933 -0.0774 -0.0728 -0.2011
69138POPC   GL121629  19.467   2.764   5.243  0.2053 -0.1264  0.0802
69138POPC   GL221630  19.662   2.861   5.426  0.1461 -0.1622  0.0209
69138POPC   C1A21631  19.355   2.494   5.596  0.0637 -0.0513  0.1840
69138POPC   D2A21632  19.333   2.264   5.984  0.2436 -0.2160  0.3407
69138POPC   C3A21633  19.181   2.038   6.346  0.1112  0.2823 -0.2262
69138POPC   C4A21634  19.047   1.683   6.649 -0.2085  0.0467  0.1905
69138POPC   C1B21635  19.435   2.870   5.894  0.0274 -0.1274  0.0320
69138POPC   C2B21636  19.279   2.748   6.277  0.0199  0.4596 -0.0521
69138POPC   C3B21637  18.962   2.442   6.359  0.2516 -0.1194 -0.3840
69138POPC   C4B21638  18.776   2.165   6.633  0.2843  0.4267 -0.1047
69139POPC   NC321639  26.104   3.171   6.436 -0.2952  0.0088  0.3286
69139POPC   PO421640  26.408   3.310   6.184  0.0283  0.0569  0.0254
69139POPC   GL121641  26.569   3.049   6.565 -0.0199  0.0797  0.0825
69139POPC   GL221642  26.478   2.892   6.742 -0.3036 -0.0108 -0.3511
69139POPC   C1A21643  27.022   2.944   6.603 -0.2382  0.0681  0.0228
69139POPC   D2A21644  27.356   2.660   6.550 -0.0299  0.0580 -0.0810
69139POPC   C3A21645  27.746   2.564   6.835  0.0724  0.1526  0.0372
69139POPC   C4A21646  28.204   2.525   6.969 -0.0032  0.2634  0.1230
69139POPC   C1B21647  26.443   2.726   7.194  0.0259  0.1064 -0.4437
69139POPC   C2B21648  26.638   2.624   7.640 -0.0366  0.0613  0.0097
69139POPC   C3B21649  26.783   2.687   8.082 -0.0407 -0.2518  0.0476
69139POPC   C4B21650  26.616   3.018   8.385  0.0183  0.0292 -0.3577
69140POPC   NC321651  28.590   7.306   7.783 -0.1697 -0.1114 -0.0140
69140POPC   PO421652  28.189   7.295   7.785 -0.2832 -0.1124 -0.0230
69140POPC   GL121653  28.235   7.411   8.156 -0.1965 -0.0639 -0.0090
69140POPC   GL221654  28.111   7.474   8.470 -0.2307 -0.1115 -0.1257
69140POPC   C1A21655  28.636   7.435   8.430  0.0868 -0.0503  0.0243
69140POPC   D2A21656  29.030   7.304   8.368  0.1416 -0.0797 -0.0191
69140POPC   C3A21657  29.327   7.436   8.701 -0.2984 -0.1405 -0.0374
69140POPC   C4A21658  29.609   7.301   8.988 -0.0547  0.0466 -0.1386
69140POPC   C1B21659  28.391   7.405   8.840  0.0017  0.1390 -0.0895
69140POPC   C2B21660  28.597   7.101   9.102 -0.0012 -0.1515  0.1717
69140POPC   C3B21661  28.954   7.003   9.420 -0.1843  0.1566 -0.0432
69140POPC   C4B21662  29.095   7.113   9.849 -0.4325  0.1328  0.1418
69141POPC   NC321663  20.411   8.071   5.059  0.0727  0.1094 -0.2585
69141POPC   PO421664  20.430   8.466   4.942 -0.2222  0.2038  0.1094
69141POPC   GL121665  20.294   8.699   5.111  0.1784 -0.1180 -0.3417
69141POPC   GL221666  20.452   8.887   5.290 -0.0059 -0.0919 -0.2437
69141POPC   C1A21667  19.986   8.826   5.459 -0.0632 -0.0242 -0.1137
69141POPC   D2A21668  19.689   9.153   5.542  0.0693  0.2477  0.0481
69141POPC   C3A21669  19.486   9.297   5.920 -0.4044  0.1444  0.0102
69141POPC   C4A21670  19.225   9.322   6.315  0.0513 -0.1096  0.3449
69141POPC   C1B21671  20.395   8.768   5.724 -0.1707 -0.2949  0.0469
69141POPC   C2B21672  20.468   9.022   6.093 -0.0736 -0.1239  0.4184
69141POPC   C3B21673  20.217   9.029   6.495  0.1315 -0.0160 -0.1933
69141POPC   C4B21674  19.916   9.050   6.866  0.3067 -0.2022  0.2113
69142POPC   NC321675  27.060   6.435  11.301 -0.0989  0.1896 -0.0806
69142POPC   PO421676  26.787   6.583  11.567  0.0549  0.0571 -0.0426
69142POPC   GL121677  26.902   6.985  11.629 -0.1231 -0.1801 -0.0703
69142POPC   GL221678  26.656   7.127  11.633 -0.0243 -0.0566  0.0520
69142POPC   C1A21679  27.244   7.245  11.505 -0.0406  0.1583  0.0404
69142POPC   D2A21680  27.574   7.584  11.381  0.1024  0.3142 -0.1833
69142POPC   C3A21681  28.005   7.617  11.504 -0.0202 -0.0793 -0.1067
69142POPC   C4A21682  28.410   7.643  11.535 -0.1592  0.0194 -0.1561
69142POPC   C1B21683  26.543   7.592  11.589 -0.1120 -0.1732  0.2816
69142POPC   C2B21684  26.444   8.026  11.521 -0.1157  0.2331 -0.1974
69142POPC   C3B21685  26.377   8.445  11.695  0.2424  0.0183  0.0189
69142POPC   C4B21686  26.544   8.817  11.652 -0.0036  0.2091 -0.2548
69143POPC   NC321687  17.520   6.815   4.905  0.2761 -0.0174  0.1606
69143POPC   PO421688  17.782   6.588   5.058  0.0056 -0.0319 -0.2178
69143POPC   GL121689  17.677   6.749   5.396 -0.3900  0.3256  0.1865
69143POPC   GL221690  17.357   6.725   5.364  0.0662  0.1966 -0.1223
69143POPC   C1A21691  17.874   6.735   5.836  0.0371  0.4228  0.1121
69143POPC   D2A21692  18.127   6.402   5.980  0.0031  0.1045 -0.0584
69143POPC   C3A21693  18.453   6.161   6.316  0.2514 -0.1752  0.2607
69143POPC   C4A21694  18.507   6.090   6.773  0.1505  0.0691 -0.4045
69143POPC   C1B21695  17.305   6.953   5.767 -0.0097 -0.1050  0.0362
69143POPC   C2B21696  17.482   7.227   6.070 -0.0730 -0.1549 -0.2559
69143POPC   C3B21697  17.414   7.454   6.518 -0.4750 -0.0804 -0.1063
69143POPC   C4B21698  17.696   7.462   6.898  0.0808 -0.3034  0.0906
69144POPC   NC321699  19.925  16.733   4.436  0.1316  0.0208  0.2447
69144POPC   PO421700  20.192  16.443   4.511 -0.1431 -0.0705 -0.0222
69144POPC   GL121701  20.189  16.142   4.769 -0.0695  0.1678 -0.0858
69144POPC   GL221702  20.455  16.226   4.930 -0.2829 -0.1411  0.0578
69144POPC   C1A21703  19.892  16.044   5.094 -0.0381 -0.3078  0.2162
69144POPC   D2A21704  19.728  16.133   5.531 -0.0175 -0.2028  0.0909
69144POPC   C3A21705  19.349  16.336   5.618 -0.0344  0.0064 -0.0354
69144POPC   C4A21706  19.295  16.651   6.010  0.0816 -0.0410 -0.3671
69144POPC   C1B21707  20.315  16.003   5.327 -0.3010  0.1357  0.2129
69144POPC   C2B21708  20.163  15.830   5.765  0.2166 -0.1227  0.0062
69144POPC   C3B21709  20.304  15.797   6.192  0.0845  0.1572 -0.0385
69144POPC   C4B21710  20.309  15.896   6.610 -0.0165  0.1230 -0.2443
69145POPC   NC321711  21.437   1.211   4.754  0.1424 -0.0598 -0.0465
69145POPC   PO421712  21.489   1.566   4.847  0.0849 -0.5458 -0.0594
69145POPC   GL121713  21.545   1.459   5.249 -0.0321  0.0237 -0.4482
69145POPC   GL221714  21.677   1.186   5.226 -0.1999  0.0927  0.1555
69145POPC   C1A21715  21.438   1.656   5.619  0.0252 -0.2675  0.5539
69145POPC   D2A21716  21.506   1.966   5.926 -0.3612  0.3101  0.0324
69145POPC   C3A21717  21.474   1.945   6.379  0.2063 -0.0283  0.0531
69145POPC   C4A21718  21.571   1.969   6.848 -0.0233 -0.0420  0.1750
69145POPC   C1B21719  21.680   1.210   5.731  0.1015  0.0079  0.2784
69145POPC   C2B21720  21.545   1.467   6.125 -0.1538  0.0312  0.1569
69145POPC   C3B21721  21.396   1.472   6.564  0.0031  0.2019 -0.3197
69145POPC   C4B21722  21.500   1.444   7.032  0.1983  0.0939 -0.2658
69146POPC   NC321723  30.211  13.876   4.738  0.1503  0.1285  0.0538
69146POPC   PO421724  30.314  13.575   4.504  0.0325  0.1163 -0.0628
69146POPC   GL121725  30.359  13.298   4.804  0.4897 -0.1966 -0.0113
69146POPC   GL221726  30.547  13.065   4.826  0.2690 -0.2486 -0.0807
69146POPC   C1A21727  30.568  13.262   5.256  0.2649 -0.0987 -0.1004
69146POPC   D2A21728  30.704  13.313   5.683  0.1071  0.0563  0.2067
69146POPC   C3A21729  30.633  13.460   6.100  0.1313  0.3525  0.0795
69146POPC   C4A21730  30.430  13.617   6.539 -0.4200  0.0151 -0.1706
69146POPC   C1B21731  30.661  12.798   5.136  0.2413 -0.0101  0.0933
69146POPC   C2B21732  30.695  12.717   5.599 -0.1283  0.2598  0.4818
69146POPC   C3B21733  30.669  12.678   6.091  0.0792  0.2308 -0.0890
69146POPC   C4B21734  30.696  12.728   6.525 -0.2012  0.1105  0.1349
69147POPC   NC321735  16.778   7.899   4.885  0.2263 -0.0419  0.4874
69147POPC   PO421736  17.146   8.075   4.809  0.2405 -0.1701 -0.1920
69147POPC   GL121737  17.090   7.950   5.187  0.1974  0.0740 -0.0002
69147POPC   GL221738  16.915   7.704   5.333 -0.0852 -0.2639 -0.2497
69147POPC   C1A21739  17.371   8.003   5.544 -0.1300  0.3204 -0.0119
69147POPC   D2A21740  17.320   8.323   5.889  0.0423  0.0369  0.1090
69147POPC   C3A21741  16.988   8.378   6.115 -0.3185  0.1409  0.0105
69147POPC   C4A21742  16.835   8.415   6.568 -0.0563 -0.2776 -0.1758
69147POPC   C1B21743  16.951   7.763   5.749  0.1872  0.0507  0.1769
69147POPC   C2B21744  17.255   7.747   6.110 -0.0933 -0.0400 -0.0284
69147POPC   C3B21745  17.678   7.800   6.291  0.1626  0.1412 -0.1380
69147POPC   C4B21746  18.005   7.744   6.615  0.0867 -0.1435  0.0360
69148POPC   NC321747  24.476  14.458   5.034  0.1168 -0.0124  0.5052
69148POPC   PO421748  24.711  14.154   4.898 -0.2010  0.2329 -0.0454
69148POPC   GL121749  24.503  13.960   5.236 -0.2439 -0.2284  0.2036
69148POPC   GL221750  24.317  14.123   5.434 -0.0915 -0.2691  0.1971
69148POPC   C1A21751  24.657  13.840   5.703 -0.1372 -0.0812 -0.2212
69148POPC   D2A21752  24.672  13.611   6.089  0.1484 -0.1068  0.2112
69148POPC   C3A21753  25.041  13.762   6.370 -0.0009  0.2463  0.1441
69148POPC   C4A21754  25.038  13.735   6.773 -0.3739  0.0085  0.2716
69148POPC   C1B21755  24.747  14.333   5.509  0.1091  0.0623 -0.1709
69148POPC   C2B21756  24.915  14.633   5.837  0.1392  0.1762 -0.0207
69148POPC   C3B21757  25.004  14.578   6.291 -0.3224  0.0194  0.0926
69148POPC   C4B21758  25.241  14.482   6.627 -0.1054  0.0731  0.0440
69149POPC   NC321759  24.052   6.868   6.552 -0.3834  0.0510  0.0622
69149POPC   PO421760  24.024   7.072   6.897  0.1461 -0.0469 -0.0078
69149POPC   GL121761  23.705   7.097   7.107  0.2070  0.0108 -0.0779
69149POPC   GL221762  23.487   7.378   7.134 -0.1939  0.4464  0.0202
69149POPC   C1A21763  23.293   6.939   7.185 -0.0835 -0.1086 -0.4128
69149POPC   D2A21764  22.919   6.861   7.367  0.0080  0.2091  0.3153
69149POPC   C3A21765  22.520   7.022   7.531 -0.1577  0.1062 -0.1075
69149POPC   C4A21766  22.221   7.163   7.886 -0.1672  0.1769  0.1678
69149POPC   C1B21767  23.426   7.694   7.502 -0.0213 -0.1180  0.1172
69149POPC   C2B21768  23.314   7.985   7.791 -0.2019 -0.3121  0.0976
69149POPC   C3B21769  23.200   8.300   8.086  0.1050 -0.3052  0.3214
69149POPC   C4B21770  22.893   8.665   7.949  0.0570 -0.0235 -0.4940
69150POPC   NC321771  26.113   4.726   9.704 -0.0050  0.1155  0.3200
69150POPC   PO421772  26.464   4.898   9.757 -0.2572  0.0481  0.2914
69150POPC   GL121773  26.631   4.533   9.900 -0.1381  0.0608  0.0434
69150POPC   GL221774  26.482   4.400  10.137  0.0253 -0.0622 -0.0314
69150POPC   C1A21775  27.100   4.431   9.922  0.2152 -0.2404  0.2465
69150POPC   D2A21776  27.474   4.341  10.157  0.0714 -0.1068 -0.2994
69150POPC   C3A21777  27.876   4.119  10.088 -0.3547  0.0890  0.0342
69150POPC   C4A21778  28.150   3.846  10.315 -0.1687 -0.2606 -0.0488
69150POPC   C1B21779  26.614   4.032  10.359  0.1502 -0.1111 -0.2514
69150POPC   C2B21780  26.620   3.797  10.726  0.1338  0.1237 -0.3166
69150POPC   C3B21781  26.274   3.745  11.037  0.2090 -0.3415  0.3587
69150POPC   C4B21782  25.925   4.036  11.056 -0.1079  0.0178  0.1639
69151POPC   NC321783  26.729   2.921   6.121 -0.0085  0.2092 -0.1955
69151POPC   PO421784  26.362   2.792   6.218 -0.1094 -0.0850 -0.2329
69151POPC   GL121785  26.612   2.529   6.449  0.0320  0.1677  0.2024
69151POPC   GL221786  26.409   2.404   6.642 -0.0315 -0.1275  0.1847
69151POPC   C1A21787  26.814   2.551   6.897  0.0232  0.2254  0.1297
69151POPC   D2A21788  27.063   2.404   7.234 -0.1517 -0.2437  0.1087
69151POPC   C3A21789  26.806   2.064   7.408 -0.1127 -0.0196 -0.0989
69151POPC   C4A21790  26.787   1.719   7.727 -0.2261  0.2242 -0.0396
69151POPC   C1B21791  26.477   2.245   7.071  0.0832 -0.3131  0.1495
69151POPC   C2B21792  26.215   2.149   7.472 -0.0820  0.1101 -0.2433
69151POPC   C3B21793  25.990   2.037   7.839 -0.2246  0.0942 -0.3169
69151POPC   C4B21794  25.961   2.083   8.287 -0.1705  0.5243 -0.1274
69152POPC   NC321795  20.501  13.603   4.218  0.2222 -0.1101  0.0700
69152POPC   PO421796  20.655  13.935   4.110 -0.0398 -0.1571 -0.4455
69152POPC   GL121797  20.679  13.974   4.495 -0.1668 -0.6313 -0.1513
69152POPC   GL221798  20.623  14.109   4.770  0.0870  0.0653 -0.2313
69152POPC   C1A21799  20.522  13.578   4.725 -0.0534 -0.0029 -0.0332
69152POPC   D2A21800  20.166  13.354   4.951 -0.4554  0.3760 -0.0424
69152POPC   C3A21801  19.680  13.263   4.951 -0.0749 -0.1123 -0.1242
69152POPC   C4A21802  19.346  13.172   5.280 -0.0538  0.0691  0.2130
69152POPC   C1B21803  20.608  13.864   5.136 -0.0468  0.1719 -0.0144
69152POPC   C2B21804  20.297  13.633   5.388 -0.0404 -0.0983  0.0049
69152POPC   C3B21805  19.821  13.420   5.391 -0.3460  0.1674 -0.0437
69152POPC   C4B21806  19.576  13.350   5.763 -0.0319  0.5013  0.1589
69153POPC   NC321807   0.942  13.296   3.753  0.1266 -0.2567 -0.0067
69153POPC   PO421808   0.885  13.424   4.117 -0.0264 -0.2106 -0.1701
69153POPC   GL121809   0.731  13.687   4.359 -0.0541  0.1653  0.0687
69153POPC   GL221810   0.799  14.070   4.380  0.2470  0.0599 -0.1584
69153POPC   C1A21811   0.344  13.774   4.576 -0.1786  0.2558  0.0884
69153POPC   D2A21812   0.111  13.366   4.697 -0.0758 -0.1213 -0.4563
69153POPC   C3A21813   0.020  13.401   5.166  0.2040  0.1048 -0.0238
69153POPC   C4A21814  -0.038  13.518   5.636 -0.0077  0.1848  0.0695
69153POPC   C1B21815   0.881  13.774   4.777  0.1062 -0.0608  0.0098
69153POPC   C2B21816   0.907  13.635   5.265  0.1038 -0.2297  0.0507
69153POPC   C3B21817   1.014  13.691   5.720  0.0705  0.0070  0.0591
69153POPC   C4B21818   0.985  13.753   6.163 -0.3816  0.1148 -0.1283
69154POPC   NC321819  20.092   2.724   5.136  0.1752  0.1798 -0.2905
69154POPC   PO421820  20.391   2.927   5.304 -0.1220 -0.1022  0.0938
69154POPC   GL121821  20.239   2.673   5.635 -0.3941  0.3096  0.1682
69154POPC   GL221822  20.233   2.375   5.526  0.0171 -0.1839  0.4766
69154POPC   C1A21823  20.230   2.598   6.074 -0.1699 -0.0329  0.1301
69154POPC   D2A21824  20.462   2.533   6.456  0.5327 -0.1443 -0.2244
69154POPC   C3A21825  20.390   2.244   6.814  0.2192 -0.0130  0.1254
69154POPC   C4A21826  20.307   2.116   7.213  0.1958 -0.2464 -0.2783
69154POPC   C1B21827  20.188   2.153   5.879  0.0437 -0.2631 -0.1562
69154POPC   C2B21828  20.117   2.137   6.348 -0.0948  0.3212  0.1648
69154POPC   C3B21829  19.811   2.005   6.670 -0.1300 -0.2961 -0.3072
69154POPC   C4B21830  19.731   2.294   7.105 -0.0598  0.2454  0.1565
69155POPC   NC321831  22.822   4.314   6.355  0.0240 -0.2943  0.0352
69155POPC   PO421832  23.122   4.168   6.567 -0.2612  0.1265  0.2087
69155POPC   GL121833  22.849   4.019   6.716 -0.1874 -0.4071  0.4055
69155POPC   GL221834  22.678   3.786   6.616 -0.0529 -0.2949  0.1687
69155POPC   C1A21835  22.549   4.319   6.894 -0.0893  0.0957 -0.0520
69155POPC   D2A21836  22.436   4.638   7.299 -0.0688 -0.1446  0.0809
69155POPC   C3A21837  22.274   4.478   7.686  0.0444 -0.0773  0.4012
69155POPC   C4A21838  22.002   4.667   8.002  0.3038 -0.1150 -0.1597
69155POPC   C1B21839  22.426   3.618   7.024  0.4093  0.1792  0.2337
69155POPC   C2B21840  22.357   3.340   7.407  0.2340 -0.1469  0.0594
69155POPC   C3B21841  22.249   3.148   7.820  0.0306  0.1468  0.2834
69155POPC   C4B21842  22.585   3.264   8.131 -0.0245 -0.5665 -0.0788
69156POPC   NC321843  28.739   4.665   6.577  0.1712 -0.1032 -0.0251
69156POPC   PO421844  28.631   4.381   6.314  0.0339  0.1435  0.2062
69156POPC   GL121845  28.870   4.193   6.597 -0.1347 -0.0921  0.0067
69156POPC   GL221846  28.654   3.957   6.758 -0.0796 -0.0721  0.0392
69156POPC   C1A21847  29.184   4.447   6.772 -0.1694 -0.2695  0.4638
69156POPC   D2A21848  29.428   4.405   7.179 -0.0646  0.4544 -0.2714
69156POPC   C3A21849  29.620   4.069   7.490  0.2319 -0.2376 -0.0312
69156POPC   C4A21850  29.768   4.004   7.940  0.1731  0.1496 -0.0691
69156POPC   C1B21851  28.702   3.650   7.064 -0.2732  0.2819 -0.3520
69156POPC   C2B21852  28.810   3.451   7.420  0.0486 -0.0806  0.3318
69156POPC   C3B21853  28.817   3.296   7.902 -0.1399  0.1487 -0.1993
69156POPC   C4B21854  29.014   3.365   8.295  0.1733 -0.3116  0.0588
69157POPC   NC321855  27.981  10.965   5.806 -0.1601  0.0871 -0.1039
69157POPC   PO421856  28.298  10.745   5.733  0.0612 -0.0158 -0.0053
69157POPC   GL121857  28.419  10.782   6.078 -0.1500 -0.1365 -0.3686
69157POPC   GL221858  28.603  10.599   6.227  0.2206 -0.3976  0.0563
69157POPC   C1A21859  28.770  11.056   6.181  0.0461  0.1027  0.4545
69157POPC   D2A21860  29.086  11.188   6.504 -0.1678  0.2125  0.1409
69157POPC   C3A21861  28.955  11.387   6.927  0.0587 -0.2984  0.0914
69157POPC   C4A21862  29.082  11.435   7.341  0.1990  0.2702  0.1223
69157POPC   C1B21863  28.651  10.702   6.656  0.2455  0.0532 -0.2352
69157POPC   C2B21864  28.995  10.810   6.945 -0.1759 -0.1525 -0.0859
69157POPC   C3B21865  29.355  11.088   7.073  0.0859 -0.2726  0.1201
69157POPC   C4B21866  29.430  11.491   6.788 -0.0536  0.1326 -0.2844
69158POPC   NC321867  26.956   9.443   6.589  0.1711  0.0550  0.1764
69158POPC   PO421868  26.674   9.487   6.828  0.2105 -0.0579  0.4096
69158POPC   GL121869  26.833   9.748   7.099  0.1174  0.5149  0.1302
69158POPC   GL221870  27.105   9.751   7.113  0.0374 -0.0804 -0.3351
69158POPC   C1A21871  26.845  10.221   7.243 -0.1238  0.0360 -0.0132
69158POPC   D2A21872  26.662  10.524   7.524 -0.1284 -0.2917 -0.3503
69158POPC   C3A21873  26.872  10.790   7.835 -0.1508 -0.1003 -0.2570
69158POPC   C4A21874  27.046  10.930   8.171  0.2849  0.0321 -0.0550
69158POPC   C1B21875  27.243   9.837   7.591  0.1518 -0.0857  0.6091
69158POPC   C2B21876  27.396   9.871   7.994  0.1190 -0.0464  0.4167
69158POPC   C3B21877  27.641  10.195   8.095 -0.3372 -0.1676 -0.0549
69158POPC   C4B21878  27.981  10.515   8.027  0.3099 -0.1807  0.0697
69159POPC   NC321879  24.051  16.116   5.341  0.0408 -0.2216 -0.0519
69159POPC   PO421880  24.348  15.896   5.292 -0.1634 -0.1120  0.4969
69159POPC   GL121881  24.201  15.824   5.686 -0.2785  0.1218  0.2395
69159POPC   GL221882  23.900  15.832   5.747  0.1313  0.1251 -0.4051
69159POPC   C1A21883  24.378  15.807   6.152  0.1186 -0.2722  0.1286
69159POPC   D2A21884  24.647  15.532   6.414  0.2555 -0.0802  0.0044
69159POPC   C3A21885  24.577  15.338   6.826 -0.2726 -0.0420  0.1479
69159POPC   C4A21886  24.435  15.457   7.257  0.1396 -0.5014  0.2616
69159POPC   C1B21887  23.894  15.729   6.192  0.0912  0.0267  0.1246
69159POPC   C2B21888  24.048  16.020   6.503 -0.1223  0.0017 -0.1493
69159POPC   C3B21889  23.955  16.312   6.874  0.1923 -0.2401  0.0625
69159POPC   C4B21890  23.635  16.525   7.036 -0.0475  0.3121 -0.3170
69160POPC   NC321891  25.319   6.807  12.062  0.0553  0.3281 -0.0558
69160POPC   PO421892  25.546   6.712  11.722 -0.2559  0.2871  0.2981
69160POPC   GL121893  25.278   6.995  11.498  0.0885  0.2005  0.0803
69160POPC   GL221894  25.506   7.112  11.422  0.4743  0.2826 -0.1978
69160POPC   C1A21895  24.934   7.225  11.676  0.1109 -0.0051 -0.2792
69160POPC   D2A21896  24.623   7.450  11.927 -0.1059 -0.0373 -0.0289
69160POPC   C3A21897  24.158   7.575  11.749 -0.2229 -0.0856  0.2526
69160POPC   C4A21898  23.977   7.992  11.755 -0.0450  0.0927 -0.1445
69160POPC   C1B21899  25.434   7.493  11.693  0.3876 -0.0990 -0.1167
69160POPC   C2B21900  25.143   7.906  11.745  0.4016 -0.0105 -0.0101
69160POPC   C3B21901  25.280   8.242  12.003 -0.3536  0.0713 -0.2608
69160POPC   C4B21902  25.540   8.212  12.400 -0.2021  0.0770 -0.1309
69161POPC   NC321903  25.870  13.194   4.905  0.0564  0.0512  0.1164
69161POPC   PO421904  25.583  13.034   4.954  0.3916  0.0267  0.1384
69161POPC   GL121905  25.593  13.134   5.257  0.0943  0.1548  0.0142
69161POPC   GL221906  25.744  13.351   5.384 -0.0209 -0.0539  0.2337
69161POPC   C1A21907  25.258  13.286   5.488  0.1662  0.3581  0.2985
69161POPC   D2A21908  25.114  13.571   5.808 -0.1665 -0.1689  0.2687
69161POPC   C3A21909  25.455  13.917   5.994  0.1476  0.1670 -0.0413
69161POPC   C4A21910  25.543  14.360   6.166  0.3635 -0.0382 -0.1131
69161POPC   C1B21911  25.605  13.476   5.839 -0.2028  0.0322  0.2848
69161POPC   C2B21912  25.446  13.484   6.286 -0.1836 -0.1572  0.0877
69161POPC   C3B21913  25.490  13.580   6.733 -0.0531 -0.1506  0.0565
69161POPC   C4B21914  25.495  13.336   7.090  0.0145  0.2268  0.0986
69162POPC   NC321915  26.379  10.651   6.409 -0.1341 -0.0594 -0.0393
69162POPC   PO421916  26.207  10.657   6.033 -0.0130 -0.0825  0.3953
69162POPC   GL121917  26.077  11.015   6.217 -0.2658  0.0035 -0.4038
69162POPC   GL221918  25.829  11.010   6.201  0.0498  0.2580 -0.0892
69162POPC   C1A21919  26.157  11.345   6.478  0.3812  0.0084  0.0598
69162POPC   D2A21920  26.080  11.667   6.738  0.1821 -0.2302  0.2454
69162POPC   C3A21921  26.211  11.683   7.239 -0.1059  0.0988 -0.0134
69162POPC   C4A21922  26.502  11.814   7.601  0.1193  0.0139  0.1731
69162POPC   C1B21923  26.006  10.920   6.658  0.1842  0.1301 -0.0827
69162POPC   C2B21924  25.906  11.262   6.971  0.2160  0.1771  0.2801
69162POPC   C3B21925  26.089  11.234   7.429  0.3564 -0.0980  0.4402
69162POPC   C4B21926  26.177  11.207   7.868  0.1253  0.3313  0.0441
69163POPC   NC321927  29.541   7.910   6.597 -0.0387  0.2473 -0.0473
69163POPC   PO421928  29.749   7.735   6.318  0.0434 -0.1582  0.0795
69163POPC   GL121929  29.879   7.501   6.730  0.0146  0.1469 -0.1306
69163POPC   GL221930  29.881   7.681   6.903  0.1155 -0.0056  0.1821
69163POPC   C1A21931  30.252   7.313   7.044 -0.0411  0.2348 -0.1553
69163POPC   D2A21932  30.579   7.060   7.267  0.1151 -0.4395  0.0668
69163POPC   C3A21933  30.560   7.031   7.736 -0.4892 -0.0736 -0.1456
69163POPC   C4A21934  30.660   6.774   8.098 -0.1257 -0.1360  0.1034
69163POPC   C1B21935  30.275   7.809   6.960 -0.2644 -0.1855  0.1057
69163POPC   C2B21936  30.635   8.083   6.918  0.2936 -0.1547  0.5927
69163POPC   C3B21937  30.907   8.223   7.205 -0.1419 -0.1155  0.2742
69163POPC   C4B21938  31.133   8.234   7.617  0.2137  0.0360  0.2698
69164POPC   NC321939  18.471   2.044   4.571 -0.2840 -0.1051  0.2502
69164POPC   PO421940  18.698   2.333   4.694  0.0488 -0.0078  0.1219
69164POPC   GL121941  18.539   2.055   5.069 -0.3613  0.3546  0.0846
69164POPC   GL221942  18.735   2.212   5.190 -0.0726  0.0449 -0.4069
69164POPC   C1A21943  18.277   1.710   5.056  0.0709  0.1422 -0.0749
69164POPC   D2A21944  18.286   1.482   5.461 -0.0680  0.0881 -0.4495
69164POPC   C3A21945  18.188   1.108   5.774 -0.0603  0.0051 -0.1003
69164POPC   C4A21946  18.324   0.790   6.060 -0.1834  0.0223  0.1087
69164POPC   C1B21947  18.842   2.074   5.611 -0.3637 -0.0590 -0.1090
69164POPC   C2B21948  18.794   1.856   5.992  0.2665  0.0195 -0.4712
69164POPC   C3B21949  18.495   1.698   6.332  0.0481 -0.0844  0.2524
69164POPC   C4B21950  18.527   1.594   6.775  0.5318  0.4095 -0.0996
69165POPC   NC321951  32.192  16.620   4.637 -0.0195  0.1743  0.0385
69165POPC   PO421952  32.337  16.400   4.365  0.2240  0.2440 -0.1178
69165POPC   GL121953  32.377  16.171   4.655  0.2031  0.0837 -0.3358
69165POPC   GL221954  32.515  16.280   4.874 -0.0574 -0.2126  0.0937
69165POPC   C1A21955  32.276  15.758   4.826  0.0773 -0.1189  0.1127
69165POPC   D2A21956  32.185  15.317   5.031 -0.1168 -0.0892 -0.0360
69165POPC   C3A21957  32.046  15.379   5.482 -0.1707 -0.4222 -0.1063
69165POPC   C4A21958  32.065  15.322   5.958  0.3255  0.0320  0.0717
69165POPC   C1B21959  32.355  16.338   5.332 -0.6016  0.1784  0.2576
69165POPC   C2B21960  31.998  16.352   5.635  0.0552  0.0269  0.3589
69165POPC   C3B21961  31.923  16.346   6.027  0.1345 -0.0380 -0.0721
69165POPC   C4B21962  31.892  16.245   6.495 -0.0601  0.0987  0.3347
69166POPC   NC321963  19.335  15.846   4.313  0.3640  0.0304  0.0382
69166POPC   PO421964  19.643  15.618   4.189 -0.1440 -0.0714  0.1674
69166POPC   GL121965  19.605  15.546   4.577 -0.1793  0.1962  0.3402
69166POPC   GL221966  19.702  15.258   4.546  0.1078  0.0278  0.2882
69166POPC   C1A21967  20.041  15.609   4.755  0.0581  0.0648  0.1749
69166POPC   D2A21968  20.443  15.716   4.972  0.3823  0.2032  0.1427
69166POPC   C3A21969  20.384  15.536   5.378  0.0678  0.0554 -0.1114
69166POPC   C4A21970  20.666  15.315   5.666  0.0271 -0.1035  0.0734
69166POPC   C1B21971  19.663  15.380   4.980  0.1155  0.3006 -0.0420
69166POPC   C2B21972  19.852  15.635   5.355  0.2275 -0.1236  0.0317
69166POPC   C3B21973  19.630  15.642   5.761  0.1679 -0.2057 -0.0683
69166POPC   C4B21974  19.183  15.611   5.946 -0.2726  0.0090 -0.1163
69167POPC   NC321975  25.890   7.540   8.535  0.2724 -0.2673  0.3469
69167POPC   PO421976  26.299   7.642   8.423 -0.0929 -0.3418 -0.1028
69167POPC   GL121977  26.201   7.922   8.618 -0.0175  0.5781 -0.2133
69167POPC   GL221978  26.098   8.161   8.441 -0.2558  0.2362 -0.2466
69167POPC   C1A21979  26.257   8.214   8.989 -0.1832 -0.0498 -0.0512
69167POPC   D2A21980  26.341   8.168   9.431  0.2137  0.0157 -0.1066
69167POPC   C3A21981  26.110   8.551   9.439  0.0326 -0.0638 -0.2007
69167POPC   C4A21982  25.875   8.720   9.748 -0.0060  0.0749  0.0765
69167POPC   C1B21983  25.762   8.096   8.721  0.3522 -0.1689 -0.0171
69167POPC   C2B21984  25.442   8.383   8.927  0.1660 -0.1124  0.1362
69167POPC   C3B21985  25.314   8.835   8.990 -0.0514 -0.2300  0.4904
69167POPC   C4B21986  25.220   9.135   8.657 -0.0475 -0.0118  0.2415
69168POPC   NC321987  24.742   5.680   9.849  0.0373 -0.2498 -0.0761
69168POPC   PO421988  24.676   5.322   9.683 -0.0091  0.2339  0.0750
69168POPC   GL121989  24.484   5.030   9.723 -0.0895 -0.1897  0.0216
69168POPC   GL221990  24.198   5.071   9.724  0.2001 -0.0790  0.2533
69168POPC   C1A21991  24.359   4.660  10.021  0.2787 -0.0193  0.2788
69168POPC   D2A21992  24.290   4.278  10.205  0.3054  0.0609  0.0723
69168POPC   C3A21993  24.354   3.887  10.477 -0.2539 -0.2381  0.2967
69168POPC   C4A21994  24.154   3.601  10.248  0.0560  0.1356  0.1019
69168POPC   C1B21995  23.826   4.854   9.793 -0.1842  0.0362 -0.0646
69168POPC   C2B21996  23.610   4.409   9.878  0.0379  0.3480  0.1310
69168POPC   C3B21997  23.623   3.981   9.761  0.4186  0.4708 -0.0667
69168POPC   C4B21998  23.580   3.632  10.028  0.0398 -0.1527  0.0964
69169POPC   NC321999  20.313   2.445   4.702  0.2199 -0.1749 -0.1072
69169POPC   PO422000  20.193   2.201   4.961  0.2916  0.0575  0.0903
69169POPC   GL122001  20.008   1.974   5.302  0.1409  0.0665 -0.1723
69169POPC   GL222002  20.216   1.848   5.525  0.0839  0.3044  0.2673
69169POPC   C1A22003  19.772   2.073   5.725  0.2488 -0.1689  0.1079
69169POPC   D2A22004  19.681   2.021   6.165 -0.1786  0.1919  0.2131
69169POPC   C3A22005  19.530   1.693   6.432  0.1255 -0.2879  0.0626
69169POPC   C4A22006  19.564   1.597   6.874 -0.1701  0.3848 -0.1548
69169POPC   C1B22007  20.514   1.718   5.857  0.2267  0.1495  0.1726
69169POPC   C2B22008  20.510   1.769   6.318 -0.0504 -0.1649 -0.2291
69169POPC   C3B22009  20.288   1.797   6.708 -0.1019 -0.2090 -0.2132
69169POPC   C4B22010  20.018   1.780   7.050  0.0430  0.1789  0.0299
69170POPC   NC322011  26.373   8.456   7.556  0.0298 -0.0146 -0.0918
69170POPC   PO422012  26.420   8.212   7.932  0.0614  0.0049  0.3847
69170POPC   GL122013  26.300   8.488   8.075 -0.0776  0.3244  0.1497
69170POPC   GL222014  26.284   8.752   8.035  0.0696  0.1940 -0.0752
69170POPC   C1A22015  26.246   8.619   8.554 -0.1674 -0.0378  0.1325
69170POPC   D2A22016  25.960   8.525   8.881 -0.1974 -0.2152  0.0352
69170POPC   C3A22017  25.700   8.697   9.285 -0.1953 -0.0321  0.2015
69170POPC   C4A22018  25.227   8.593   9.417 -0.1168  0.0107  0.2766
69170POPC   C1B22019  26.031   9.041   8.317  0.1245  0.0043  0.1674
69170POPC   C2B22020  25.733   9.350   8.500 -0.1767 -0.0100  0.0836
69170POPC   C3B22021  25.569   9.525   8.827  0.1628 -0.1868 -0.3437
69170POPC   C4B22022  25.602   9.919   9.066  0.1784  0.0712 -0.2062
69171POPC   NC322023  25.085   6.804   8.932  0.0898 -0.1368 -0.1050
69171POPC   PO422024  24.764   6.605   8.961  0.1886  0.2288  0.0912
69171POPC   GL122025  24.573   6.929   9.062  0.3302  0.0717 -0.3572
69171POPC   GL222026  24.334   6.827   9.053  0.0403 -0.0169  0.0208
69171POPC   C1A22027  24.468   7.145   9.476 -0.0848 -0.0144  0.0683
69171POPC   D2A22028  24.526   7.120   9.951  0.5048  0.0594 -0.1073
69171POPC   C3A22029  24.635   7.489  10.246  0.0762  0.2061  0.1395
69171POPC   C4A22030  24.378   7.851  10.432  0.1596 -0.2469  0.1323
69171POPC   C1B22031  23.959   6.592   8.826  0.0275 -0.0314 -0.2608
69171POPC   C2B22032  23.579   6.698   8.572  0.0692  0.1775 -0.2091
69171POPC   C3B22033  23.159   6.684   8.804  0.2252  0.2654 -0.2091
69171POPC   C4B22034  22.991   6.937   9.121 -0.2188 -0.0265  0.0378
69172POPC   NC322035  29.056   2.570   5.118  0.0603 -0.1738 -0.0494
69172POPC   PO422036  29.273   2.804   4.917 -0.1624 -0.2083 -0.2016
69172POPC   GL122037  29.505   2.777   5.207  0.2193 -0.1732  0.0472
69172POPC   GL222038  29.509   2.516   5.359 -0.1647 -0.0842 -0.1442
69172POPC   C1A22039  29.648   2.931   5.594 -0.5750 -0.1262 -0.0550
69172POPC   D2A22040  29.636   3.400   5.677  0.2570 -0.0898  0.1737
69172POPC   C3A22041  29.522   3.669   6.073 -0.0298  0.0096 -0.3021
69172POPC   C4A22042  29.518   3.533   6.495 -0.2239 -0.0296  0.0008
69172POPC   C1B22043  29.590   2.508   5.842  0.1328 -0.1742 -0.0095
69172POPC   C2B22044  29.598   2.568   6.342  0.1555 -0.0488  0.0333
69172POPC   C3B22045  29.936   2.625   6.696 -0.2001 -0.0012  0.1815
69172POPC   C4B22046  30.130   2.849   7.053  0.3823 -0.1788 -0.0482
69173POPC   NC322047  21.911  14.502   4.048 -0.2190  0.0330 -0.2676
69173POPC   PO422048  21.753  14.537   4.409 -0.1297 -0.1472 -0.0012
69173POPC   GL122049  21.640  14.562   4.810  0.3102 -0.0344  0.2743
69173POPC   GL222050  21.316  14.496   4.804  0.2712  0.0337  0.0386
69173POPC   C1A22051  21.612  14.745   5.207 -0.1128  0.0762  0.1129
69173POPC   D2A22052  21.774  14.896   5.614 -0.1418 -0.3022  0.3912
69173POPC   C3A22053  21.838  15.142   5.994 -0.0318 -0.1856  0.2073
69173POPC   C4A22054  21.705  15.291   6.425  0.0822  0.0494  0.0843
69173POPC   C1B22055  21.271  14.287   5.188 -0.0188 -0.0005  0.0109
69173POPC   C2B22056  21.440  14.057   5.597  0.0641  0.1127  0.1280
69173POPC   C3B22057  21.870  13.968   5.742  0.0362  0.3695 -0.0183
69173POPC   C4B22058  22.335  14.066   5.748 -0.1085 -0.1068  0.1866
69174POPC   NC322059  28.469   2.697   4.647 -0.0981 -0.0440 -0.0391
69174POPC   PO422060  28.607   2.539   5.009 -0.1549 -0.2283  0.1141
69174POPC   GL122061  28.714   2.261   5.288  0.1644  0.0834 -0.1363
69174POPC   GL222062  28.751   2.408   5.498  0.2164 -0.2731 -0.1614
69174POPC   C1A22063  28.699   1.959   5.677  0.0866 -0.2149  0.0240
69174POPC   D2A22064  28.676   1.671   5.975 -0.2258 -0.3139  0.0000
69174POPC   C3A22065  28.794   1.408   6.333 -0.0045  0.4600 -0.2189
69174POPC   C4A22066  28.573   1.019   6.593  0.2564 -0.0176  0.2583
69174POPC   C1B22067  29.097   2.285   5.669  0.2338 -0.5400  0.1941
69174POPC   C2B22068  29.293   2.195   6.084  0.2167  0.0621 -0.0912
69174POPC   C3B22069  29.199   2.197   6.484  0.0108  0.1553  0.1412
69174POPC   C4B22070  28.969   2.054   6.885  0.1330  0.2423  0.0127
69175POPC   NC322071  18.175   6.912   5.292 -0.1200  0.4313 -0.1910
69175POPC   PO422072  18.018   7.063   4.966 -0.1409 -0.1696 -0.3897
69175POPC   GL122073  17.699   7.299   5.080  0.5790 -0.0445 -0.2473
69175POPC   GL222074  17.663   7.178   5.285  0.0466  0.0872  0.0594
69175POPC   C1A22075  17.733   7.674   5.330 -0.0299  0.0337 -0.0211
69175POPC   D2A22076  18.000   8.101   5.368 -0.4110  0.3295 -0.0637
69175POPC   C3A22077  17.895   8.274   5.695  0.2506 -0.0002  0.1793
69175POPC   C4A22078  17.732   8.221   6.103 -0.0155 -0.1671  0.3969
69175POPC   C1B22079  17.914   7.286   5.676 -0.0779 -0.4684  0.5073
69175POPC   C2B22080  18.080   7.443   6.092 -0.1925  0.3131 -0.5189
69175POPC   C3B22081  18.321   7.823   6.220  0.0359 -0.1090 -0.0088
69175POPC   C4B22082  18.704   8.104   6.216  0.4510 -0.3588 -0.0306
69176POPC   NC322083  25.302   1.625   6.043 -0.0248 -0.0441 -0.0500
69176POPC   PO422084  25.267   2.012   6.055 -0.0809  0.1129 -0.0816
69176POPC   GL122085  25.484   2.051   6.418 -0.0461  0.5231 -0.0824
69176POPC   GL222086  25.623   1.786   6.424 -0.0997  0.0332  0.5643
69176POPC   C1A22087  25.520   2.075   6.855 -0.1591  0.1129 -0.0951
69176POPC   D2A22088  25.646   2.062   7.266 -0.0513 -0.2686 -0.2095
69176POPC   C3A22089  25.457   1.966   7.696 -0.0704 -0.0544  0.1983
69176POPC   C4A22090  25.539   1.783   8.108  0.0928 -0.3589  0.3053
69176POPC   C1B22091  25.354   1.454   6.577  0.0504  0.2257 -0.1909
69176POPC   C2B22092  25.164   1.108   6.760 -0.0922  0.1740 -0.0163
69176POPC   C3B22093  24.981   0.959   7.092 -0.1683  0.2838  0.2111
69176POPC   C4B22094  24.702   0.834   7.396 -0.1548  0.0370  0.0166
69177POPC   NC322095  20.273   6.628   5.660  0.0271 -0.4202 -0.1824
69177POPC   PO422096  20.192   6.721   5.362  0.1714  0.0911 -0.1590
69177POPC   GL122097  19.818   6.733   5.691 -0.0442  0.3513  0.2560
69177POPC   GL222098  19.844   6.978   5.739  0.1378 -0.0429 -0.0780
69177POPC   C1A22099  19.942   6.526   6.083 -0.2621 -0.1120  0.2105
69177POPC   D2A22100  20.079   6.194   6.342 -0.1947  0.0919  0.2773
69177POPC   C3A22101  19.926   6.103   6.727 -0.3289 -0.1308  0.2400
69177POPC   C4A22102  20.045   6.182   7.183  0.2753 -0.3242  0.4899
69177POPC   C1B22103  19.689   7.071   6.148  0.0216  0.1857 -0.2733
69177POPC   C2B22104  19.405   6.924   6.473 -0.2302  0.2048  0.1130
69177POPC   C3B22105  19.396   6.729   6.899 -0.2288 -0.3097  0.0070
69177POPC   C4B22106  19.704   6.485   7.099  0.3014  0.1500 -0.0988
69178POPC   NC322107  20.414   5.180   5.335  0.0018  0.0705 -0.1383
69178POPC   PO422108  20.768   5.426   5.443  0.0739 -0.0635  0.3974
69178POPC   GL122109  20.636   5.498   5.820 -0.1653  0.0207  0.0961
69178POPC   GL222110  20.533   5.654   6.065  0.3374  0.3363  0.2839
69178POPC   C1A22111  20.293   5.200   5.986  0.3389  0.0875 -0.1070
69178POPC   D2A22112  20.339   4.787   6.213 -0.0267  0.0702  0.0570
69178POPC   C3A22113  20.008   4.822   6.582 -0.1145 -0.1174 -0.0214
69178POPC   C4A22114  19.951   5.094   6.996 -0.1867 -0.2580 -0.1613
69178POPC   C1B22115  20.593   6.112   6.156 -0.0882  0.0364  0.4090
69178POPC   C2B22116  20.419   6.499   6.124  0.0029  0.1057 -0.1640
69178POPC   C3B22117  20.223   6.943   6.090 -0.2723 -0.2092  0.2674
69178POPC   C4B22118  20.095   7.371   6.024  0.2065  0.0581 -0.1080
69179POPC   NC322119  26.260   8.713   7.042 -0.0880 -0.1346 -0.0161
69179POPC   PO422120  26.619   8.679   7.203  0.0598 -0.1258  0.0105
69179POPC   GL122121  26.568   9.086   7.508  0.0758  0.0955  0.1086
69179POPC   GL222122  26.687   9.364   7.360  0.1410  0.0266 -0.0394
69179POPC   C1A22123  26.341   9.206   7.899  0.2161  0.1014  0.1080
69179POPC   D2A22124  26.398   9.424   8.299 -0.1358  0.1332  0.1229
69179POPC   C3A22125  26.216   9.313   8.672  0.1620  0.4922 -0.0425
69179POPC   C4A22126  26.223   8.937   8.946 -0.2249 -0.3216  0.0940
69179POPC   C1B22127  26.716   9.698   7.624  0.3107  0.0169 -0.0138
69179POPC   C2B22128  26.869  10.015   7.917  0.0478  0.0411  0.1965
69179POPC   C3B22129  27.091  10.029   8.329 -0.0551 -0.2283  0.1246
69179POPC   C4B22130  27.115  10.414   8.636 -0.0263 -0.2825  0.0926
69180POPC   NC322131  28.191  11.642   5.767  0.0847 -0.0727 -0.0722
69180POPC   PO422132  28.496  11.517   5.539  0.0189 -0.0332  0.0655
69180POPC   GL122133  28.507  11.779   5.362  0.1163 -0.1981 -0.1013
69180POPC   GL222134  28.452  11.993   5.504 -0.2075  0.1657 -0.0368
69180POPC   C1A22135  28.921  12.054   5.498 -0.1386 -0.0482  0.0825
69180POPC   D2A22136  29.310  12.111   5.206  0.2698 -0.3337 -0.0468
69180POPC   C3A22137  29.740  12.088   5.419 -0.0173 -0.2203  0.2946
69180POPC   C4A22138  29.786  12.033   5.890 -0.0050 -0.1682 -0.0330
69180POPC   C1B22139  28.625  12.043   5.968  0.0051 -0.0073 -0.0784
69180POPC   C2B22140  28.603  12.008   6.458 -0.0945  0.0110 -0.0033
69180POPC   C3B22141  28.786  12.074   6.888  0.3173 -0.0370  0.1231
69180POPC   C4B22142  28.827  11.902   7.339  0.1762 -0.1088  0.0301
69181POPC   NC322143  28.825  14.121   4.516  0.0336  0.2688  0.3278
69181POPC   PO422144  28.678  14.506   4.498  0.0052  0.0048  0.2947
69181POPC   GL122145  28.681  14.520   4.869 -0.1634 -0.4086 -0.0756
69181POPC   GL222146  28.908  14.343   5.012  0.1334  0.0786 -0.0038
69181POPC   C1A22147  28.353  14.326   5.177 -0.3043 -0.1164  0.1985
69181POPC   D2A22148  28.373  14.047   5.520 -0.1767  0.0048 -0.1342
69181POPC   C3A22149  28.290  13.886   5.929 -0.0664  0.2177 -0.0883
69181POPC   C4A22150  28.090  13.703   6.313  0.4246 -0.0163  0.2166
69181POPC   C1B22151  28.799  14.393   5.431  0.0741 -0.2007 -0.3825
69181POPC   C2B22152  28.578  14.621   5.821  0.1541 -0.0638  0.2913
69181POPC   C3B22153  28.331  14.816   6.106 -0.3275  0.0253 -0.0526
69181POPC   C4B22154  28.099  14.634   6.523 -0.0176  0.2677  0.0452
69182POPC   NC322155  24.366   7.889   7.123 -0.0055  0.0601 -0.1005
69182POPC   PO422156  24.558   7.679   7.464 -0.0781  0.0765 -0.2510
69182POPC   GL122157  24.329   7.908   7.637 -0.1078 -0.1024 -0.0865
69182POPC   GL222158  24.295   7.775   7.949  0.0854 -0.0508 -0.3697
69182POPC   C1A22159  24.241   8.286   7.885 -0.2492 -0.1336  0.1404
69182POPC   D2A22160  24.378   8.692   8.099  0.3868 -0.0468 -0.0395
69182POPC   C3A22161  24.583   8.743   8.571  0.1327 -0.1215  0.1091
69182POPC   C4A22162  24.416   8.586   8.954  0.1592  0.0924  0.1065
69182POPC   C1B22163  24.005   7.994   8.261  0.1686 -0.1656  0.3447
69182POPC   C2B22164  23.819   8.020   8.702 -0.1146 -0.4132 -0.3741
69182POPC   C3B22165  23.502   7.981   9.055  0.0260 -0.0791  0.1059
69182POPC   C4B22166  23.229   7.988   9.407 -0.0477 -0.1652  0.0970
69183POPC   NC322167  23.274  16.109   4.837 -0.1139 -0.1065 -0.0079
69183POPC   PO422168  23.658  16.182   4.822 -0.1837 -0.0134 -0.0599
69183POPC   GL122169  23.489  16.270   5.242 -0.0527 -0.3472  0.2549
69183POPC   GL222170  23.513  16.012   5.461 -0.2828 -0.3552  0.1229
69183POPC   C1A22171  23.410  16.455   5.626 -0.2716  0.0198  0.0426
69183POPC   D2A22172  23.323  16.335   6.088  0.1865 -0.0793  0.0919
69183POPC   C3A22173  22.950  16.380   6.403  0.0107 -0.1306  0.1109
69183POPC   C4A22174  22.581  16.611   6.548 -0.4492 -0.0599 -0.0474
69183POPC   C1B22175  23.431  15.817   5.887 -0.1745  0.0918 -0.3235
69183POPC   C2B22176  23.254  15.883   6.359 -0.0219 -0.0061  0.0838
69183POPC   C3B22177  23.302  16.206   6.706  0.6638 -0.0182 -0.2525
69183POPC   C4B22178  23.053  16.522   6.914 -0.2333  0.1254  0.2170
69184POPC   NC322179  16.856  10.271   4.394  0.3378 -0.0896  0.3832
69184POPC   PO422180  17.123  10.475   4.619 -0.2727 -0.1321  0.0095
69184POPC   GL122181  17.140  10.515   5.026 -0.3104  0.0994 -0.0490
69184POPC   GL222182  17.381  10.464   5.123  0.1023  0.0077 -0.3314
69184POPC   C1A22183  16.893  10.356   5.354  0.0675 -0.0344  0.0740
69184POPC   D2A22184  16.786  10.227   5.775 -0.0107  0.1620 -0.2724
69184POPC   C3A22185  16.948  10.106   6.172 -0.1770 -0.3408  0.0854
69184POPC   C4A22186  17.135  10.116   6.579  0.1036  0.0724  0.2408
69184POPC   C1B22187  17.498  10.776   5.427  0.0378 -0.1510  0.0243
69184POPC   C2B22188  17.507  10.902   5.833 -0.2345 -0.1476 -0.3911
69184POPC   C3B22189  17.665  11.123   6.153  0.1531  0.1654 -0.0283
69184POPC   C4B22190  17.533  11.508   6.380  0.1703 -0.1569  0.0147
69185POPC   NC322191  23.402  12.322   4.596  0.0471  0.0845  0.0777
69185POPC   PO422192  23.149  12.065   4.699 -0.0373 -0.3077 -0.2459
69185POPC   GL122193  23.269  11.950   5.039  0.0266 -0.1381  0.3313
69185POPC   GL222194  23.527  12.106   5.166 -0.1344  0.0184 -0.0467
69185POPC   C1A22195  23.088  12.183   5.402 -0.2938  0.0324  0.1101
69185POPC   D2A22196  22.946  12.547   5.691 -0.1047 -0.0985 -0.0903
69185POPC   C3A22197  22.970  12.307   6.161 -0.2377  0.5007  0.0155
69185POPC   C4A22198  22.711  12.158   6.461  0.1133 -0.0769 -0.0011
69185POPC   C1B22199  23.498  11.974   5.603  0.0627  0.2809  0.0801
69185POPC   C2B22200  23.479  11.833   6.091  0.0088 -0.0665  0.0025
69185POPC   C3B22201  23.244  11.845   6.458 -0.2935 -0.2891  0.0029
69185POPC   C4B22202  23.220  11.737   6.870 -0.1560 -0.1465 -0.0399
69186POPC   NC322203  28.353   9.868   6.219 -0.0918 -0.2621  0.1097
69186POPC   PO422204  27.973   9.888   6.157 -0.2890  0.1575 -0.2022
69186POPC   GL122205  27.968  10.067   6.514 -0.0826 -0.0016  0.1643
69186POPC   GL222206  28.172  10.308   6.557  0.3749  0.2254  0.0518
69186POPC   C1A22207  28.291   9.916   6.775 -0.2820 -0.1918 -0.0960
69186POPC   D2A22208  28.523  10.143   7.115 -0.3316  0.3589 -0.0147
69186POPC   C3A22209  28.686  10.541   7.262 -0.2056  0.1380 -0.2028
69186POPC   C4A22210  28.717  11.066   7.263  0.4009  0.1030  0.0890
69186POPC   C1B22211  28.214  10.520   6.928  0.1562  0.1738 -0.0399
69186POPC   C2B22212  28.176  10.912   7.196 -0.0772 -0.0305 -0.0900
69186POPC   C3B22213  28.086  11.110   7.621 -0.0898  0.1937  0.0891
69186POPC   C4B22214  28.372  11.168   7.949  0.2819  0.3353 -0.1896
69187POPC   NC322215  27.132   5.610  10.162 -0.1489 -0.1148  0.3168
69187POPC   PO422216  26.977   5.370   9.907  0.2953 -0.0651 -0.2130
69187POPC   GL122217  27.236   5.178  10.117 -0.0599  0.0394  0.3491
69187POPC   GL222218  27.502   5.239  10.075 -0.3304 -0.1134  0.1100
69187POPC   C1A22219  27.255   4.748  10.318  0.2133  0.0320  0.1077
69187POPC   D2A22220  26.992   4.387  10.432  0.1817 -0.0501 -0.2299
69187POPC   C3A22221  27.098   4.022  10.176 -0.0662 -0.2307 -0.1246
69187POPC   C4A22222  27.468   3.882   9.949 -0.1142 -0.2260  0.0242
69187POPC   C1B22223  27.547   4.784   9.946  0.1115  0.0899  0.1164
69187POPC   C2B22224  27.790   4.449   9.717  0.0670 -0.2064  0.1796
69187POPC   C3B22225  28.203   4.427   9.837  0.0992  0.1952  0.2261
69187POPC   C4B22226  28.534   4.539  10.150  0.0419 -0.3942 -0.3270
69188POPC   NC322227  23.789   4.766   7.488  0.0503 -0.1623 -0.1785
69188POPC   PO422228  24.139   4.621   7.320 -0.1796 -0.0965 -0.0403
69188POPC   GL122229  24.041   4.380   7.583  0.1316 -0.0254  0.1764
69188POPC   GL222230  24.118   4.083   7.668 -0.1570 -0.0470  0.1048
69188POPC   C1A22231  23.664   4.393   7.812 -0.2237  0.2418 -0.1994
69188POPC   D2A22232  23.325   4.267   8.188 -0.0095 -0.1117  0.1978
69188POPC   C3A22233  22.863   4.439   8.153  0.3721  0.0265 -0.1768
69188POPC   C4A22234  22.424   4.455   8.244  0.1867 -0.1648 -0.0403
69188POPC   C1B22235  23.871   3.901   8.023 -0.1124 -0.0898  0.0933
69188POPC   C2B22236  23.767   3.690   8.392  0.3806 -0.2473 -0.2877
69188POPC   C3B22237  23.570   3.287   8.493  0.2703  0.1149  0.1744
69188POPC   C4B22238  23.457   2.952   8.688 -0.3206  0.1082  0.0828
69189POPC   NC322239  26.140   4.550  10.502 -0.1543 -0.0818 -0.1954
69189POPC   PO422240  26.000   4.649  10.180  0.3130 -0.0089  0.0256
69189POPC   GL122241  26.028   4.305   9.954 -0.0208 -0.1093  0.2073
69189POPC   GL222242  25.834   4.100  10.192  0.0822 -0.0918  0.0998
69189POPC   C1A22243  26.235   3.926  10.076 -0.0111 -0.0274 -0.2417
69189POPC   D2A22244  26.498   3.566  10.150  0.0738 -0.0349 -0.3310
69189POPC   C3A22245  26.905   3.464  10.369  0.0484  0.1835 -0.0192
69189POPC   C4A22246  27.076   3.185  10.673 -0.0605 -0.0795 -0.1947
69189POPC   C1B22247  25.707   3.830  10.613  0.1605 -0.3515  0.1578
69189POPC   C2B22248  25.868   3.521  10.931  0.3287  0.0130 -0.0058
69189POPC   C3B22249  26.043   3.099  11.038 -0.1067  0.0564  0.1217
69189POPC   C4B22250  26.307   2.751  11.153  0.0187 -0.0365 -0.1944
69190POPC   NC322251  25.516   3.262   6.949  0.1315  0.0907 -0.0832
69190POPC   PO422252  25.641   3.136   6.610  0.4564  0.2134  0.0787
69190POPC   GL122253  25.744   2.846   6.805  0.1977 -0.1524  0.1871
69190POPC   GL222254  26.019   2.688   6.668 -0.1344  0.2016  0.0057
69190POPC   C1A22255  25.496   2.591   7.108  0.0290 -0.1275 -0.4622
69190POPC   D2A22256  25.220   2.273   7.282 -0.2928  0.0448 -0.2489
69190POPC   C3A22257  25.006   2.268   7.733  0.2830 -0.0413  0.2048
69190POPC   C4A22258  25.042   1.894   8.000  0.0619 -0.2140  0.0804
69190POPC   C1B22259  25.962   2.350   6.941 -0.2815 -0.1969 -0.2865
69190POPC   C2B22260  26.012   1.885   7.003  0.1140 -0.1761 -0.0477
69190POPC   C3B22261  25.779   1.460   6.878 -0.2034 -0.1488 -0.2437
69190POPC   C4B22262  25.536   1.104   7.150  0.0326 -0.0941  0.3312
69191POPC   NC322263  24.196   3.597   6.481  0.2020 -0.5749  0.1419
69191POPC   PO422264  24.090   3.718   6.836 -0.0978  0.0822 -0.0757
69191POPC   GL122265  23.749   3.853   7.059  0.1364 -0.1968 -0.1517
69191POPC   GL222266  23.826   3.714   7.251  0.0136 -0.1110  0.0580
69191POPC   C1A22267  23.663   4.080   7.446  0.2521 -0.0665  0.0459
69191POPC   D2A22268  23.252   4.168   7.660  0.0088  0.2213 -0.1402
69191POPC   C3A22269  22.938   3.851   7.636  0.1588 -0.1334  0.2476
69191POPC   C4A22270  22.585   3.597   7.760  0.0723  0.2854  0.0070
69191POPC   C1B22271  24.017   3.584   7.681  0.1324 -0.2896  0.1302
69191POPC   C2B22272  23.771   3.287   8.001  0.0766 -0.2010  0.1720
69191POPC   C3B22273  23.602   2.849   8.140 -0.0314  0.4035  0.0306
69191POPC   C4B22274  23.631   2.399   8.075 -0.0070  0.2494  0.2580
69192POPC   NC322275  32.290   2.189   4.651 -0.1281  0.1041  0.0867
69192POPC   PO422276  31.987   2.337   4.418 -0.0977 -0.2761 -0.1306
69192POPC   GL122277  31.909   2.320   4.847  0.2605 -0.3850  0.1524
69192POPC   GL222278  31.791   2.066   4.820  0.2322 -0.1645 -0.1736
69192POPC   C1A22279  32.202   2.079   5.163  0.0681  0.2124 -0.0254
69192POPC   D2A22280  32.433   2.079   5.510 -0.1069 -0.2123  0.0388
69192POPC   C3A22281  32.400   2.291   5.976 -0.0817  0.1942 -0.0761
69192POPC   C4A22282  32.258   2.330   6.451  0.0487  0.1629 -0.1451
69192POPC   C1B22283  31.826   1.741   5.206  0.1034 -0.0467  0.1557
69192POPC   C2B22284  31.986   1.687   5.646 -0.0899 -0.1759 -0.2909
69192POPC   C3B22285  32.040   1.493   6.109 -0.1216 -0.0686  0.0454
69192POPC   C4B22286  32.240   1.140   6.359 -0.5445 -0.2666  0.0981
69193POPC   NC322287  32.439   9.511   4.903 -0.0151 -0.1669 -0.1913
69193POPC   PO422288  32.743   9.673   5.053 -0.0821 -0.1547 -0.1882
69193POPC   GL122289  32.809   9.906   5.315  0.0761 -0.0706  0.7288
69193POPC   GL222290  32.507   9.970   5.378 -0.2546 -0.0415 -0.1079
69193POPC   C1A22291  32.921  10.122   5.702 -0.1282 -0.1175 -0.1297
69193POPC   D2A22292  33.024  10.403   6.060  0.2451 -0.1465  0.0325
69193POPC   C3A22293  33.240  10.835   5.988  0.1665 -0.1267  0.1052
69193POPC   C4A22294  33.459  11.226   5.983  0.0056  0.0938 -0.3355
69193POPC   C1B22295  32.448  10.064   5.839 -0.0260 -0.0770 -0.0671
69193POPC   C2B22296  32.148  10.203   6.135  0.1847  0.3864  0.0615
69193POPC   C3B22297  31.997  10.442   6.474  0.3414  0.0446 -0.0477
69193POPC   C4B22298  31.701  10.763   6.659 -0.0403 -0.1812 -0.1057
69194POPC   NC322299  20.661   0.683   4.885 -0.0748  0.0341 -0.1511
69194POPC   PO422300  20.945   0.983   4.861  0.3147  0.1966 -0.2937
69194POPC   GL122301  21.201   0.916   5.096  0.0978 -0.1665 -0.0411
69194POPC   GL222302  21.005   0.683   5.224 -0.1964 -0.1580  0.1605
69194POPC   C1A22303  21.171   1.228   5.455  0.1080 -0.3533  0.2064
69194POPC   D2A22304  21.226   1.116   5.946 -0.1855 -0.0049 -0.3766
69194POPC   C3A22305  20.968   0.858   6.222  0.0991 -0.1317 -0.1191
69194POPC   C4A22306  20.948   0.460   6.404  0.1981 -0.0403 -0.1104
69194POPC   C1B22307  20.889   0.345   5.533  0.3247  0.0200 -0.0320
69194POPC   C2B22308  20.486   0.110   5.700 -0.2153  0.2554  0.1890
69194POPC   C3B22309  20.435  -0.242   5.954  0.0630 -0.0594  0.3902
69194POPC   C4B22310  20.688  -0.339   6.281 -0.0216  0.0149  0.0398
69195POPC   NC322311  18.303  11.136   4.974 -0.3116  0.0058  0.0653
69195POPC   PO422312  18.377  11.262   4.589 -0.0477 -0.0684 -0.2612
69195POPC   GL122313  18.215  11.543   4.838  0.1015 -0.0763  0.1001
69195POPC   GL222314  18.272  11.781   4.765  0.1376  0.1577 -0.1015
69195POPC   C1A22315  18.246  11.582   5.317 -0.4244  0.0003  0.1210
69195POPC   D2A22316  18.456  11.924   5.552 -0.1885 -0.1254  0.1027
69195POPC   C3A22317  18.900  11.878   5.764 -0.1400  0.1247 -0.0680
69195POPC   C4A22318  19.397  11.808   5.833  0.0224  0.0106 -0.1755
69195POPC   C1B22319  18.629  11.857   4.978  0.0527  0.0861 -0.0745
69195POPC   C2B22320  18.907  12.011   5.330  0.1124 -0.1778 -0.1797
69195POPC   C3B22321  19.109  12.332   5.555  0.1874  0.0525 -0.0421
69195POPC   C4B22322  19.203  12.241   5.975  0.2103 -0.3158  0.0659
69196POPC   NC322323  25.631   7.424   9.887  0.2428  0.0455  0.0218
69196POPC   PO422324  25.701   7.081  10.088  0.1569 -0.0768 -0.0163
69196POPC   GL122325  25.887   7.313  10.308 -0.0489 -0.0269 -0.1597
69196POPC   GL222326  25.605   7.550  10.385 -0.1186 -0.1767  0.0559
69196POPC   C1A22327  26.045   7.726  10.249  0.2488 -0.0594  0.0463
69196POPC   D2A22328  26.289   8.092  10.318 -0.0835  0.3719 -0.0327
69196POPC   C3A22329  26.703   8.088  10.496  0.0133  0.0770 -0.2035
69196POPC   C4A22330  27.124   8.256  10.386 -0.0504 -0.1978  0.3912
69196POPC   C1B22331  25.261   7.767  10.570 -0.0423 -0.3411  0.0962
69196POPC   C2B22332  24.815   7.851  10.743  0.0564 -0.0871  0.2871
69196POPC   C3B22333  24.424   7.769  10.953  0.0007  0.1566 -0.1818
69196POPC   C4B22334  24.201   7.408  11.205  0.0473 -0.2802 -0.0988
69197POPC   NC322335  21.034   3.645   5.274 -0.1443  0.0637 -0.0995
69197POPC   PO422336  20.682   3.836   5.419  0.1251 -0.1255 -0.0262
69197POPC   GL122337  20.495   3.873   5.741  0.0290 -0.0222  0.0944
69197POPC   GL222338  20.215   3.934   5.721 -0.2428 -0.1670  0.2863
69197POPC   C1A22339  20.564   3.701   6.177  0.6293 -0.1178  0.3276
69197POPC   D2A22340  20.716   3.490   6.522  0.0120 -0.2109  0.0818
69197POPC   C3A22341  20.438   3.284   6.896  0.2417 -0.1311 -0.1019
69197POPC   C4A22342  20.602   3.117   7.355  0.1132 -0.1612 -0.2419
69197POPC   C1B22343  20.109   3.927   6.205 -0.0118  0.1154 -0.1271
69197POPC   C2B22344  19.924   3.823   6.646 -0.0789 -0.1566  0.2143
69197POPC   C3B22345  20.078   3.672   7.058 -0.1946  0.0834 -0.2423
69197POPC   C4B22346  20.123   3.273   7.368 -0.3108 -0.1209 -0.4659
69198POPC   NC322347  29.792  10.794   4.590 -0.3571  0.0037  0.1071
69198POPC   PO422348  30.046  10.530   4.754 -0.1426 -0.0118  0.1642
69198POPC   GL122349  29.847  10.445   5.069  0.3569 -0.0272 -0.0994
69198POPC   GL222350  29.632  10.666   5.109  0.0800 -0.3277  0.2467
69198POPC   C1A22351  29.973  10.455   5.525 -0.3308  0.0740  0.1690
69198POPC   D2A22352  30.242  10.370   5.916  0.1542  0.2669  0.1495
69198POPC   C3A22353  30.058  10.582   6.299  0.2231  0.3025  0.0566
69198POPC   C4A22354  29.930  10.825   6.614 -0.3838  0.0956  0.1060
69198POPC   C1B22355  29.912  10.959   5.354  0.0681  0.0064  0.1892
69198POPC   C2B22356  30.147  11.190   5.662  0.0606  0.3544  0.0548
69198POPC   C3B22357  30.541  11.272   5.881 -0.0938 -0.0056  0.4110
69198POPC   C4B22358  30.737  11.300   6.307 -0.1711  0.0007 -0.2862
69199POPC   NC322359  22.189  13.117   4.373  0.1833  0.0764  0.1545
69199POPC   PO422360  21.799  13.197   4.488  0.0712  0.0461  0.4299
69199POPC   GL122361  21.642  13.377   4.756 -0.2353  0.0248  0.0544
69199POPC   GL222362  21.839  13.619   4.754 -0.2663 -0.2310 -0.1186
69199POPC   C1A22363  21.341  13.356   5.083 -0.2590 -0.2878  0.1256
69199POPC   D2A22364  21.222  13.230   5.498  0.1036 -0.0545 -0.2530
69199POPC   C3A22365  21.002  12.872   5.533  0.0537 -0.1726  0.1599
69199POPC   C4A22366  21.062  12.421   5.755 -0.0499 -0.1075  0.0155
69199POPC   C1B22367  21.866  13.503   5.161  0.0444  0.1817 -0.1925
69199POPC   C2B22368  21.563  13.611   5.475  0.0415 -0.2440 -0.0573
69199POPC   C3B22369  21.527  13.673   5.894  0.4350 -0.2744  0.1871
69199POPC   C4B22370  21.414  13.589   6.333 -0.1902  0.2419  0.1337
69200POPC   NC322371  31.683   7.551   5.258  0.1922  0.1354 -0.0832
69200POPC   PO422372  31.426   7.441   5.513 -0.3166 -0.2261 -0.2073
69200POPC   GL122373  31.657   7.503   5.801 -0.1112 -0.0238  0.1010
69200POPC   GL222374  31.718   7.755   5.871  0.0332  0.1837 -0.0396
69200POPC   C1A22375  31.905   7.427   6.190 -0.2361 -0.2503  0.1460
69200POPC   D2A22376  32.304   7.309   6.398  0.0109  0.0176 -0.1475
69200POPC   C3A22377  32.543   7.295   6.814 -0.0615  0.1209 -0.0627
69200POPC   C4A22378  32.461   7.608   7.173 -0.0935 -0.1480 -0.1795
69200POPC   C1B22379  31.722   8.060   6.192 -0.0835  0.1577  0.1172
69200POPC   C2B22380  31.721   8.217   6.629  0.2145 -0.0098  0.1414
69200POPC   C3B22381  31.605   8.186   7.096 -0.1849 -0.1244 -0.3672
69200POPC   C4B22382  31.634   8.076   7.568  0.1594 -0.1062 -0.1976
69201POPC   NC322383  15.804  32.805   4.427 -0.0100 -0.0721 -0.0736
69201POPC   PO422384  15.694  33.188   4.469 -0.1779 -0.1998  0.1620
69201POPC   GL122385  15.703  33.050   4.898 -0.0016 -0.0578 -0.3863
69201POPC   GL222386  15.663  32.720   4.983  0.0716  0.0312 -0.1108
69201POPC   C1A22387  15.534  33.116   5.338  0.1795 -0.0683 -0.0639
69201POPC   D2A22388  15.421  33.159   5.749  0.2216 -0.1221  0.1035
69201POPC   C3A22389  15.508  33.595   5.951 -0.1174  0.1013  0.2777
69201POPC   C4A22390  15.675  33.912   6.271 -0.0952 -0.3978 -0.5914
69201POPC   C1B22391  15.880  32.678   5.440 -0.1788 -0.1207  0.1073
69201POPC   C2B22392  15.705  32.828   5.845 -0.0641  0.0453 -0.5581
69201POPC   C3B22393  15.706  33.135   6.201  0.1201  0.1012  0.1537
69201POPC   C4B22394  15.667  33.481   6.478 -0.3197 -0.1099  0.1607
69202POPC   NC322395  16.393   5.925   5.296  0.1736 -0.1835  0.0180
69202POPC   PO422396  16.505   5.630   5.074  0.0676 -0.1680  0.1230
69202POPC   GL122397  16.697   5.425   5.390  0.0290  0.1163 -0.1784
69202POPC   GL222398  16.849   5.639   5.510 -0.1875 -0.1493 -0.3128
69202POPC   C1A22399  16.742   5.080   5.726  0.0475  0.1121  0.0308
69202POPC   D2A22400  16.786   5.048   6.162  0.2251 -0.3172 -0.1395
69202POPC   C3A22401  16.599   5.403   6.337  0.0026 -0.2282  0.1172
69202POPC   C4A22402  16.362   5.450   6.731  0.0550 -0.2696  0.2260
69202POPC   C1B22403  16.998   5.880   5.909 -0.0460  0.0736 -0.0372
69202POPC   C2B22404  16.898   5.920   6.371 -0.1646 -0.0322  0.0002
69202POPC   C3B22405  17.100   6.175   6.684 -0.0269 -0.0029 -0.0841
69202POPC   C4B22406  17.410   6.515   6.780  0.0437  0.2891 -0.3584
69203POPC   NC322407   0.798   4.899   5.466  0.0962 -0.2668 -0.1140
69203POPC   PO422408   0.819   5.310   5.467 -0.1137 -0.0352 -0.2259
69203POPC   GL122409   0.536   5.318   5.858 -0.2491  0.1217 -0.1535
69203POPC   GL222410   0.696   5.063   5.949 -0.1936  0.0723  0.1984
69203POPC   C1A22411   0.218   5.300   6.250 -0.1052  0.0467 -0.0085
69203POPC   D2A22412   0.151   5.456   6.644 -0.2344 -0.2649  0.1377
69203POPC   C3A22413   0.291   5.136   6.970  0.1671 -0.0993  0.3568
69203POPC   C4A22414   0.199   5.111   7.427  0.1665 -0.1078  0.2440
69203POPC   C1B22415   0.806   5.234   6.351  0.0381 -0.2177  0.0992
69203POPC   C2B22416   1.231   5.292   6.519 -0.0753  0.0243 -0.1256
69203POPC   C3B22417   1.540   5.353   6.790 -0.3341  0.0280 -0.2907
69203POPC   C4B22418   2.003   5.405   6.973  0.0454  0.1939 -0.1115
69204POPC   NC322419  30.491  18.246   4.456 -0.0200  0.1028  0.0959
69204POPC   PO422420  30.818  17.998   4.489  0.0760 -0.2689 -0.3307
69204POPC   GL122421  30.854  17.714   4.764 -0.0295  0.0029  0.0770
69204POPC   GL222422  30.724  17.410   4.735 -0.3235  0.1587 -0.0130
69204POPC   C1A22423  31.110  17.426   5.000  0.0592  0.3439 -0.2108
69204POPC   D2A22424  31.321  17.077   5.219 -0.1433 -0.2306 -0.0668
69204POPC   C3A22425  31.441  17.159   5.684  0.3391 -0.1308  0.1566
69204POPC   C4A22426  31.290  17.031   6.095 -0.0812 -0.2567  0.0677
69204POPC   C1B22427  30.475  17.397   5.130  0.1428 -0.1342 -0.0754
69204POPC   C2B22428  30.331  17.237   5.556  0.0455  0.1668 -0.0088
69204POPC   C3B22429  30.261  17.139   6.012 -0.0944 -0.1394 -0.1766
69204POPC   C4B22430  29.948  17.292   6.324 -0.0194 -0.0693  0.0664
69205POPC   NC322431  30.835  14.443   4.596  0.3834 -0.0277 -0.2301
69205POPC   PO422432  30.570  14.146   4.517  0.0891  0.3548 -0.1863
69205POPC   GL122433  30.694  14.129   4.884  0.1798 -0.4709  0.1110
69205POPC   GL222434  30.535  14.306   5.089 -0.0869  0.0434 -0.0668
69205POPC   C1A22435  30.969  14.535   5.048 -0.1820 -0.3239 -0.0888
69205POPC   D2A22436  31.310  14.753   5.329 -0.2972  0.2453  0.0364
69205POPC   C3A22437  31.106  14.968   5.710  0.0829 -0.1456  0.1151
69205POPC   C4A22438  31.009  15.211   6.137  0.1852  0.0956 -0.1299
69205POPC   C1B22439  30.701  14.262   5.543  0.1514  0.0733 -0.2692
69205POPC   C2B22440  30.940  14.353   5.864 -0.0041  0.0914  0.1573
69205POPC   C3B22441  31.412  14.421   5.971  0.3450 -0.1128  0.0145
69205POPC   C4B22442  31.745  14.245   6.197  0.0154  0.0047 -0.3115
69206POPC   NC322443  27.379   7.937   8.038 -0.1661 -0.0722  0.0730
69206POPC   PO422444  27.681   8.220   7.994  0.1807  0.1713  0.1197
69206POPC   GL122445  27.887   8.375   8.355 -0.2071 -0.1184 -0.0732
69206POPC   GL222446  28.153   8.379   8.401 -0.0715  0.3123 -0.1947
69206POPC   C1A22447  27.920   8.827   8.500 -0.2948  0.0797 -0.0843
69206POPC   D2A22448  28.066   9.293   8.407 -0.0258 -0.1455  0.0615
69206POPC   C3A22449  28.399   9.549   8.559 -0.1697 -0.2848 -0.0910
69206POPC   C4A22450  28.797   9.728   8.555 -0.1847  0.2310 -0.0632
69206POPC   C1B22451  28.196   8.591   8.814  0.0559  0.3621  0.4765
69206POPC   C2B22452  28.393   8.672   9.253  0.0083 -0.4639 -0.1060
69206POPC   C3B22453  28.500   8.832   9.664 -0.0716 -0.0312  0.0351
69206POPC   C4B22454  28.466   9.210   9.921 -0.0608 -0.1398  0.1464
69207POPC   NC322455  27.286   1.656   5.092 -0.1898 -0.0519  0.0930
69207POPC   PO422456  27.529   1.782   5.356 -0.1105 -0.0335  0.2328
69207POPC   GL122457  27.904   1.740   5.525  0.1414 -0.1370  0.2521
69207POPC   GL222458  28.102   1.971   5.486  0.0347  0.3285 -0.1153
69207POPC   C1A22459  28.208   1.649   5.843  0.1674  0.1483 -0.2910
69207POPC   D2A22460  28.287   1.271   6.127 -0.0394 -0.2993  0.1658
69207POPC   C3A22461  27.948   1.002   6.387 -0.1600 -0.0471  0.0968
69207POPC   C4A22462  27.513   1.161   6.391  0.2793  0.0529 -0.1237
69207POPC   C1B22463  28.419   1.652   5.409 -0.1445 -0.0477  0.0447
69207POPC   C2B22464  28.623   1.278   5.641  0.1836  0.1811 -0.0190
69207POPC   C3B22465  28.696   0.999   5.993 -0.1002 -0.0624  0.1034
69207POPC   C4B22466  28.950   0.813   6.359 -0.1082  0.0182 -0.0289
69208POPC   NC322467  22.922   7.628   6.025  0.0401 -0.3235 -0.2055
69208POPC   PO422468  23.020   7.866   6.286  0.1536  0.0075 -0.2347
69208POPC   GL122469  22.832   7.942   6.580  0.0288 -0.1485  0.0782
69208POPC   GL222470  22.570   8.134   6.575  0.0231  0.3328  0.2137
69208POPC   C1A22471  22.645   7.794   6.978 -0.0564  0.0261 -0.1854
69208POPC   D2A22472  22.425   7.879   7.334  0.0928 -0.0172 -0.0757
69208POPC   C3A22473  22.429   7.752   7.765 -0.1494  0.0059  0.1705
69208POPC   C4A22474  22.287   7.631   8.188 -0.3620  0.2557 -0.0357
69208POPC   C1B22475  22.357   8.394   6.868  0.2094 -0.0435 -0.1844
69208POPC   C2B22476  22.300   8.634   7.246 -0.1877  0.3100  0.1407
69208POPC   C3B22477  22.086   8.925   7.569 -0.0910  0.2184  0.0144
69208POPC   C4B22478  21.709   9.239   7.449 -0.0195  0.0268  0.0991
69209POPC   NC322479  24.295  11.505   5.162 -0.1134  0.1967 -0.1014
69209POPC   PO422480  24.591  11.241   5.258  0.4251  0.0192 -0.2412
69209POPC   GL122481  24.728  11.256   5.662  0.0748  0.0711  0.3482
69209POPC   GL222482  24.510  11.241   5.899 -0.0071 -0.0302 -0.0844
69209POPC   C1A22483  25.083  11.551   5.852 -0.0752  0.0351 -0.0854
69209POPC   D2A22484  25.523  11.584   6.037 -0.2040 -0.3179  0.0798
69209POPC   C3A22485  25.558  11.627   6.440  0.1282 -0.0399 -0.1629
69209POPC   C4A22486  25.527  11.652   6.856 -0.1496  0.0863 -0.1279
69209POPC   C1B22487  24.553  11.219   6.373 -0.0770 -0.0019  0.0241
69209POPC   C2B22488  24.346  11.096   6.766 -0.0187 -0.2698 -0.1082
69209POPC   C3B22489  24.203  11.036   7.206  0.2697  0.1403  0.2186
69209POPC   C4B22490  23.909  11.002   7.605 -0.1252  0.1317  0.2123
69210POPC   NC322491  26.594   6.055  12.378 -0.0249  0.1508  0.1883
69210POPC   PO422492  26.597   5.724  12.220 -0.3623 -0.2961  0.1273
69210POPC   GL122493  26.999   5.800  12.069 -0.0534  0.1306 -0.1284
69210POPC   GL222494  27.133   5.533  12.171 -0.1753  0.1978 -0.1611
69210POPC   C1A22495  27.465   5.917  12.010 -0.0267 -0.0047  0.1610
69210POPC   D2A22496  27.905   6.039  11.894 -0.3975  0.0257 -0.0053
69210POPC   C3A22497  28.240   5.768  11.884 -0.2477  0.0758 -0.1299
69210POPC   C4A22498  28.657   5.565  11.768 -0.0763  0.2268  0.0765
69210POPC   C1B22499  27.560   5.424  12.326  0.2573  0.1304  0.1560
69210POPC   C2B22500  27.971   5.336  12.451  0.2769  0.1055 -0.2019
69210POPC   C3B22501  28.311   5.560  12.601 -0.4684  0.1742 -0.1132
69210POPC   C4B22502  28.720   5.661  12.799 -0.1005 -0.0507 -0.1860
69211POPC   NC322503  21.001   9.078   5.213 -0.3161  0.0214 -0.0315
69211POPC   PO422504  20.699   9.307   5.217 -0.0081  0.1523 -0.0968
69211POPC   GL122505  20.623   9.312   5.683  0.0645 -0.0748 -0.0033
69211POPC   GL222506  20.873   9.209   5.691 -0.0650 -0.0007 -0.0144
69211POPC   C1A22507  20.728   9.590   6.071 -0.1143  0.0904  0.2371
69211POPC   D2A22508  20.730   9.773   6.499 -0.1359 -0.3045 -0.1272
69211POPC   C3A22509  21.099   9.695   6.783 -0.0429  0.2586 -0.2878
69211POPC   C4A22510  21.372   9.450   7.094  0.3846 -0.0365 -0.3662
69211POPC   C1B22511  20.965   9.157   6.157  0.1489 -0.3766  0.2455
69211POPC   C2B22512  20.781   9.252   6.539  0.0313  0.2427 -0.0017
69211POPC   C3B22513  20.435   9.402   6.832 -0.1152  0.0572 -0.3746
69211POPC   C4B22514  20.195   9.767   7.132  0.0016  0.2344 -0.1021
69212POPC   NC322515  20.226   9.681   4.351  0.2822  0.0023  0.0937
69212POPC   PO422516  20.322   9.838   4.709  0.3274 -0.3318  0.0629
69212POPC   GL122517  20.507  10.118   4.800 -0.0367 -0.0204 -0.3266
69212POPC   GL222518  20.344  10.402   4.924  0.1766  0.2534  0.0275
69212POPC   C1A22519  20.538  10.127   5.282 -0.0657 -0.0350 -0.1578
69212POPC   D2A22520  20.578   9.843   5.670 -0.0832  0.0654 -0.0568
69212POPC   C3A22521  20.293   9.788   5.984 -0.0993  0.1124 -0.1010
69212POPC   C4A22522  20.233   9.478   6.376  0.1666  0.3648  0.0087
69212POPC   C1B22523  20.192  10.660   5.222  0.1629 -0.0621 -0.0843
69212POPC   C2B22524  19.924  10.773   5.567 -0.0153 -0.0714  0.2581
69212POPC   C3B22525  20.001  10.938   6.005 -0.0306 -0.0208  0.2000
69212POPC   C4B22526  20.086  11.200   6.318 -0.1050 -0.1313  0.1396
69213POPC   NC322527  23.518   1.623   5.644 -0.0717 -0.2362 -0.1761
69213POPC   PO422528  23.817   1.841   5.623  0.1219 -0.0674 -0.0968
69213POPC   GL122529  23.912   1.436   5.795 -0.2851 -0.5095 -0.0252
69213POPC   GL222530  24.207   1.427   5.781 -0.1554 -0.1179 -0.1820
69213POPC   C1A22531  23.942   1.425   6.301 -0.1237  0.1907 -0.0230
69213POPC   D2A22532  24.182   1.227   6.655 -0.0167  0.0556  0.2928
69213POPC   C3A22533  24.325   1.468   7.002 -0.0714  0.5554  0.1305
69213POPC   C4A22534  24.216   1.387   7.452 -0.1037  0.2339 -0.0720
69213POPC   C1B22535  24.327   1.085   6.088  0.1793  0.0400 -0.0265
69213POPC   C2B22536  24.135   0.781   6.422  0.0362  0.0019  0.2926
69213POPC   C3B22537  24.179   0.390   6.665  0.0514  0.1304  0.1358
69213POPC   C4B22538  24.432   0.157   6.995  0.1410  0.3676 -0.0584
69214POPC   NC322539  25.447   7.156   8.975  0.0431 -0.1159  0.0706
69214POPC   PO422540  25.455   7.009   9.361  0.3779  0.1811  0.1673
69214POPC   GL122541  25.529   7.439   9.338  0.2367 -0.3153  0.4374
69214POPC   GL222542  25.302   7.444   9.523  0.0674 -0.0384 -0.0816
69214POPC   C1A22543  25.776   7.776   9.584 -0.1879  0.1805  0.1535
69214POPC   D2A22544  26.050   7.977   9.858 -0.3685 -0.1460 -0.1504
69214POPC   C3A22545  25.974   8.435  10.106  0.0219  0.1558  0.0344
69214POPC   C4A22546  26.113   8.620  10.501 -0.1421 -0.5123 -0.3522
69214POPC   C1B22547  24.894   7.509   9.773  0.1662 -0.0974  0.0551
69214POPC   C2B22548  24.441   7.547   9.734  0.0760  0.0042 -0.1112
69214POPC   C3B22549  24.160   7.906   9.873 -0.0256 -0.0259 -0.2572
69214POPC   C4B22550  23.945   8.322   9.924 -0.0800 -0.0355 -0.0631
69215POPC   NC322551  30.025  11.370   5.144 -0.1444 -0.0549 -0.0240
69215POPC   PO422552  30.277  11.237   4.878  0.0425 -0.2215 -0.5174
69215POPC   GL122553  30.623  11.392   4.978  0.2810  0.0687  0.0849
69215POPC   GL222554  30.582  11.314   5.282  0.0651 -0.1437  0.0335
69215POPC   C1A22555  30.682  11.830   5.138 -0.1323  0.1546 -0.1710
69215POPC   D2A22556  30.682  12.210   5.363 -0.0988 -0.0832  0.0026
69215POPC   C3A22557  30.777  12.211   5.848 -0.0422  0.0607  0.1679
69215POPC   C4A22558  30.631  12.197   6.320 -0.0182 -0.1397 -0.0878
69215POPC   C1B22559  30.432  11.598   5.562 -0.0701 -0.0486  0.3101
69215POPC   C2B22560  30.575  11.758   5.965 -0.2578  0.2060  0.0659
69215POPC   C3B22561  30.442  11.739   6.380  0.0205  0.0466 -0.3253
69215POPC   C4B22562  30.140  11.557   6.690 -0.0567 -0.3749 -0.1332
69216POPC   NC322563  26.780  13.257   4.803 -0.0796 -0.0923  0.0347
69216POPC   PO422564  26.441  13.205   4.955  0.1127  0.0996 -0.2664
69216POPC   GL122565  26.185  13.213   5.380 -0.4426  0.0319  0.2369
69216POPC   GL222566  26.042  12.941   5.336 -0.1225  0.0709 -0.5132
69216POPC   C1A22567  26.380  13.097   5.814 -0.1879  0.1637  0.2450
69216POPC   D2A22568  26.328  13.085   6.207  0.3428 -0.1122 -0.2827
69216POPC   C3A22569  26.748  13.093   6.284 -0.1215  0.2374  0.2347
69216POPC   C4A22570  27.053  13.185   6.662 -0.0703  0.0701  0.1010
69216POPC   C1B22571  25.832  12.837   5.747  0.1086  0.0784 -0.1662
69216POPC   C2B22572  25.793  12.971   6.191 -0.0207 -0.2270 -0.1642
69216POPC   C3B22573  25.664  13.102   6.640  0.2703  0.0518 -0.0159
69216POPC   C4B22574  25.934  13.319   6.946  0.2967  0.2265  0.0554
69217POPC   NC322575  27.087   6.212  12.192  0.1280 -0.0867  0.3762
69217POPC   PO422576  26.811   6.460  12.082  0.2478 -0.3030  0.0551
69217POPC   GL122577  26.891   6.792  12.066 -0.4342  0.3092 -0.3044
69217POPC   GL222578  27.161   6.800  12.005 -0.0803 -0.2543  0.1294
69217POPC   C1A22579  26.912   7.267  12.022 -0.0115  0.2654  0.1169
69217POPC   D2A22580  26.736   7.702  12.153  0.3708  0.4099  0.0347
69217POPC   C3A22581  26.753   7.871  12.629  0.3838  0.0521 -0.0420
69217POPC   C4A22582  26.645   8.089  13.021  0.1249 -0.3308 -0.2505
69217POPC   C1B22583  27.526   6.868  11.732 -0.0111  0.3357  0.2509
69217POPC   C2B22584  27.772   7.158  11.471 -0.2107  0.1098  0.0541
69217POPC   C3B22585  27.874   7.329  11.096  0.1233 -0.0992 -0.1594
69217POPC   C4B22586  27.792   7.609  10.746  0.1805 -0.0074  0.1118
69218POPC   NC322587  31.447   2.347   4.540  0.0341  0.2948  0.0606
69218POPC   PO422588  31.314   1.987   4.685  0.2603  0.2381  0.2513
69218POPC   GL122589  31.440   1.819   5.018 -0.0315 -0.2685  0.3006
69218POPC   GL222590  31.556   1.574   4.848 -0.1698 -0.0872  0.1014
69218POPC   C1A22591  31.338   1.955   5.482 -0.0202  0.2762  0.1258
69218POPC   D2A22592  31.292   2.120   5.949  0.0038  0.1657  0.0580
69218POPC   C3A22593  31.623   1.869   6.151  0.0495 -0.2528 -0.4491
69218POPC   C4A22594  31.959   1.895   6.401  0.2606 -0.0594  0.0974
69218POPC   C1B22595  31.263   1.481   5.239 -0.2199 -0.1928  0.0848
69218POPC   C2B22596  31.478   1.423   5.638  0.1146 -0.5014  0.0752
69218POPC   C3B22597  31.517   1.192   6.000  0.3255 -0.2422  0.0300
69218POPC   C4B22598  31.297   0.965   6.301  0.1004  0.2186  0.0527
69219POPC   NC322599  31.266   8.975   5.899 -0.1172 -0.2563  0.1641
69219POPC   PO422600  30.868   8.893   6.017  0.1067 -0.1696 -0.1544
69219POPC   GL122601  30.990   8.749   6.325 -0.1592  0.0001 -0.1949
69219POPC   GL222602  30.774   8.529   6.353 -0.1700 -0.0441 -0.4008
69219POPC   C1A22603  31.012   9.027   6.735 -0.3137 -0.0931  0.3430
69219POPC   D2A22604  31.167   9.126   7.163 -0.4409 -0.1320 -0.2143
69219POPC   C3A22605  31.431   9.017   7.496 -0.2066 -0.3762  0.2886
69219POPC   C4A22606  31.604   9.189   7.878  0.0544 -0.3218  0.1390
69219POPC   C1B22607  30.754   8.557   6.841 -0.2043  0.2149  0.0553
69219POPC   C2B22608  30.473   8.500   7.266 -0.1573  0.0142  0.1208
69219POPC   C3B22609  30.549   8.729   7.730  0.0348  0.0494 -0.2038
69219POPC   C4B22610  30.420   8.888   8.154 -0.2255  0.0401 -0.0411
69220POPC   NC322611  18.905  12.617   3.976 -0.1722 -0.1844  0.0680
69220POPC   PO422612  18.636  12.873   3.929  0.0119  0.2574  0.0503
69220POPC   GL122613  18.550  13.020   4.294  0.0323 -0.0810  0.0024
69220POPC   GL222614  18.437  13.292   4.154  0.3789 -0.1583  0.1286
69220POPC   C1A22615  18.409  12.738   4.604 -0.4137  0.1013  0.0482
69220POPC   D2A22616  18.454  12.288   4.861  0.4390  0.0431 -0.2574
69220POPC   C3A22617  18.184  12.088   5.206  0.0829 -0.0577 -0.2788
69220POPC   C4A22618  18.114  12.342   5.580  0.3415  0.3560 -0.0907
69220POPC   C1B22619  18.033  13.253   4.328 -0.0299  0.1014  0.0266
69220POPC   C2B22620  17.829  13.435   4.697 -0.0678 -0.2263  0.2679
69220POPC   C3B22621  18.020  13.628   5.066  0.0828 -0.1185 -0.4321
69220POPC   C4B22622  18.134  14.015   5.250  0.0940 -0.0140  0.0943
69221POPC   NC322623  19.901  11.676   4.181  0.2537 -0.0756  0.2919
69221POPC   PO422624  19.822  12.064   4.111  0.4661 -0.2445 -0.1296
69221POPC   GL122625  19.539  12.029   4.363 -0.0464  0.1014  0.1401
69221POPC   GL222626  19.640  12.245   4.560  0.1027 -0.4193 -0.1332
69221POPC   C1A22627  19.562  11.896   4.856 -0.0987 -0.0457  0.0136
69221POPC   D2A22628  19.399  12.117   5.213 -0.0087  0.1093 -0.0322
69221POPC   C3A22629  19.601  12.467   5.503 -0.0420 -0.0818 -0.1281
69221POPC   C4A22630  19.704  12.938   5.531 -0.2955  0.0179  0.2932
69221POPC   C1B22631  19.404  12.631   4.785  0.0396 -0.1918  0.3243
69221POPC   C2B22632  19.292  12.697   5.256 -0.0595  0.0743  0.0521
69221POPC   C3B22633  19.232  12.880   5.663 -0.2495  0.1632  0.0142
69221POPC   C4B22634  19.050  12.725   6.076 -0.1134 -0.0669 -0.1590
69222POPC   NC322635  27.484  16.944   5.041  0.0920 -0.3444 -0.1890
69222POPC   PO422636  27.273  16.605   5.031 -0.2285 -0.4191  0.1922
69222POPC   GL122637  27.236  16.515   5.443  0.2263 -0.6239  0.0440
69222POPC   GL222638  27.082  16.737   5.477  0.1223 -0.0051 -0.2229
69222POPC   C1A22639  27.277  16.265   5.866  0.0207 -0.1849 -0.1604
69222POPC   D2A22640  27.311  15.844   6.140  0.3226 -0.1894 -0.0225
69222POPC   C3A22641  27.227  15.747   6.599  0.2421 -0.2219  0.1929
69222POPC   C4A22642  26.897  15.856   6.899 -0.2936 -0.2453 -0.0457
69222POPC   C1B22643  27.283  16.767   5.874  0.0280  0.1578 -0.0637
69222POPC   C2B22644  27.388  16.639   6.358  0.2378 -0.1859  0.0313
69222POPC   C3B22645  27.157  16.608   6.744 -0.1147  0.1960  0.1989
69222POPC   C4B22646  26.851  16.422   7.024 -0.0349 -0.0616  0.2888
69223POPC   NC322647  21.458   9.562   4.639  0.1278 -0.0105 -0.0804
69223POPC   PO422648  21.148   9.818   4.728  0.2259  0.2740  0.0609
69223POPC   GL122649  21.155   9.856   5.066 -0.0306 -0.2380 -0.2071
69223POPC   GL222650  21.104   9.619   5.213  0.2556  0.2801  0.2423
69223POPC   C1A22651  21.085  10.072   5.480  0.1018  0.2970 -0.1444
69223POPC   D2A22652  20.984  10.013   5.959  0.2757 -0.1820 -0.1863
69223POPC   C3A22653  21.149  10.252   6.334  0.2002 -0.0643 -0.1760
69223POPC   C4A22654  21.174  10.227   6.838  0.0492 -0.1881 -0.2311
69223POPC   C1B22655  21.207   9.606   5.644 -0.0541 -0.0948 -0.0391
69223POPC   C2B22656  21.266   9.695   6.131 -0.0381  0.2401 -0.0761
69223POPC   C3B22657  21.503   9.908   6.376 -0.0571 -0.1320 -0.4681
69223POPC   C4B22658  21.623   9.900   6.828 -0.0958  0.2971  0.0326
69224POPC   NC322659  27.883   6.279   9.080  0.0899  0.0591 -0.1214
69224POPC   PO422660  27.662   6.000   8.882 -0.0342  0.0650 -0.0393
69224POPC   GL122661  27.985   5.784   9.027  0.4309 -0.0255 -0.0533
69224POPC   GL222662  28.044   5.841   9.389 -0.2638  0.2519  0.0298
69224POPC   C1A22663  28.377   6.057   9.017  0.3346 -0.0525 -0.3204
69224POPC   D2A22664  28.630   6.372   8.952  0.0366 -0.2294  0.0227
69224POPC   C3A22665  28.802   6.555   9.344 -0.2035  0.0822  0.1992
69224POPC   C4A22666  28.882   6.644   9.771 -0.2869  0.1305 -0.1294
69224POPC   C1B22667  28.489   5.812   9.481  0.4523  0.1592  0.5754
69224POPC   C2B22668  28.883   5.573   9.586  0.2231  0.0438 -0.5621
69224POPC   C3B22669  29.178   5.243   9.649 -0.2537 -0.3156  0.0229
69224POPC   C4B22670  29.569   5.123   9.814  0.1977  0.1776  0.2581
69225POPC   NC322671  21.429  12.796   4.316 -0.1930  0.2706  0.0759
69225POPC   PO422672  21.065  12.892   4.279 -0.0656 -0.2283  0.1950
69225POPC   GL122673  20.960  12.714   4.570  0.1507 -0.1440 -0.0470
69225POPC   GL222674  21.059  12.598   4.769  0.0366  0.0957 -0.2585
69225POPC   C1A22675  20.600  12.510   4.758 -0.1686 -0.0250  0.1654
69225POPC   D2A22676  20.116  12.442   4.812  0.2207  0.1198 -0.1077
69225POPC   C3A22677  19.892  12.144   5.167  0.1876 -0.0808  0.0711
69225POPC   C4A22678  19.667  11.702   5.370  0.2290  0.2070 -0.2418
69225POPC   C1B22679  20.874  12.615   5.164 -0.3255 -0.1815 -0.0602
69225POPC   C2B22680  20.640  12.468   5.491  0.0299  0.0850  0.0713
69225POPC   C3B22681  20.583  12.628   5.935  0.4091  0.0457 -0.0369
69225POPC   C4B22682  20.538  12.699   6.350 -0.0653 -0.0651 -0.0456
69226POPC   NC322683  25.174   5.709  13.212 -0.3179  0.1117  0.1356
69226POPC   PO422684  25.252   5.959  12.952 -0.0294  0.3281  0.1903
69226POPC   GL122685  25.033   6.248  13.156  0.0422 -0.1778  0.3112
69226POPC   GL222686  24.789   6.165  13.042 -0.3603 -0.1112  0.3989
69226POPC   C1A22687  24.891   6.671  13.084  0.0132  0.2560  0.2488
69226POPC   D2A22688  24.794   7.059  13.329 -0.0200 -0.0312  0.1131
69226POPC   C3A22689  24.443   7.273  13.116 -0.1387  0.0030  0.0677
69226POPC   C4A22690  24.175   7.481  12.853  0.1481  0.0006  0.1116
69226POPC   C1B22691  24.365   6.316  13.199  0.1310  0.0583  0.0252
69226POPC   C2B22692  23.936   6.511  13.187  0.0594  0.0004  0.1211
69226POPC   C3B22693  23.585   6.223  13.147  0.1267 -0.1130  0.0472
69226POPC   C4B22694  23.107   6.110  13.191  0.0330  0.0116 -0.0997
69227POPC   NC322695  27.982   3.932   6.109  0.1091  0.0953  0.1081
69227POPC   PO422696  27.848   3.586   6.088  0.1093  0.0414 -0.0638
69227POPC   GL122697  28.182   3.486   6.288  0.0756 -0.2730 -0.3414
69227POPC   GL222698  28.320   3.217   6.282  0.1351  0.3046 -0.1105
69227POPC   C1A22699  28.351   3.465   6.760  0.0664  0.0390 -0.2804
69227POPC   D2A22700  28.521   3.169   7.057  0.1703 -0.0869  0.0033
69227POPC   C3A22701  28.683   2.830   7.344 -0.3120 -0.1231 -0.3548
69227POPC   C4A22702  28.950   2.887   7.677 -0.2630 -0.0769 -0.1258
69227POPC   C1B22703  28.330   2.941   6.627 -0.4738 -0.0098 -0.2659
69227POPC   C2B22704  28.633   2.747   6.866 -0.1007  0.0394 -0.1037
69227POPC   C3B22705  29.015   2.544   7.031  0.1079  0.2041  0.1831
69227POPC   C4B22706  29.485   2.406   6.985 -0.0050  0.1552  0.3037
69228POPC   NC322707  20.704  11.076   3.951 -0.0639 -0.0809  0.0201
69228POPC   PO422708  20.841  11.028   4.308 -0.0127 -0.2558  0.0213
69228POPC   GL122709  20.765  11.028   4.666 -0.0827 -0.3516 -0.0179
69228POPC   GL222710  20.891  10.821   4.914 -0.1309  0.0139  0.0836
69228POPC   C1A22711  20.408  10.987   4.894 -0.1265  0.0805 -0.1153
69228POPC   D2A22712  20.138  11.235   5.183 -0.1744  0.0788  0.0665
69228POPC   C3A22713  20.383  11.085   5.555 -0.0133 -0.1018 -0.0008
69228POPC   C4A22714  20.791  10.927   5.669 -0.1914 -0.1014 -0.1845
69228POPC   C1B22715  20.689  10.566   5.290  0.1857 -0.0839 -0.3459
69228POPC   C2B22716  20.780  10.379   5.696 -0.0226  0.1571 -0.1409
69228POPC   C3B22717  20.621  10.358   6.145  0.1721  0.0229  0.3430
69228POPC   C4B22718  20.676  10.673   6.504  0.1106 -0.0220  0.1678
69229POPC   NC322719  25.267   6.940  10.929 -0.1627  0.1853 -0.0813
69229POPC   PO422720  24.902   6.790  10.854  0.1587 -0.1329 -0.2155
69229POPC   GL122721  24.518   6.837  10.897 -0.0458  0.4009 -0.0726
69229POPC   GL222722  24.534   6.829  11.197 -0.1055 -0.2961 -0.2166
69229POPC   C1A22723  24.062   6.989  10.916 -0.0009  0.3563 -0.1349
69229POPC   D2A22724  23.641   6.806  10.925  0.1657 -0.2904  0.0733
69229POPC   C3A22725  23.270   6.971  11.250 -0.0556  0.0124 -0.0121
69229POPC   C4A22726  22.899   6.742  11.405 -0.0427  0.1303 -0.0743
69229POPC   C1B22727  24.114   6.742  11.394 -0.2009 -0.2981  0.3437
69229POPC   C2B22728  23.936   7.117  11.641  0.1862  0.0865 -0.2379
69229POPC   C3B22729  23.640   7.086  11.942  0.4080 -0.1155 -0.0421
69229POPC   C4B22730  23.211   7.151  12.171 -0.0078 -0.6289  0.0890
69230POPC   NC322731  26.153   3.720   6.955 -0.0446 -0.3028 -0.1615
69230POPC   PO422732  25.949   3.484   6.788 -0.1499  0.0293  0.0988
69230POPC   GL122733  26.068   3.154   6.910  0.0234  0.1602  0.1468
69230POPC   GL222734  26.257   3.236   7.184  0.1503  0.2522 -0.0589
69230POPC   C1A22735  25.914   2.865   7.229 -0.2860 -0.1044 -0.1257
69230POPC   D2A22736  25.890   2.530   7.513 -0.0021 -0.2319 -0.1896
69230POPC   C3A22737  25.490   2.514   7.760 -0.0958  0.0346  0.0500
69230POPC   C4A22738  25.331   2.280   8.108  0.1569 -0.0544 -0.0356
69230POPC   C1B22739  26.656   3.137   7.390  0.0303 -0.0712 -0.1109
69230POPC   C2B22740  26.772   3.107   7.811  0.0689  0.1012  0.2754
69230POPC   C3B22741  27.066   3.058   8.168 -0.1665  0.1623 -0.3701
69230POPC   C4B22742  27.182   2.737   8.434 -0.1483 -0.2193 -0.1057
69231POPC   NC322743  32.442   8.705   5.156  0.0432  0.0196  0.4149
69231POPC   PO422744  32.501   8.985   4.860  0.0545  0.2180  0.1291
69231POPC   GL122745  32.550   9.155   5.271 -0.0977  0.0943  0.2810
69231POPC   GL222746  32.523   9.414   5.393  0.3995  0.0074  0.2414
69231POPC   C1A22747  32.620   9.100   5.762 -0.3290 -0.1427 -0.0844
69231POPC   D2A22748  32.710   8.965   6.190  0.0823 -0.1704  0.1152
69231POPC   C3A22749  32.848   9.357   6.405  0.0784  0.2323  0.0680
69231POPC   C4A22750  33.253   9.548   6.563 -0.0004 -0.2115 -0.1030
69231POPC   C1B22751  32.744   9.620   5.747 -0.3772  0.4646 -0.3709
69231POPC   C2B22752  32.828   9.814   6.168  0.0117  0.1586  0.0177
69231POPC   C3B22753  32.932   9.904   6.626 -0.2805 -0.2324  0.1647
69231POPC   C4B22754  33.183  10.116   7.022 -0.1331 -0.0819  0.3485
69232POPC   NC322755  18.535   4.554   5.241  0.1140  0.3433 -0.0863
69232POPC   PO422756  18.773   4.811   5.046 -0.2424 -0.4259  0.3150
69232POPC   GL122757  18.915   4.822   5.478 -0.2558 -0.1599 -0.0238
69232POPC   GL222758  18.826   5.115   5.505  0.0599  0.0284 -0.1552
69232POPC   C1A22759  18.785   4.476   5.748  0.0023  0.2032 -0.1155
69232POPC   D2A22760  18.625   4.490   6.192  0.0551  0.2511  0.0114
69232POPC   C3A22761  18.497   4.808   6.467 -0.1554  0.1248  0.0895
69232POPC   C4A22762  18.237   4.814   6.862 -0.0115  0.3137 -0.2741
69232POPC   C1B22763  18.749   5.494   5.834 -0.1668 -0.2958  0.0932
69232POPC   C2B22764  19.012   5.662   6.178  0.0251  0.2565  0.1798
69232POPC   C3B22765  19.111   5.889   6.537  0.2195 -0.0874  0.1553
69232POPC   C4B22766  18.972   5.949   6.990  0.0434  0.0051 -0.0481
69233POPC   NC322767  26.350   6.505  11.331  0.1313  0.2103  0.0167
69233POPC   PO422768  26.527   6.836  11.195 -0.0172  0.0517  0.0486
69233POPC   GL122769  26.805   6.897  11.172  0.0495 -0.0881  0.0721
69233POPC   GL222770  27.058   6.914  11.205 -0.0133 -0.2525 -0.1322
69233POPC   C1A22771  26.805   7.383  11.173  0.1666 -0.1077 -0.0574
69233POPC   D2A22772  26.993   7.742  11.269 -0.0615 -0.0130 -0.0202
69233POPC   C3A22773  26.877   7.940  11.660 -0.1252  0.2528  0.1905
69233POPC   C4A22774  26.900   8.439  11.772  0.4558 -0.0071  0.1417
69233POPC   C1B22775  27.478   6.764  11.203 -0.1039  0.0947 -0.0456
69233POPC   C2B22776  27.911   6.786  11.062  0.0071 -0.0352  0.0536
69233POPC   C3B22777  28.365   6.788  10.960 -0.0830 -0.0967 -0.1455
69233POPC   C4B22778  28.714   6.664  11.230  0.0602 -0.0058 -0.1211
69234POPC   NC322779  22.406  15.146   5.146 -0.1411 -0.1356 -0.1367
69234POPC   PO422780  22.729  15.291   4.979  0.0008  0.0028  0.1842
69234POPC   GL122781  22.795  15.058   5.307  0.1691 -0.1034 -0.3843
69234POPC   GL222782  22.901  15.254   5.502 -0.0870  0.1266 -0.0817
69234POPC   C1A22783  22.440  14.858   5.572 -0.1835 -0.0668  0.0756
69234POPC   D2A22784  22.129  14.799   5.929 -0.5553  0.0208  0.1875
69234POPC   C3A22785  22.204  15.054   6.364 -0.3013 -0.1140  0.0592
69234POPC   C4A22786  22.480  15.184   6.728  0.3671  0.1537 -0.1421
69234POPC   C1B22787  23.168  15.354   5.920 -0.2094 -0.0792  0.2073
69234POPC   C2B22788  23.508  15.473   6.240 -0.1741  0.1383  0.2378
69234POPC   C3B22789  23.633  15.771   6.602  0.2149 -0.1506  0.1507
69234POPC   C4B22790  23.580  15.850   7.061 -0.2455 -0.0355 -0.2330
69235POPC   NC322791  19.764  17.870   4.342  0.0966  0.0471  0.2970
69235POPC   PO422792  19.824  17.998   4.695 -0.3319 -0.0220  0.1947
69235POPC   GL122793  19.634  17.918   4.979 -0.0232 -0.0963  0.1126
69235POPC   GL222794  19.574  17.658   5.123  0.3113  0.4073 -0.1862
69235POPC   C1A22795  19.573  18.035   5.424  0.1862  0.1416  0.1292
69235POPC   D2A22796  19.562  18.099   5.876 -0.0953 -0.0008 -0.0066
69235POPC   C3A22797  19.207  18.137   6.181 -0.4951  0.2001  0.2091
69235POPC   C4A22798  19.091  18.168   6.631 -0.0101  0.3885 -0.3188
69235POPC   C1B22799  19.646  17.311   5.431  0.2231 -0.2244 -0.1866
69235POPC   C2B22800  19.816  17.181   5.817 -0.1393  0.1685  0.2153
69235POPC   C3B22801  20.071  17.325   6.182  0.1981  0.1602 -0.4777
69235POPC   C4B22802  20.161  17.177   6.636  0.3514 -0.0239 -0.1894
69236POPC   NC322803   0.128   9.212   5.055 -0.1463 -0.0224 -0.0297
69236POPC   PO422804   0.032   8.846   5.214 -0.2912 -0.0321  0.0791
69236POPC   GL122805   0.062   8.697   5.486 -0.1924  0.1602  0.1592
69236POPC   GL222806  -0.144   8.566   5.602  0.2676 -0.3932 -0.0193
69236POPC   C1A22807   0.214   8.954   5.835 -0.2482 -0.0555  0.1582
69236POPC   D2A22808   0.463   9.296   6.088  0.0118  0.0944 -0.2142
69236POPC   C3A22809   0.783   9.286   6.451 -0.0518  0.1012 -0.0885
69236POPC   C4A22810   1.125   9.437   6.710 -0.1372  0.1618  0.2239
69236POPC   C1B22811  -0.010   8.496   5.982  0.0131  0.0881 -0.1966
69236POPC   C2B22812   0.280   8.708   6.320  0.0617  0.0875  0.0792
69236POPC   C3B22813   0.359   9.021   6.616 -0.1400 -0.2951  0.2359
69236POPC   C4B22814   0.701   9.145   6.939  0.1754  0.0697 -0.0428
69237POPC   NC322815  24.128  12.837   4.637  0.0304  0.3282 -0.2544
69237POPC   PO422816  24.270  13.187   4.713  0.2526  0.1211  0.0064
69237POPC   GL122817  24.151  13.153   5.173  0.1724  0.0754 -0.0629
69237POPC   GL222818  24.387  12.965   5.294 -0.1360  0.2615  0.1452
69237POPC   C1A22819  23.800  13.284   5.452 -0.0983 -0.0021  0.0622
69237POPC   D2A22820  23.526  13.245   5.776  0.2894  0.1865  0.0883
69237POPC   C3A22821  23.593  13.539   6.112  0.0242 -0.0078 -0.0501
69237POPC   C4A22822  23.774  13.940   6.292  0.1179  0.0718 -0.1977
69237POPC   C1B22823  24.358  12.875   5.765  0.1297 -0.3313  0.2812
69237POPC   C2B22824  24.439  12.941   6.208 -0.0556 -0.2307  0.1461
69237POPC   C3B22825  24.748  12.787   6.514 -0.0635 -0.0927 -0.0918
69237POPC   C4B22826  25.051  12.566   6.749  0.3082  0.4447 -0.1743
69238POPC   NC322827  27.450   4.993   6.787 -0.1154 -0.0802 -0.2321
69238POPC   PO422828  27.602   5.225   7.082 -0.1785  0.0613  0.0588
69238POPC   GL122829  27.689   5.037   7.503  0.2116  0.1433  0.3859
69238POPC   GL222830  27.944   5.031   7.444  0.0262  0.1279 -0.1682
69238POPC   C1A22831  27.447   4.692   7.758 -0.0124 -0.2814 -0.1519
69238POPC   D2A22832  26.961   4.610   7.723 -0.0626  0.1290 -0.1020
69238POPC   C3A22833  26.900   4.216   7.842 -0.0767  0.1080  0.1535
69238POPC   C4A22834  26.913   3.761   7.611  0.1321 -0.3345  0.0988
69238POPC   C1B22835  27.921   4.538   7.605  0.0345  0.2958  0.1961
69238POPC   C2B22836  27.877   4.320   7.977 -0.2412  0.3393  0.1592
69238POPC   C3B22837  28.113   3.953   8.230 -0.0803  0.1538 -0.1271
69238POPC   C4B22838  28.286   3.705   8.579  0.2043  0.1892  0.0609
69239POPC   NC322839  19.072  10.396   4.327 -0.1325  0.1217 -0.0420
69239POPC   PO422840  19.089  10.680   4.540 -0.1961 -0.0204  0.0946
69239POPC   GL122841  19.164  10.525   4.931 -0.3659 -0.0541 -0.4278
69239POPC   GL222842  18.933  10.357   4.866  0.1230  0.4650 -0.2774
69239POPC   C1A22843  19.385  10.251   5.217 -0.1085  0.2052  0.0945
69239POPC   D2A22844  19.281  10.311   5.668 -0.2004 -0.0530  0.0891
69239POPC   C3A22845  19.540  10.612   5.913 -0.1909  0.0802 -0.0481
69239POPC   C4A22846  19.433  11.052   6.060  0.0023  0.2224 -0.0104
69239POPC   C1B22847  18.837  10.386   5.306 -0.2404 -0.1279  0.0290
69239POPC   C2B22848  18.829  10.470   5.760 -0.0813  0.4163  0.0083
69239POPC   C3B22849  18.909  10.721   6.159  0.5413  0.1871  0.0283
69239POPC   C4B22850  19.076  10.709   6.604  0.0026 -0.0429 -0.1854
69240POPC   NC322851  17.666   2.912   4.943  0.0119  0.1113  0.0079
69240POPC   PO422852  17.814   2.573   4.784 -0.2436  0.3178 -0.1773
69240POPC   GL122853  17.711   2.442   5.119 -0.1904 -0.0194 -0.2442
69240POPC   GL222854  17.488   2.223   5.081  0.0476 -0.0262 -0.0181
69240POPC   C1A22855  17.883   2.690   5.500  0.1455  0.2188 -0.4200
69240POPC   D2A22856  18.213   2.839   5.759 -0.0219  0.1500  0.0776
69240POPC   C3A22857  18.063   2.880   6.211  0.2392  0.1984 -0.2585
69240POPC   C4A22858  17.893   3.077   6.564 -0.0294  0.0792 -0.1956
69240POPC   C1B22859  17.716   1.961   5.422  0.1489  0.3908 -0.2238
69240POPC   C2B22860  17.814   1.605   5.715  0.2490 -0.1861 -0.3703
69240POPC   C3B22861  17.711   1.234   5.973 -0.3332  0.1392  0.3380
69240POPC   C4B22862  17.637   0.876   6.202 -0.0210 -0.0871  0.2781
69241POPC   NC322863  19.342   1.966   4.436  0.1941 -0.0995  0.1117
69241POPC   PO422864  19.606   2.279   4.458  0.0720  0.1855 -0.2723
69241POPC   GL122865  19.733   2.263   4.858 -0.1314  0.2179  0.0667
69241POPC   GL222866  19.594   2.045   5.018  0.1183  0.2246  0.0291
69241POPC   C1A22867  19.743   2.389   5.338  0.1119  0.1826 -0.0999
69241POPC   D2A22868  19.816   2.539   5.760  0.0138 -0.0337  0.0036
69241POPC   C3A22869  19.759   2.494   6.206  0.2287 -0.3217  0.0764
69241POPC   C4A22870  19.489   2.404   6.553 -0.1457 -0.1224 -0.0904
69241POPC   C1B22871  19.176   1.995   5.267  0.0757 -0.1312 -0.0217
69241POPC   C2B22872  19.214   1.780   5.700 -0.3251 -0.2345 -0.0287
69241POPC   C3B22873  19.211   1.589   6.124 -0.0016 -0.1732  0.2078
69241POPC   C4B22874  19.287   1.122   6.156 -0.1625  0.1492  0.1373
69242POPC   NC322875  16.835   3.165   4.975  0.1148 -0.1960  0.2014
69242POPC   PO422876  17.183   3.135   4.814  0.0230 -0.1626 -0.3324
69242POPC   GL122877  17.208   2.946   5.170 -0.1027 -0.3143 -0.2011
69242POPC   GL222878  17.344   3.057   5.370 -0.0543 -0.2435 -0.0549
69242POPC   C1A22879  17.328   2.533   5.397  0.0246  0.0381 -0.1543
69242POPC   D2A22880  17.302   2.140   5.612 -0.0903  0.0321 -0.4473
69242POPC   C3A22881  17.747   2.215   5.785  0.0986  0.1435  0.0570
69242POPC   C4A22882  18.088   2.381   6.008  0.2801  0.3099  0.0449
69242POPC   C1B22883  17.328   3.102   5.865 -0.2874  0.1479  0.2111
69242POPC   C2B22884  17.406   3.028   6.317 -0.2127  0.1091  0.1190
69242POPC   C3B22885  17.468   2.974   6.768  0.0361 -0.0451  0.1693
69242POPC   C4B22886  17.574   2.627   7.046 -0.1253  0.2147  0.3189
69243POPC   NC322887  30.347  14.631   4.685 -0.0194 -0.1029  0.0608
69243POPC   PO422888  30.122  14.378   4.565  0.1791  0.2581 -0.0638
69243POPC   GL122889  30.034  14.368   4.983 -0.0510  0.0576 -0.1458
69243POPC   GL222890  29.828  14.207   4.942 -0.0146  0.0564 -0.1578
69243POPC   C1A22891  30.160  14.050   5.246 -0.1130  0.0960 -0.0013
69243POPC   D2A22892  30.512  13.737   5.188 -0.2947  0.0956  0.0757
69243POPC   C3A22893  30.858  13.955   5.213 -0.1461 -0.0309 -0.0426
69243POPC   C4A22894  31.145  14.265   5.429 -0.1277 -0.2327  0.1883
69243POPC   C1B22895  29.745  14.351   5.394  0.0686  0.2778  0.0930
69243POPC   C2B22896  29.624  14.328   5.841 -0.2817  0.0483 -0.0547
69243POPC   C3B22897  29.605  14.509   6.204 -0.1465  0.3342  0.1004
69243POPC   C4B22898  29.524  14.845   6.582 -0.1030  0.1978  0.0414
69244POPC   NC322899  23.767   2.181   6.046 -0.1363 -0.2091 -0.0642
69244POPC   PO422900  23.690   2.557   5.977  0.0021 -0.0797  0.2258
69244POPC   GL122901  23.326   2.357   6.056  0.2801  0.3144 -0.5158
69244POPC   GL222902  23.372   2.438   6.350 -0.1319  0.2611  0.0052
69244POPC   C1A22903  22.994   2.116   6.257  0.0074  0.0959 -0.2093
69244POPC   D2A22904  22.810   2.417   6.533  0.0267 -0.0711 -0.2762
69244POPC   C3A22905  22.862   2.504   6.970 -0.0802 -0.0138  0.0355
69244POPC   C4A22906  22.950   2.554   7.441 -0.0550  0.3403  0.0777
69244POPC   C1B22907  23.333   2.356   6.840 -0.0619 -0.2226 -0.0515
69244POPC   C2B22908  23.161   2.182   7.190 -0.1063  0.3687 -0.0590
69244POPC   C3B22909  22.673   2.078   7.291 -0.3347  0.0220  0.1987
69244POPC   C4B22910  22.423   1.712   7.232  0.0821 -0.1868  0.1757
69245POPC   NC322911  26.184  14.347   5.268  0.0534 -0.0903  0.0878
69245POPC   PO422912  25.918  14.135   5.053  0.0461  0.2227 -0.0391
69245POPC   GL122913  26.036  13.910   5.370  0.0803 -0.1718  0.1363
69245POPC   GL222914  26.277  13.927   5.446  0.1291 -0.0955  0.1519
69245POPC   C1A22915  26.052  13.551   5.698  0.1004  0.1809  0.1995
69245POPC   D2A22916  25.986  13.459   6.197  0.1193 -0.0947 -0.0414
69245POPC   C3A22917  25.825  13.885   6.353 -0.2602 -0.3671 -0.1108
69245POPC   C4A22918  25.463  14.017   6.527 -0.2469 -0.3659 -0.0987
69245POPC   C1B22919  26.538  13.836   5.764  0.0766 -0.0940 -0.0427
69245POPC   C2B22920  26.865  14.014   6.063  0.1934  0.1785 -0.0579
69245POPC   C3B22921  27.082  14.020   6.444 -0.4255  0.0247 -0.2432
69245POPC   C4B22922  27.325  14.105   6.828  0.1876 -0.1676 -0.1700
69246POPC   NC322923  17.713   9.426   4.537 -0.1367 -0.4809  0.3821
69246POPC   PO422924  17.426   9.579   4.780 -0.0996 -0.0349 -0.2490
69246POPC   GL122925  17.401   9.552   5.149  0.1228 -0.0196  0.3306
69246POPC   GL222926  17.262   9.356   5.197  0.4158  0.0242  0.0434
69246POPC   C1A22927  17.483   9.589   5.632  0.1879 -0.1278  0.0702
69246POPC   D2A22928  17.493   9.877   5.958 -0.0259 -0.2372  0.2002
69246POPC   C3A22929  17.560   9.958   6.409 -0.0140  0.0367  0.0849
69246POPC   C4A22930  17.882   9.888   6.765  0.0045 -0.2644 -0.2868
69246POPC   C1B22931  17.183   9.171   5.616  0.1394 -0.2511 -0.1597
69246POPC   C2B22932  17.104   9.209   6.074 -0.2373  0.2065 -0.1483
69246POPC   C3B22933  17.337   9.109   6.527 -0.0522 -0.4836  0.2246
69246POPC   C4B22934  17.297   9.205   7.021 -0.4141 -0.0887  0.1713
69247POPC   NC322935  25.351   5.805  12.514  0.0087  0.1049 -0.1140
69247POPC   PO422936  25.289   5.486  12.291  0.1026  0.1037 -0.1777
69247POPC   GL122937  24.868   5.274  12.325  0.2087 -0.4917  0.1100
69247POPC   GL222938  24.779   5.150  12.058  0.0699 -0.1755 -0.0900
69247POPC   C1A22939  24.539   5.175  12.645 -0.2221  0.3846  0.2480
69247POPC   D2A22940  24.533   4.849  12.952 -0.0885 -0.0166 -0.3979
69247POPC   C3A22941  24.088   4.832  13.084 -0.0361 -0.2023  0.1508
69247POPC   C4A22942  23.715   4.806  13.393  0.2486  0.0014 -0.0470
69247POPC   C1B22943  24.362   5.001  12.199 -0.2432  0.0820 -0.0363
69247POPC   C2B22944  24.146   4.799  12.523 -0.0678  0.0716  0.2918
69247POPC   C3B22945  23.771   4.716  12.678 -0.2541  0.0281  0.1939
69247POPC   C4B22946  23.419   4.677  12.971 -0.0195  0.0829 -0.3503
69248POPC   NC322947  30.334   8.382   6.516 -0.0518  0.1704 -0.0837
69248POPC   PO422948  30.096   8.625   6.293  0.0487 -0.1547  0.2762
69248POPC   GL122949  30.037   8.754   6.717  0.1752 -0.1648 -0.0275
69248POPC   GL222950  29.769   8.625   6.743  0.0859  0.1312 -0.0676
69248POPC   C1A22951  30.114   8.919   7.114  0.1144  0.1006  0.2891
69248POPC   D2A22952  30.140   8.799   7.519  0.1092  0.2612  0.1472
69248POPC   C3A22953  29.961   8.781   7.961  0.0373 -0.1406 -0.1089
69248POPC   C4A22954  29.981   9.006   8.349  0.0126  0.0145  0.2342
69248POPC   C1B22955  29.618   8.887   7.104 -0.2436 -0.2500 -0.1902
69248POPC   C2B22956  29.729   9.046   7.500  0.0685 -0.2611 -0.1744
69248POPC   C3B22957  29.708   9.215   7.942 -0.1083 -0.1267 -0.3425
69248POPC   C4B22958  29.591   9.660   8.068 -0.2219  0.0242 -0.2186
69249POPC   NC322959  23.794  13.173   4.901  0.1167 -0.2046  0.1480
69249POPC   PO422960  23.581  12.932   4.679 -0.3458  0.2638  0.0925
69249POPC   GL122961  23.379  12.999   4.989  0.1234  0.2639 -0.1042
69249POPC   GL222962  23.532  12.854   5.199  0.0275  0.0746  0.1861
69249POPC   C1A22963  23.217  13.055   5.437  0.2137  0.2086 -0.2049
69249POPC   D2A22964  23.171  12.944   5.891 -0.0063  0.0521 -0.2292
69249POPC   C3A22965  23.572  12.827   6.124 -0.0968 -0.0088  0.0822
69249POPC   C4A22966  23.612  12.689   6.615  0.3047  0.2975  0.0225
69249POPC   C1B22967  23.461  12.570   5.519  0.0327 -0.1506 -0.1276
69249POPC   C2B22968  23.388  12.338   5.947 -0.3307  0.0302 -0.2514
69249POPC   C3B22969  23.587  12.229   6.411 -0.0244  0.1673  0.3207
69249POPC   C4B22970  23.586  12.180   6.838 -0.3460  0.1036 -0.0659
69250POPC   NC322971  22.832   6.335   6.953 -0.0251 -0.1269 -0.0030
69250POPC   PO422972  22.683   6.112   6.656  0.0797  0.1116 -0.0739
69250POPC   GL122973  22.384   6.044   6.873 -0.1061  0.0798  0.0473
69250POPC   GL222974  22.468   6.065   7.207 -0.1964  0.2305 -0.3692
69250POPC   C1A22975  22.005   6.261   7.020 -0.0783  0.0429  0.2603
69250POPC   D2A22976  21.697   6.574   7.166  0.0797  0.3810  0.2597
69250POPC   C3A22977  21.254   6.509   7.221 -0.1443  0.0644 -0.2812
69250POPC   C4A22978  20.912   6.517   7.502 -0.0935 -0.0919  0.2145
69250POPC   C1B22979  22.048   6.134   7.486 -0.5403 -0.0935 -0.1418
69250POPC   C2B22980  21.642   6.369   7.618  0.3420  0.0285 -0.0886
69250POPC   C3B22981  21.459   6.651   7.971 -0.1079  0.0708 -0.2824
69250POPC   C4B22982  21.259   6.583   8.381  0.1041  0.2411 -0.1314
69251POPC   NC322983  27.989   2.969   5.454  0.2227  0.0750  0.1449
69251POPC   PO422984  28.284   2.976   5.736 -0.1594 -0.0123  0.4336
69251POPC   GL122985  28.148   2.674   5.966  0.1672 -0.4643  0.0305
69251POPC   GL222986  28.061   2.423   5.782  0.0670 -0.0208 -0.3377
69251POPC   C1A22987  28.378   2.518   6.360 -0.1436  0.1986 -0.0554
69251POPC   D2A22988  28.739   2.398   6.572  0.2854  0.1143  0.0223
69251POPC   C3A22989  29.062   2.701   6.572 -0.4351 -0.1453 -0.0056
69251POPC   C4A22990  29.244   3.091   6.464 -0.2589 -0.2741  0.2513
69251POPC   C1B22991  28.218   2.116   6.108 -0.0333 -0.2205  0.1898
69251POPC   C2B22992  28.228   1.745   6.286  0.1257 -0.0869  0.2741
69251POPC   C3B22993  28.179   1.411   6.556 -0.0225  0.0335 -0.3247
69251POPC   C4B22994  28.091   1.129   6.910 -0.1953 -0.0158 -0.0623
69252POPC   NC322995  21.092  14.190   4.359 -0.0160  0.0133  0.0999
69252POPC   PO422996  21.449  14.077   4.485 -0.0856 -0.2970  0.1808
69252POPC   GL122997  21.664  14.065   4.749 -0.2065 -0.2415 -0.0557
69252POPC   GL222998  21.538  13.938   4.968  0.1237 -0.0151 -0.0725
69252POPC   C1A22999  21.810  14.257   5.105  0.0407  0.0255 -0.1737
69252POPC   D2A23000  21.964  14.413   5.537 -0.0327  0.0952 -0.0103
69252POPC   C3A23001  21.695  14.409   5.908 -0.0980  0.0715  0.2620
69252POPC   C4A23002  21.392  14.382   6.240  0.1901 -0.0721  0.0065
69252POPC   C1B23003  21.146  13.771   5.204 -0.0402 -0.0808 -0.2053
69252POPC   C2B23004  21.031  13.674   5.667 -0.0792  0.0151 -0.1366
69252POPC   C3B23005  21.172  13.357   5.995 -0.0433 -0.1028 -0.2260
69252POPC   C4B23006  21.040  12.882   6.024 -0.1640 -0.1986 -0.0710
69253POPC   NC323007  24.747   3.006   6.361 -0.0321 -0.0519 -0.3259
69253POPC   PO423008  24.513   2.716   6.286 -0.0081  0.0429  0.2187
69253POPC   GL123009  24.336   2.578   6.662 -0.3518  0.4266  0.4954
69253POPC   GL223010  24.578   2.656   6.809 -0.2967  0.1017 -0.0007
69253POPC   C1A23011  23.955   2.386   6.871  0.0529  0.0462 -0.0231
69253POPC   D2A23012  23.655   2.239   7.200  0.2204 -0.2465  0.3443
69253POPC   C3A23013  23.401   2.348   7.586  0.1107 -0.2001  0.0972
69253POPC   C4A23014  23.101   2.238   7.881  0.1907  0.0805 -0.1970
69253POPC   C1B23015  24.460   2.256   6.956  0.1374 -0.0518  0.0260
69253POPC   C2B23016  24.189   1.913   7.185 -0.0740  0.1030 -0.0081
69253POPC   C3B23017  23.802   1.726   7.388  0.1835 -0.3726  0.0183
69253POPC   C4B23018  23.597   1.348   7.414  0.1362  0.2034  0.3228
69254POPC   NC323019  31.425  12.827   4.094  0.0823  0.1851  0.0086
69254POPC   PO423020  31.120  13.045   4.120 -0.0354  0.1646  0.0557
69254POPC   GL123021  31.215  13.079   4.498 -0.0149 -0.0917  0.2564
69254POPC   GL223022  31.194  13.347   4.555 -0.0739  0.0483 -0.0411
69254POPC   C1A23023  31.107  13.030   4.934 -0.1979 -0.1521  0.2270
69254POPC   D2A23024  30.995  13.104   5.391 -0.0347 -0.1345 -0.1005
69254POPC   C3A23025  31.083  12.928   5.811  0.3012  0.2580  0.1713
69254POPC   C4A23026  31.099  12.993   6.278  0.0222  0.2535 -0.0628
69254POPC   C1B23027  31.557  13.631   4.608 -0.0532  0.1433 -0.2265
69254POPC   C2B23028  31.879  13.556   4.951  0.1679  0.0928  0.0671
69254POPC   C3B23029  31.809  13.551   5.379 -0.0344  0.0462 -0.0084
69254POPC   C4B23030  31.650  13.548   5.810 -0.1800  0.1160  0.1771
69255POPC   NC323031  24.858   6.083   9.165 -0.0572  0.1016  0.3645
69255POPC   PO423032  24.711   6.098   8.841 -0.0698 -0.0493 -0.0149
69255POPC   GL123033  24.330   6.340   8.963  0.1488 -0.3056 -0.2783
69255POPC   GL223034  24.371   6.310   9.226 -0.2612 -0.1763  0.1948
69255POPC   C1A23035  23.876   6.246   9.130 -0.1277  0.2286  0.3579
69255POPC   D2A23036  23.490   6.529   9.107 -0.0560  0.2027  0.0853
69255POPC   C3A23037  23.061   6.334   9.167  0.3087  0.1940  0.1606
69255POPC   C4A23038  22.585   6.317   9.266  0.1488  0.0476 -0.2022
69255POPC   C1B23039  24.163   6.671   9.452 -0.1088  0.1954  0.1100
69255POPC   C2B23040  23.934   7.080   9.460  0.0340 -0.0441 -0.0423
69255POPC   C3B23041  23.925   7.438   9.812 -0.1090  0.1807 -0.0472
69255POPC   C4B23042  23.866   7.696  10.197  0.1283 -0.0720  0.0849
69256POPC   NC323043  30.634   6.507   6.106 -0.2117  0.3028 -0.2770
69256POPC   PO423044  30.958   6.487   5.843  0.3916 -0.1108  0.0449
69256POPC   GL123045  31.131   6.720   6.112  0.0529  0.1535  0.2860
69256POPC   GL223046  31.432   6.579   6.100 -0.0031 -0.1664  0.0526
69256POPC   C1A23047  31.243   6.960   6.539  0.0104  0.0318 -0.0203
69256POPC   D2A23048  31.374   6.840   6.961 -0.1763 -0.0226 -0.2413
69256POPC   C3A23049  31.643   7.155   7.173 -0.1631  0.2035  0.2376
69256POPC   C4A23050  32.028   7.291   7.333 -0.0153 -0.1125  0.0462
69256POPC   C1B23051  31.333   6.289   6.425  0.2388 -0.0137 -0.3035
69256POPC   C2B23052  31.345   6.366   6.895  0.0970  0.1763  0.1611
69256POPC   C3B23053  31.142   6.424   7.300 -0.4457  0.1484 -0.0914
69256POPC   C4B23054  31.433   6.546   7.646  0.2595 -0.0453  0.0435
69257POPC   NC323055  19.616   5.788   4.895 -0.2142 -0.0645  0.2294
69257POPC   PO423056  19.594   5.949   5.226  0.3024  0.0855 -0.2553
69257POPC   GL123057  19.433   5.753   5.555 -0.2501 -0.0821 -0.0062
69257POPC   GL223058  19.367   5.892   5.819  0.0123  0.0189 -0.1229
69257POPC   C1A23059  19.479   5.353   5.796 -0.3411 -0.0337 -0.1190
69257POPC   D2A23060  19.780   5.150   6.058  0.2965  0.0987  0.3439
69257POPC   C3A23061  19.794   5.256   6.499 -0.1916  0.0178 -0.2663
69257POPC   C4A23062  19.590   5.589   6.742 -0.2525  0.0562 -0.0928
69257POPC   C1B23063  19.561   6.172   6.103 -0.1634  0.1741  0.1149
69257POPC   C2B23064  19.586   6.445   6.432  0.6302  0.2634 -0.1328
69257POPC   C3B23065  19.433   6.186   6.812 -0.1443 -0.2292 -0.1381
69257POPC   C4B23066  19.599   5.958   7.155 -0.2378 -0.0482 -0.0446
69258POPC   NC323067  18.194   6.372   5.142  0.0228 -0.0556  0.0098
69258POPC   PO423068  18.256   5.986   5.116  0.1437  0.2538  0.0320
69258POPC   GL123069  18.152   5.955   5.519 -0.0012  0.1044  0.1438
69258POPC   GL223070  18.319   6.196   5.583 -0.0398 -0.2499 -0.2337
69258POPC   C1A23071  18.234   5.759   5.904 -0.0416 -0.0705 -0.1355
69258POPC   D2A23072  18.500   5.677   6.219  0.0493  0.2023  0.0054
69258POPC   C3A23073  18.681   5.219   6.313  0.0643 -0.0589  0.2369
69258POPC   C4A23074  18.752   4.924   5.998 -0.2237  0.0992  0.0723
69258POPC   C1B23075  18.690   5.982   5.792 -0.1177 -0.0656 -0.1851
69258POPC   C2B23076  19.039   6.171   6.073 -0.4535 -0.1291  0.3700
69258POPC   C3B23077  19.031   6.381   6.519  0.0764  0.1722 -0.0723
69258POPC   C4B23078  19.020   6.528   7.005  0.2827  0.1000  0.1184
69259POPC   NC323079  29.401   6.089   7.090  0.0503 -0.1403 -0.2139
69259POPC   PO423080  29.015   6.147   7.179  0.3692  0.0396 -0.3207
69259POPC   GL123081  29.193   5.950   7.465  0.1876 -0.0087 -0.2826
69259POPC   GL223082  29.260   5.688   7.377 -0.2325  0.1961  0.2681
69259POPC   C1A23083  29.613   6.079   7.633 -0.1239 -0.0083 -0.0748
69259POPC   D2A23084  29.788   6.252   8.009 -0.5318  0.0915 -0.2895
69259POPC   C3A23085  29.577   5.929   8.239 -0.0535  0.0687 -0.1826
69259POPC   C4A23086  29.523   5.518   8.313  0.1390  0.1448  0.0750
69259POPC   C1B23087  29.440   5.400   7.732  0.0900 -0.0593 -0.0191
69259POPC   C2B23088  29.642   5.096   8.007 -0.0872  0.0802  0.1574
69259POPC   C3B23089  29.827   5.081   8.451  0.0635  0.0102  0.2369
69259POPC   C4B23090  29.896   5.012   8.891 -0.1901 -0.0362 -0.3060
69260POPC   NC323091  24.426  10.888   5.579 -0.0641 -0.1551 -0.1409
69260POPC   PO423092  24.241  10.578   5.547 -0.0614 -0.0497  0.1070
69260POPC   GL123093  23.961  10.935   5.618 -0.1726 -0.1580  0.0563
69260POPC   GL223094  24.000  11.118   5.850 -0.2611 -0.2125  0.2056
69260POPC   C1A23095  23.526  11.044   5.737 -0.0508 -0.0011  0.1228
69260POPC   D2A23096  23.275  10.810   6.111 -0.0349 -0.2140  0.1139
69260POPC   C3A23097  22.789  10.696   6.073 -0.2378  0.0024  0.0227
69260POPC   C4A23098  22.436  10.633   6.357 -0.0792  0.1271 -0.2702
69260POPC   C1B23099  23.923  11.148   6.312 -0.0909  0.1070  0.0913
69260POPC   C2B23100  23.833  11.185   6.772 -0.1139 -0.0076 -0.3861
69260POPC   C3B23101  23.774  11.299   7.189 -0.0252 -0.3195  0.0442
69260POPC   C4B23102  23.994  11.537   7.512 -0.1182 -0.0861 -0.2140
69261POPC   NC323103  31.535   5.937   5.507 -0.2213 -0.3867 -0.0061
69261POPC   PO423104  31.422   6.195   5.788 -0.0017  0.0173  0.1067
69261POPC   GL123105  31.530   6.034   6.126  0.0068 -0.2278  0.1952
69261POPC   GL223106  31.412   5.817   6.331  0.0426 -0.1976  0.1344
69261POPC   C1A23107  31.782   6.176   6.450 -0.1052  0.5491  0.0673
69261POPC   D2A23108  32.038   6.450   6.284 -0.0771 -0.1855  0.1900
69261POPC   C3A23109  32.336   6.609   6.574 -0.1166  0.0237 -0.1253
69261POPC   C4A23110  32.745   6.755   6.786  0.1306 -0.2846  0.3150
69261POPC   C1B23111  31.181   5.853   6.714 -0.1609 -0.1676  0.2213
69261POPC   C2B23112  31.347   5.830   7.167  0.0028  0.0110 -0.1260
69261POPC   C3B23113  31.370   5.475   7.499  0.1256  0.3046 -0.0354
69261POPC   C4B23114  31.346   5.010   7.455 -0.1397 -0.1611  0.3763
69262POPC   NC323115  22.778  11.973   5.014 -0.0150 -0.0622 -0.1149
69262POPC   PO423116  22.395  11.926   4.858 -0.3936 -0.0655 -0.1698
69262POPC   GL123117  22.361  12.138   5.119 -0.1108  0.1692 -0.2607
69262POPC   GL223118  22.246  12.405   5.032 -0.1446  0.1522  0.1435
69262POPC   C1A23119  22.609  12.000   5.492  0.0255  0.1901 -0.2722
69262POPC   D2A23120  22.538  12.045   5.956 -0.0211  0.0392  0.1508
69262POPC   C3A23121  22.204  12.037   6.236  0.2592 -0.2495  0.0290
69262POPC   C4A23122  21.826  12.146   6.532  0.1432 -0.1282 -0.1100
69262POPC   C1B23123  22.393  12.841   5.125  0.2504  0.3809 -0.0806
69262POPC   C2B23124  22.230  13.246   5.360  0.0038  0.0278 -0.0753
69262POPC   C3B23125  22.000  13.480   5.699  0.0993 -0.1891  0.3349
69262POPC   C4B23126  22.063  13.661   6.130 -0.1155 -0.1978  0.0035
69263POPC   NC323127  20.455   1.661   4.918  0.2031  0.1630  0.1035
69263POPC   PO423128  20.560   1.941   5.152 -0.1681 -0.1133 -0.2323
69263POPC   GL123129  20.658   1.634   5.395 -0.2805  0.6415 -0.2487
69263POPC   GL223130  20.890   1.707   5.502  0.0654 -0.0761 -0.0140
69263POPC   C1A23131  20.612   1.143   5.369  0.3115  0.0322 -0.0898
69263POPC   D2A23132  20.850   0.852   5.639  0.0720  0.3055 -0.3422
69263POPC   C3A23133  20.624   0.540   5.930  0.0500  0.0387  0.1443
69263POPC   C4A23134  20.402   0.481   6.282  0.0509  0.1624  0.2077
69263POPC   C1B23135  20.866   1.351   5.857  0.0351 -0.3374  0.0814
69263POPC   C2B23136  20.578   1.079   6.088 -0.1968  0.2821  0.2068
69263POPC   C3B23137  20.324   1.289   6.422  0.2119 -0.1524  0.2577
69263POPC   C4B23138  19.948   1.459   6.648 -0.0710  0.4931  0.0139
69264POPC   NC323139  20.259  13.484   3.580  0.3391  0.0210  0.0906
69264POPC   PO423140  20.276  13.320   3.915  0.1361 -0.3131 -0.1479
69264POPC   GL123141  20.260  13.261   4.309  0.1133 -0.4680  0.0020
69264POPC   GL223142  19.973  13.255   4.507 -0.0101 -0.0722  0.1916
69264POPC   C1A23143  20.413  12.954   4.650 -0.1182 -0.0780  0.2286
69264POPC   D2A23144  20.446  12.828   5.101  0.0116 -0.0081 -0.0022
69264POPC   C3A23145  20.219  13.028   5.496 -0.0652  0.0436 -0.1240
69264POPC   C4A23146  20.120  13.011   5.952 -0.0552  0.1281  0.3214
69264POPC   C1B23147  19.829  12.849   4.718  0.1596  0.2695 -0.0684
69264POPC   C2B23148  19.850  12.663   5.142  0.0474  0.0135  0.0552
69264POPC   C3B23149  20.099  12.547   5.479 -0.5870 -0.0638 -0.0520
69264POPC   C4B23150  20.171  12.411   5.937  0.2409  0.2552  0.0727
69265POPC   NC323151  18.957   6.714   4.737  0.0091  0.0998 -0.0737
69265POPC   PO423152  18.775   6.394   4.944 -0.2292 -0.2541  0.2167
69265POPC   GL123153  18.890   6.449   5.277 -0.0689  0.0368  0.2515
69265POPC   GL223154  18.577   6.623   5.301  0.0746 -0.2225 -0.0920
69265POPC   C1A23155  18.908   6.596   5.698 -0.1627 -0.1059 -0.0614
69265POPC   D2A23156  18.630   6.510   6.011  0.1933  0.3150  0.1482
69265POPC   C3A23157  18.445   6.677   6.392 -0.0910  0.1381 -0.2372
69265POPC   C4A23158  18.205   6.747   6.769  0.0707 -0.2021 -0.1805
69265POPC   C1B23159  18.447   6.835   5.668  0.2205  0.2013 -0.4833
69265POPC   C2B23160  18.175   6.948   6.090 -0.1812  0.1422  0.3287
69265POPC   C3B23161  17.877   7.028   6.437 -0.2355 -0.0489 -0.1239
69265POPC   C4B23162  17.663   6.969   6.777 -0.0671  0.0732 -0.0791
69266POPC   NC323163  21.062   5.491   5.806  0.0343 -0.1547  0.0650
69266POPC   PO423164  21.343   5.192   5.869  0.0256 -0.0033  0.0367
69266POPC   GL123165  21.264   5.114   6.302  0.1099  0.0469 -0.1490
69266POPC   GL223166  21.466   5.099   6.580  0.2734  0.0251  0.1626
69266POPC   C1A23167  20.913   5.065   6.641 -0.0145  0.2685 -0.1937
69266POPC   D2A23168  20.464   5.085   6.575  0.3323 -0.1668  0.1532
69266POPC   C3A23169  20.416   5.375   6.946  0.0550 -0.0261  0.1986
69266POPC   C4A23170  20.038   5.676   7.112  0.0348 -0.1119 -0.1598
69266POPC   C1B23171  21.343   4.938   6.934 -0.0316 -0.1137 -0.0923
69266POPC   C2B23172  20.970   5.063   7.197 -0.2748 -0.1988 -0.2404
69266POPC   C3B23173  20.614   5.183   7.476 -0.0158 -0.0655  0.3158
69266POPC   C4B23174  20.200   5.323   7.448 -0.1152 -0.1656 -0.1372
69267POPC   NC323175  31.745  11.754   4.864 -0.0975 -0.1532  0.1278
69267POPC   PO423176  31.871  11.873   4.464  0.2942  0.1639  0.1086
69267POPC   GL123177  32.011  12.147   4.685 -0.1792  0.2549 -0.0952
69267POPC   GL223178  31.833  12.338   4.874  0.0422  0.3698  0.4570
69267POPC   C1A23179  32.220  12.048   5.106  0.0950  0.1490  0.0118
69267POPC   D2A23180  32.212  12.044   5.566  0.0908  0.0034 -0.2266
69267POPC   C3A23181  32.550  11.879   5.839  0.3236  0.1479 -0.1159
69267POPC   C4A23182  32.811  11.596   6.124 -0.0963  0.2210 -0.3195
69267POPC   C1B23183  31.766  12.210   5.309  0.1028  0.1136 -0.4734
69267POPC   C2B23184  31.765  12.205   5.780  0.0317  0.2527 -0.0615
69267POPC   C3B23185  31.810  12.348   6.197 -0.0167 -0.2372 -0.0786
69267POPC   C4B23186  31.642  12.564   6.566  0.0196  0.2667 -0.1537
69268POPC   NC323187  32.689  10.832   4.224 -0.0318 -0.0100  0.0638
69268POPC   PO423188  32.786  11.212   4.253  0.2191 -0.1672 -0.0867
69268POPC   GL123189  32.623  11.496   4.568  0.1417 -0.1848 -0.0864
69268POPC   GL223190  32.843  11.347   4.759  0.0093 -0.3893 -0.0623
69268POPC   C1A23191  32.354  11.483   4.943  0.0693 -0.0379 -0.0628
69268POPC   D2A23192  32.378  11.187   5.348  0.0001  0.0873 -0.2282
69268POPC   C3A23193  32.111  11.080   5.687  0.2955 -0.1735 -0.4573
69268POPC   C4A23194  32.023  10.768   5.983  0.2685 -0.0058  0.0709
69268POPC   C1B23195  32.862  11.306   5.247 -0.1074  0.0793  0.1470
69268POPC   C2B23196  33.070  11.432   5.679  0.0605  0.0018 -0.0984
69268POPC   C3B23197  33.305  11.755   5.932 -0.2388  0.4489 -0.2342
69268POPC   C4B23198  33.436  11.766   6.397  0.0376  0.1628 -0.0132
69269POPC   NC323199  24.221  13.975   4.895 -0.0284  0.2218 -0.1533
69269POPC   PO423200  24.007  14.324   4.922  0.1271  0.0783  0.0464
69269POPC   GL123201  23.885  14.231   5.339  0.3174 -0.4378  0.0781
69269POPC   GL223202  24.047  14.545   5.339  0.2417 -0.1482  0.1332
69269POPC   C1A23203  24.027  14.204   5.787  0.1882  0.0716  0.0185
69269POPC   D2A23204  24.279  13.939   6.130  0.2409  0.0507  0.2813
69269POPC   C3A23205  24.272  14.062   6.626 -0.0873 -0.0075  0.2458
69269POPC   C4A23206  24.180  14.152   7.031  0.2976  0.1199 -0.1735
69269POPC   C1B23207  23.623  14.615   5.485  0.1354 -0.0207  0.1217
69269POPC   C2B23208  23.440  14.959   5.757 -0.1822  0.2705  0.0410
69269POPC   C3B23209  23.316  14.905   6.183 -0.3126 -0.1670 -0.2848
69269POPC   C4B23210  23.150  15.193   6.529  0.2501 -0.2806 -0.2259
69270POPC   NC323211  17.915   8.375   4.508  0.1479 -0.1327 -0.1001
69270POPC   PO423212  18.062   8.548   4.800  0.1775 -0.4165  0.0180
69270POPC   GL123213  17.900   8.556   5.050 -0.1323 -0.0561 -0.1076
69270POPC   GL223214  18.034   8.613   5.311 -0.0901  0.0036  0.1633
69270POPC   C1A23215  17.579   8.417   5.362  0.3899  0.0943  0.0191
69270POPC   D2A23216  17.473   8.740   5.717 -0.0991 -0.1491 -0.3130
69270POPC   C3A23217  17.279   8.761   6.218  0.1408 -0.0313  0.0855
69270POPC   C4A23218  17.368   8.539   6.565 -0.2743  0.1196 -0.2125
69270POPC   C1B23219  18.025   8.839   5.727 -0.1555 -0.1829 -0.0654
69270POPC   C2B23220  17.790   8.864   6.122 -0.0447  0.1034  0.1998
69270POPC   C3B23221  17.732   8.870   6.570  0.1585  0.1098 -0.0017
69270POPC   C4B23222  17.942   8.958   7.004  0.0997  0.2744 -0.0365
69271POPC   NC323223  19.778   7.741   4.698 -0.1573 -0.1479 -0.0609
69271POPC   PO423224  19.909   7.986   4.988  0.0657 -0.1649 -0.1828
69271POPC   GL123225  20.017   8.016   5.415  0.4177  0.0301 -0.0014
69271POPC   GL223226  20.091   8.291   5.422  0.3254  0.2204 -0.1192
69271POPC   C1A23227  19.703   8.009   5.784  0.4480 -0.1085  0.3872
69271POPC   D2A23228  19.582   8.179   6.215  0.1936  0.3028 -0.0828
69271POPC   C3A23229  19.810   8.184   6.570 -0.2585 -0.0617  0.1012
69271POPC   C4A23230  20.149   8.140   6.893  0.0861 -0.1303  0.1201
69271POPC   C1B23231  20.346   8.244   5.780  0.2142 -0.1146  0.1604
69271POPC   C2B23232  20.455   8.053   6.202 -0.4083  0.0991  0.0566
69271POPC   C3B23233  20.592   8.268   6.607  0.2251  0.1879 -0.1951
69271POPC   C4B23234  20.631   8.443   7.028  0.0741  0.2847  0.2228
69272POPC   NC323235  30.812   4.396   5.404 -0.0715 -0.3209 -0.1217
69272POPC   PO423236  31.017   4.227   5.115 -0.0972  0.0424  0.2906
69272POPC   GL123237  31.066   4.036   5.540 -0.0601  0.5656  0.2199
69272POPC   GL223238  31.280   3.910   5.640 -0.2217 -0.1427 -0.0249
69272POPC   C1A23239  30.762   4.095   5.888  0.0054 -0.0377  0.2057
69272POPC   D2A23240  30.749   4.025   6.323 -0.0067 -0.0074  0.1867
69272POPC   C3A23241  30.863   4.039   6.793  0.0656 -0.1116 -0.0564
69272POPC   C4A23242  31.068   4.014   7.182  0.4858  0.2264  0.1356
69272POPC   C1B23243  31.275   3.880   6.078 -0.2518  0.0373 -0.0156
69272POPC   C2B23244  31.199   3.790   6.536  0.1623 -0.3321  0.0564
69272POPC   C3B23245  31.364   3.736   6.953  0.0747  0.2039 -0.0999
69272POPC   C4B23246  31.296   3.623   7.384 -0.0606 -0.3551 -0.0945
69273POPC   NC323247  24.354   5.806   8.662 -0.3429 -0.2089 -0.1052
69273POPC   PO423248  24.311   5.436   8.512 -0.3906 -0.1156  0.1374
69273POPC   GL123249  23.929   5.146   8.487 -0.4058  0.1731 -0.1933
69273POPC   GL223250  23.742   5.212   8.210  0.0605  0.3407  0.1474
69273POPC   C1A23251  23.578   4.968   8.700  0.0073  0.1465  0.0746
69273POPC   D2A23252  23.166   5.116   8.785 -0.2393 -0.2306 -0.1553
69273POPC   C3A23253  23.021   5.391   9.091 -0.5396  0.2002  0.0814
69273POPC   C4A23254  22.859   5.832   9.149 -0.0553 -0.0808 -0.1920
69273POPC   C1B23255  23.366   5.325   8.390 -0.2768  0.0084 -0.3369
69273POPC   C2B23256  23.181   5.613   8.700 -0.1054  0.0930 -0.1328
69273POPC   C3B23257  22.798   5.832   8.665 -0.0325 -0.2519  0.0630
69273POPC   C4B23258  22.508   6.116   8.404  0.2433 -0.0210 -0.2278
69274POPC   NC323259  17.871   5.751   5.216 -0.2095 -0.0354 -0.1052
69274POPC   PO423260  17.739   6.092   5.037  0.3172 -0.2932  0.5332
69274POPC   GL123261  17.526   6.014   5.423  0.2398  0.0469 -0.5330
69274POPC   GL223262  17.286   5.900   5.488 -0.1296  0.1572 -0.0356
69274POPC   C1A23263  17.752   6.006   5.808 -0.1472 -0.0297  0.1274
69274POPC   D2A23264  17.919   6.038   6.193 -0.0117  0.0209 -0.1250
69274POPC   C3A23265  17.532   6.124   6.412 -0.0541 -0.0711  0.4085
69274POPC   C4A23266  17.192   6.231   6.161  0.0044  0.0763  0.0595
69274POPC   C1B23267  17.337   6.326   5.684 -0.0334  0.0312 -0.0376
69274POPC   C2B23268  17.485   6.571   6.057  0.2152  0.0914 -0.2264
69274POPC   C3B23269  17.750   6.569   6.399  0.1358 -0.2228  0.1827
69274POPC   C4B23270  17.972   6.285   6.660  0.0057  0.1482 -0.2230
69275POPC   NC323271  27.900   7.056   8.469  0.1001  0.1666 -0.1351
69275POPC   PO423272  27.553   6.856   8.627  0.0372 -0.1372 -0.2024
69275POPC   GL123273  27.723   6.908   8.953 -0.1812 -0.0234  0.1804
69275POPC   GL223274  27.655   7.036   9.213  0.0386  0.2723  0.2808
69275POPC   C1A23275  28.154   6.784   9.161  0.2142 -0.2823 -0.2848
69275POPC   D2A23276  28.302   6.394   9.419  0.1851 -0.3080 -0.1701
69275POPC   C3A23277  28.330   6.714   9.753  0.0570 -0.2900  0.1702
69275POPC   C4A23278  28.575   7.060  10.012 -0.0779  0.2973  0.5576
69275POPC   C1B23279  27.956   7.360   9.129 -0.0874 -0.0300 -0.1816
69275POPC   C2B23280  28.175   7.748   9.125 -0.1468 -0.0708 -0.1609
69275POPC   C3B23281  28.553   7.964   9.207  0.1832  0.0260 -0.1534
69275POPC   C4B23282  28.819   8.321   9.054  0.1354 -0.1072 -0.0374
69276POPC   NC323283  28.070   8.460   7.129 -0.0073 -0.0409 -0.1282
69276POPC   PO423284  28.315   8.447   7.427 -0.1407 -0.2867 -0.0067
69276POPC   GL123285  28.584   8.646   7.629 -0.5533  0.0450  0.1689
69276POPC   GL223286  28.634   8.422   7.831 -0.1442 -0.2753  0.1830
69276POPC   C1A23287  28.900   8.989   7.725 -0.0511 -0.3603  0.1464
69276POPC   D2A23288  29.223   9.294   7.884  0.1317 -0.3245 -0.2738
69276POPC   C3A23289  29.131   9.617   8.250 -0.1292 -0.2152 -0.2206
69276POPC   C4A23290  29.336  10.012   8.404  0.1436 -0.0627  0.1831
69276POPC   C1B23291  28.818   8.669   8.166  0.1715 -0.0523 -0.2168
69276POPC   C2B23292  29.065   8.744   8.493  0.3583  0.2464 -0.2221
69276POPC   C3B23293  29.183   8.649   8.915 -0.3066  0.0245 -0.1465
69276POPC   C4B23294  29.350   8.708   9.372  0.0347 -0.1113 -0.0252
69277POPC   NC323295  30.309   5.389   6.273  0.2614 -0.2925  0.2811
69277POPC   PO423296  30.071   5.146   6.001 -0.0925 -0.2007 -0.2375
69277POPC   GL123297  30.236   4.846   6.139  0.1395 -0.1185 -0.2670
69277POPC   GL223298  29.989   4.679   6.117  0.1441 -0.2642  0.1214
69277POPC   C1A23299  30.524   4.979   6.482  0.0821  0.0707  0.0426
69277POPC   D2A23300  30.788   5.071   6.824 -0.3511  0.1167 -0.2560
69277POPC   C3A23301  30.895   4.904   7.300 -0.1672  0.2062 -0.2851
69277POPC   C4A23302  30.961   4.979   7.759 -0.2196 -0.1440  0.2173
69277POPC   C1B23303  30.045   4.654   6.591 -0.2417  0.1445  0.0628
69277POPC   C2B23304  30.318   4.782   6.979  0.1503 -0.1721  0.1996
69277POPC   C3B23305  30.379   4.863   7.427 -0.1540  0.2328  0.2067
69277POPC   C4B23306  30.626   4.582   7.746 -0.3467 -0.0559  0.0952
69278POPC   NC323307  30.146   0.693   3.818 -0.2462 -0.0847  0.2762
69278POPC   PO423308  29.850   0.560   4.065  0.2227 -0.1129  0.1587
69278POPC   GL123309  30.084   0.402   4.383 -0.0911  0.0150  0.0646
69278POPC   GL223310  29.968   0.148   4.524  0.1032  0.0402 -0.0875
69278POPC   C1A23311  30.009   0.493   4.867 -0.2864 -0.3155  0.0305
69278POPC   D2A23312  30.208   0.609   5.264  0.2388  0.0784 -0.0398
69278POPC   C3A23313  30.584   0.433   5.463  0.0391  0.1817  0.3282
69278POPC   C4A23314  31.008   0.389   5.557 -0.1585 -0.0686 -0.0248
69278POPC   C1B23315  30.376   0.095   4.724  0.1476 -0.4129  0.0312
69278POPC   C2B23316  30.666  -0.013   5.031 -0.3993  0.4757 -0.0831
69278POPC   C3B23317  30.902  -0.081   5.416 -0.0433  0.0721  0.0540
69278POPC   C4B23318  30.975  -0.057   5.867 -0.1147 -0.1466 -0.0054
69279POPC   NC323319  20.467  15.885   4.490 -0.0074 -0.2023 -0.2166
69279POPC   PO423320  20.623  15.534   4.379 -0.1984  0.0097 -0.0855
69279POPC   GL123321  20.585  15.367   4.753  0.0841  0.2159 -0.0177
69279POPC   GL223322  20.329  15.181   4.711  0.2627  0.1263  0.1529
69279POPC   C1A23323  20.830  15.304   5.152 -0.0712  0.2530  0.1110
69279POPC   D2A23324  21.132  15.455   5.481  0.0321 -0.1161 -0.0880
69279POPC   C3A23325  21.258  15.042   5.626 -0.0099  0.0771 -0.0617
69279POPC   C4A23326  21.317  14.614   5.647  0.0256 -0.0690  0.0802
69279POPC   C1B23327  20.071  15.174   5.153 -0.5167 -0.0566 -0.2790
69279POPC   C2B23328  19.742  15.059   5.400 -0.0319  0.3110  0.2386
69279POPC   C3B23329  19.444  15.061   5.743  0.2505 -0.1977 -0.1743
69279POPC   C4B23330  19.174  14.711   5.898 -0.1228  0.0743 -0.1511
69280POPC   NC323331  25.788  10.056   6.361 -0.1833  0.2274 -0.1601
69280POPC   PO423332  26.182  10.097   6.371 -0.0513  0.4003 -0.1980
69280POPC   GL123333  26.014   9.974   6.750  0.1005  0.0041 -0.1717
69280POPC   GL223334  26.273   9.812   6.813  0.0091  0.1040  0.1050
69280POPC   C1A23335  25.956  10.187   7.169 -0.0817  0.2818  0.2192
69280POPC   D2A23336  25.902  10.372   7.595  0.0124 -0.3490  0.3382
69280POPC   C3A23337  25.937  10.241   8.040  0.1678  0.0818  0.0149
69280POPC   C4A23338  25.915   9.850   8.382 -0.3420 -0.1892  0.2487
69280POPC   C1B23339  26.436   9.937   7.221  0.0184 -0.0065  0.1315
69280POPC   C2B23340  26.274  10.121   7.580  0.1284  0.1620  0.3590
69280POPC   C3B23341  26.386  10.325   7.959  0.1934  0.5731  0.1478
69280POPC   C4B23342  26.426  10.491   8.408  0.0517  0.0039 -0.0649
69281POPC   NC323343  25.319   0.891   5.502 -0.1592 -0.1341  0.0068
69281POPC   PO423344  24.948   1.013   5.474  0.1443  0.0821 -0.0391
69281POPC   GL123345  24.951   0.673   5.775 -0.2504  0.1150 -0.1138
69281POPC   GL223346  24.824   0.903   5.900 -0.1224 -0.1391  0.1848
69281POPC   C1A23347  25.198   0.507   6.124 -0.3273 -0.0941 -0.1503
69281POPC   D2A23348  25.370   0.751   6.424 -0.0247  0.0586  0.0147
69281POPC   C3A23349  25.351   0.604   6.912  0.2757 -0.0087  0.0280
69281POPC   C4A23350  25.523   0.631   7.333 -0.0131  0.3035  0.2107
69281POPC   C1B23351  24.784   0.685   6.270 -0.0567  0.0523 -0.1107
69281POPC   C2B23352  24.836   0.559   6.695 -0.0669 -0.0548  0.1492
69281POPC   C3B23353  24.892   0.467   7.099 -0.1120 -0.2316 -0.2557
69281POPC   C4B23354  24.644   0.329   7.464  0.0439 -0.0545  0.3705
69282POPC   NC323355  16.628   8.576   5.072 -0.1952 -0.1048  0.2327
69282POPC   PO423356  16.325   8.311   5.040  0.0225 -0.1092 -0.2898
69282POPC   GL123357  16.554   8.180   5.291  0.1116 -0.6710  0.3113
69282POPC   GL223358  16.466   7.935   5.368  0.1330 -0.3146  0.0621
69282POPC   C1A23359  16.583   8.508   5.614  0.0004  0.0874 -0.0672
69282POPC   D2A23360  16.900   8.788   5.858 -0.1146 -0.0652  0.0728
69282POPC   C3A23361  16.815   8.922   6.306 -0.0848  0.1029 -0.0185
69282POPC   C4A23362  16.506   8.883   6.660  0.0597  0.0207  0.1540
69282POPC   C1B23363  16.562   8.018   5.843 -0.0864 -0.0011 -0.0483
69282POPC   C2B23364  16.837   7.948   6.248  0.1238  0.1032  0.0609
69282POPC   C3B23365  17.222   8.091   6.491 -0.0426  0.0889  0.2336
69282POPC   C4B23366  17.356   7.871   6.835 -0.2938 -0.1677 -0.1341
69283POPC   NC323367  29.236   7.000   7.328  0.1871  0.3175  0.0473
69283POPC   PO423368  28.922   7.087   7.531 -0.0509 -0.1896 -0.0650
69283POPC   GL123369  29.185   7.282   7.797 -0.5446  0.0462 -0.1027
69283POPC   GL223370  29.295   7.029   7.928  0.2814  0.1985  0.3134
69283POPC   C1A23371  29.382   7.638   8.023 -0.2254  0.0930 -0.0310
69283POPC   D2A23372  29.561   7.794   8.441 -0.1151  0.1273  0.4299
69283POPC   C3A23373  29.903   7.563   8.663 -0.0838 -0.1314 -0.4361
69283POPC   C4A23374  30.099   7.146   8.652 -0.1714 -0.2132 -0.2161
69283POPC   C1B23375  29.536   7.133   8.362 -0.2287 -0.2322  0.0740
69283POPC   C2B23376  29.667   6.783   8.660  0.0916 -0.0886  0.0139
69283POPC   C3B23377  29.696   6.453   8.969  0.3145  0.1496 -0.2223
69283POPC   C4B23378  29.898   6.017   9.060  0.0374  0.3088 -0.2413
69284POPC   NC323379  24.586  17.391   5.525  0.0691  0.3633 -0.2054
69284POPC   PO423380  24.876  17.664   5.595 -0.1221 -0.1091 -0.0196
69284POPC   GL123381  24.840  17.609   6.016 -0.1171  0.1639 -0.0383
69284POPC   GL223382  25.028  17.715   6.148  0.3550 -0.1704 -0.1245
69284POPC   C1A23383  24.688  17.386   6.399  0.0651 -0.2224  0.2850
69284POPC   D2A23384  24.293  17.175   6.525  0.2542 -0.4221  0.0253
69284POPC   C3A23385  24.183  17.236   6.937 -0.0657 -0.1930  0.0047
69284POPC   C4A23386  24.002  17.275   7.348  0.2123  0.1067  0.1235
69284POPC   C1B23387  25.232  17.466   6.465 -0.0881  0.5552  0.0860
69284POPC   C2B23388  25.204  17.402   6.879  0.0301  0.0500  0.0758
69284POPC   C3B23389  25.052  17.192   7.275 -0.1718  0.1054  0.2264
69284POPC   C4B23390  24.895  16.765   7.247  0.1598  0.0658  0.1359
69285POPC   NC323391  30.236   4.204   4.875 -0.2356 -0.0063 -0.0225
69285POPC   PO423392  30.177   3.845   4.948 -0.1137 -0.1101  0.0275
69285POPC   GL123393  30.245   3.677   5.298  0.4196 -0.0973 -0.0079
69285POPC   GL223394  30.047   3.445   5.316 -0.1402  0.1522  0.2523
69285POPC   C1A23395  30.447   3.688   5.700  0.0725  0.1061  0.0431
69285POPC   D2A23396  30.425   3.674   6.147 -0.2462  0.0241 -0.2323
69285POPC   C3A23397  30.337   3.334   6.444  0.2612 -0.1137 -0.1564
69285POPC   C4A23398  30.336   2.842   6.518 -0.0769  0.2176  0.5365
69285POPC   C1B23399  30.213   3.215   5.664  0.0251 -0.0604 -0.2049
69285POPC   C2B23400  30.552   3.045   5.964  0.1387 -0.0278 -0.1523
69285POPC   C3B23401  30.803   2.950   6.320  0.0599  0.2547  0.4155
69285POPC   C4B23402  31.134   2.834   6.645  0.0775  0.1502 -0.0606
69286POPC   NC323403  25.877   6.597  11.330 -0.2668  0.0475 -0.0121
69286POPC   PO423404  25.665   6.724  11.086 -0.0498 -0.2685  0.1739
69286POPC   GL123405  25.901   7.044  11.198 -0.2596  0.1987  0.3686
69286POPC   GL223406  26.133   7.145  11.055  0.0791  0.4258 -0.1320
69286POPC   C1A23407  25.780   7.489  11.352  0.2073  0.1496 -0.2634
69286POPC   D2A23408  25.925   7.739  11.764 -0.0182  0.2749  0.2733
69286POPC   C3A23409  25.800   8.148  11.848 -0.2814 -0.0272  0.0828
69286POPC   C4A23410  25.591   8.599  11.883 -0.3006  0.0681 -0.2767
69286POPC   C1B23411  26.285   7.570  11.182  0.0086  0.1566  0.2175
69286POPC   C2B23412  25.999   7.935  11.261 -0.1505 -0.4717  0.0106
69286POPC   C3B23413  25.580   7.964  11.399 -0.0139 -0.1651  0.0307
69286POPC   C4B23414  25.342   8.349  11.513  0.4206  0.1648 -0.1042
69287POPC   NC323415  24.374   3.788   7.305  0.0186 -0.2484 -0.0525
69287POPC   PO423416  24.592   3.448   7.295  0.1799  0.0193 -0.0375
69287POPC   GL123417  24.386   3.131   7.548  0.0643  0.2771  0.2311
69287POPC   GL223418  24.594   2.953   7.548 -0.3970  0.1706  0.1755
69287POPC   C1A23419  24.340   3.031   8.020  0.0226 -0.1762  0.0368
69287POPC   D2A23420  24.330   2.725   8.288  0.0631 -0.2339 -0.0736
69287POPC   C3A23421  23.933   2.589   8.419  0.0262 -0.0848  0.0607
69287POPC   C4A23422  23.778   2.148   8.554 -0.1068  0.1671 -0.0522
69287POPC   C1B23423  24.656   2.680   7.901 -0.1352  0.2781  0.0449
69287POPC   C2B23424  24.476   2.282   8.096  0.0349  0.0082 -0.0863
69287POPC   C3B23425  24.539   1.853   8.136  0.3608  0.1306  0.0346
69287POPC   C4B23426  24.771   1.490   8.274  0.1234 -0.0349  0.0017
69288POPC   NC323427  19.180  14.921   3.787 -0.0159  0.0788 -0.0755
69288POPC   PO423428  18.961  14.672   3.985  0.0884 -0.2449  0.0695
69288POPC   GL123429  18.816  14.640   4.293 -0.0903 -0.0317  0.1696
69288POPC   GL223430  18.937  14.440   4.500  0.0662 -0.2074 -0.1882
69288POPC   C1A23431  18.399  14.533   4.485  0.1841  0.0092  0.4165
69288POPC   D2A23432  18.192  14.127   4.640 -0.0029 -0.1750 -0.0182
69288POPC   C3A23433  18.401  13.757   4.805  0.0355 -0.0561  0.1545
69288POPC   C4A23434  18.527  13.459   5.182 -0.1715  0.2869 -0.3295
69288POPC   C1B23435  19.201  14.248   4.845  0.1145 -0.0728 -0.1003
69288POPC   C2B23436  19.147  14.128   5.272  0.0103  0.0497 -0.1799
69288POPC   C3B23437  19.417  14.167   5.629  0.0377 -0.2075 -0.3815
69288POPC   C4B23438  19.679  14.179   6.040  0.1487  0.0878 -0.0392
69289POPC   NC323439  29.898   2.879   4.919 -0.0611  0.1761  0.0568
69289POPC   PO423440  30.288   2.804   4.787 -0.2522  0.1554  0.1055
69289POPC   GL123441  30.398   2.575   5.094  0.3518 -0.4059 -0.0460
69289POPC   GL223442  30.022   2.571   5.259  0.0621 -0.1337  0.3103
69289POPC   C1A23443  30.495   2.380   5.503 -0.1247  0.1562  0.2854
69289POPC   D2A23444  30.338   2.040   5.798  0.1331 -0.2730 -0.2006
69289POPC   C3A23445  30.277   1.952   6.263  0.1702  0.0421 -0.0974
69289POPC   C4A23446  30.155   2.236   6.591  0.3355 -0.1080  0.2174
69289POPC   C1B23447  30.193   2.711   5.742 -0.2207 -0.0656  0.2517
69289POPC   C2B23448  30.018   2.883   6.127 -0.2500  0.0818 -0.0270
69289POPC   C3B23449  29.821   3.030   6.445  0.0114 -0.6263  0.2046
69289POPC   C4B23450  29.986   3.215   6.825  0.0093 -0.0138 -0.1226
69290POPC   NC323451  21.804  10.286   4.587  0.3584 -0.2836 -0.1023
69290POPC   PO423452  21.784   9.901   4.582  0.1518  0.0285  0.3112
69290POPC   GL123453  21.545   9.921   4.947  0.1298 -0.2993  0.2950
69290POPC   GL223454  21.419  10.199   5.028 -0.2127 -0.2410  0.1747
69290POPC   C1A23455  21.531   9.859   5.419  0.0768 -0.2234  0.0614
69290POPC   D2A23456  21.628   9.774   5.877 -0.3613  0.0073 -0.0768
69290POPC   C3A23457  22.075   9.853   6.072 -0.1666 -0.0128 -0.2413
69290POPC   C4A23458  22.342   9.644   6.338  0.1172 -0.0014 -0.1725
69290POPC   C1B23459  21.188  10.492   5.289 -0.1271  0.1594  0.1671
69290POPC   C2B23460  21.285  10.840   5.540 -0.2687  0.3316  0.0047
69290POPC   C3B23461  21.224  11.195   5.880 -0.2698 -0.2011 -0.3691
69290POPC   C4B23462  20.848  11.390   6.043 -0.1028 -0.0099 -0.0639
69291POPC   NC323463  24.022  15.302   4.757 -0.2791 -0.0340  0.1291
69291POPC   PO423464  24.390  15.245   4.882 -0.3346 -0.0364 -0.2240
69291POPC   GL123465  24.413  15.211   5.338 -0.1482 -0.0606  0.3117
69291POPC   GL223466  24.359  14.887   5.247  0.2481  0.0819  0.0453
69291POPC   C1A23467  24.169  15.344   5.726  0.3360  0.0329 -0.0328
69291POPC   D2A23468  24.264  15.283   6.177 -0.0247 -0.1162 -0.3179
69291POPC   C3A23469  24.154  15.542   6.551 -0.1396  0.0758  0.0133
69291POPC   C4A23470  24.346  15.814   6.879 -0.2274 -0.2986  0.2523
69291POPC   C1B23471  24.515  14.719   5.636 -0.0044 -0.2042  0.0996
69291POPC   C2B23472  24.447  14.425   5.954  0.1912 -0.1300  0.0081
69291POPC   C3B23473  24.097  14.364   6.252 -0.1635  0.3575 -0.1303
69291POPC   C4B23474  23.766  14.495   6.563 -0.2828 -0.2006 -0.1869
69292POPC   NC323475  24.482   5.993  10.604 -0.1349 -0.0422  0.0152
69292POPC   PO423476  24.798   5.823  10.768  0.0431 -0.0360 -0.2310
69292POPC   GL123477  24.621   5.946  11.062  0.2887  0.0281 -0.1196
69292POPC   GL223478  24.624   5.992  11.356 -0.0548 -0.1317  0.0248
69292POPC   C1A23479  24.194   5.728  11.114  0.2012 -0.1015 -0.0202
69292POPC   D2A23480  23.776   5.633  11.029  0.1475  0.1503  0.1716
69292POPC   C3A23481  23.570   5.845  10.662 -0.0847 -0.0262  0.1231
69292POPC   C4A23482  23.146   5.922  10.581 -0.0707  0.1231 -0.1448
69292POPC   C1B23483  24.206   5.956  11.527  0.0756 -0.0486 -0.2565
69292POPC   C2B23484  23.743   5.970  11.399  0.1388 -0.1873  0.3207
69292POPC   C3B23485  23.305   5.897  11.254  0.0674  0.1036  0.1422
69292POPC   C4B23486  22.970   5.698  11.037  0.1274 -0.2631  0.3226
69293POPC   NC323487  22.959   1.208   5.057  0.1752  0.0567 -0.3160
69293POPC   PO423488  23.215   1.398   5.313  0.1310  0.4650  0.2259
69293POPC   GL123489  23.030   1.405   5.638 -0.1606 -0.1395  0.3363
69293POPC   GL223490  23.055   1.695   5.773 -0.0015  0.3599 -0.2801
69293POPC   C1A23491  23.290   1.155   5.972 -0.0506  0.0873  0.1192
69293POPC   D2A23492  23.282   0.760   6.185  0.3500 -0.0695  0.0829
69293POPC   C3A23493  23.155   0.841   6.596 -0.4688 -0.0748 -0.3973
69293POPC   C4A23494  22.981   0.691   6.975 -0.0310  0.0443 -0.0785
69293POPC   C1B23495  23.019   1.600   6.216  0.0877  0.1978  0.0960
69293POPC   C2B23496  22.847   1.227   6.453 -0.3668  0.0200  0.0041
69293POPC   C3B23497  22.691   1.059   6.866 -0.0799 -0.2355  0.0229
69293POPC   C4B23498  22.744   1.350   7.140 -0.1744 -0.1064 -0.0380
69294POPC   NC323499  17.313   6.310   5.124 -0.1887  0.3108 -0.0379
69294POPC   PO423500  17.067   6.547   4.971  0.3297 -0.3023 -0.1341
69294POPC   GL123501  16.913   6.523   5.274 -0.0281 -0.1556 -0.3918
69294POPC   GL223502  16.826   6.726   5.450 -0.1458 -0.2345 -0.1368
69294POPC   C1A23503  16.823   6.233   5.599 -0.0673  0.0901 -0.1494
69294POPC   D2A23504  16.543   6.200   5.955 -0.0776  0.0334  0.0599
69294POPC   C3A23505  16.566   6.383   6.346 -0.2517  0.0993 -0.3184
69294POPC   C4A23506  16.481   6.340   6.757  0.1329  0.0090  0.1109
69294POPC   C1B23507  16.880   6.697   5.919  0.3261  0.2263  0.3143
69294POPC   C2B23508  17.116   6.899   6.257  0.0108  0.1012 -0.0297
69294POPC   C3B23509  17.139   7.072   6.670  0.0597  0.1590 -0.0606
69294POPC   C4B23510  16.740   7.032   6.897  0.0879  0.0169 -0.0430
69295POPC   NC323511  28.625   3.282   5.558  0.1931  0.1656 -0.1740
69295POPC   PO423512  28.656   2.930   5.361 -0.1089  0.2318 -0.3004
69295POPC   GL123513  28.762   2.925   5.844 -0.1117 -0.1563 -0.1028
69295POPC   GL223514  28.643   2.651   5.932 -0.1255 -0.0041  0.1310
69295POPC   C1A23515  28.674   2.907   6.309  0.2970 -0.2171  0.2461
69295POPC   D2A23516  28.752   3.220   6.605  0.0910  0.1743  0.2314
69295POPC   C3A23517  29.051   3.083   6.911 -0.1184 -0.0084  0.2498
69295POPC   C4A23518  29.238   2.898   7.240 -0.1072 -0.1472 -0.2012
69295POPC   C1B23519  28.804   2.204   6.094 -0.0180  0.0025  0.1215
69295POPC   C2B23520  28.700   1.893   6.434  0.1307  0.0951 -0.3052
69295POPC   C3B23521  28.547   1.671   6.829  0.0981  0.0593 -0.1097
69295POPC   C4B23522  28.546   1.233   7.018  0.0248  0.2380  0.0058
69296POPC   NC323523  32.439   4.910   4.694  0.3088  0.0493 -0.0677
69296POPC   PO423524  32.482   4.617   4.959  0.0287  0.4104 -0.0365
69296POPC   GL123525  32.454   4.500   5.414  0.0193  0.3081  0.1973
69296POPC   GL223526  32.550   4.739   5.491 -0.1483  0.1611  0.1178
69296POPC   C1A23527  32.469   4.218   5.835 -0.1722 -0.2548 -0.0356
69296POPC   D2A23528  32.396   4.135   6.351  0.0786  0.0661  0.0434
69296POPC   C3A23529  32.376   3.910   6.736  0.0481  0.2111  0.0147
69296POPC   C4A23530  32.153   3.556   6.986 -0.1842  0.0509  0.1314
69296POPC   C1B23531  32.824   4.691   5.872 -0.2052  0.0909 -0.0259
69296POPC   C2B23532  33.131   4.785   6.275  0.3247  0.0205  0.2144
69296POPC   C3B23533  33.378   4.900   6.577 -0.0364  0.3846  0.1828
69296POPC   C4B23534  33.679   5.039   6.895  0.2212 -0.1189 -0.0938
69297POPC   NC323535  17.895   4.088   4.952  0.0255  0.1642  0.0760
69297POPC   PO423536  17.975   3.732   5.122  0.2240  0.1727  0.0314
69297POPC   GL123537  17.806   3.820   5.483  0.2289  0.0537  0.2734
69297POPC   GL223538  17.593   3.565   5.529 -0.0089 -0.2565 -0.2180
69297POPC   C1A23539  18.061   3.725   5.832 -0.2789 -0.4851 -0.1508
69297POPC   D2A23540  18.080   3.633   6.281  0.1050  0.1586  0.1677
69297POPC   C3A23541  18.385   3.369   6.503 -0.0475  0.1371 -0.3298
69297POPC   C4A23542  18.427   2.947   6.610 -0.1797  0.0718  0.0643
69297POPC   C1B23543  17.200   3.723   5.762  0.1699  0.0591  0.0128
69297POPC   C2B23544  17.032   3.562   6.157  0.4038 -0.1160 -0.3386
69297POPC   C3B23545  16.986   3.620   6.657  0.0957  0.0064 -0.2452
69297POPC   C4B23546  16.719   3.427   6.902  0.2208 -0.2499 -0.0458
69298POPC   NC323547  32.128   6.131   4.925  0.2984 -0.0225 -0.0973
69298POPC   PO423548  31.913   5.980   5.226 -0.1247  0.0779 -0.0763
69298POPC   GL123549  32.071   5.862   5.602  0.0302  0.1277  0.1786
69298POPC   GL223550  31.957   6.062   5.766 -0.0889  0.2945 -0.1232
69298POPC   C1A23551  32.458   5.656   5.819  0.2085 -0.1499 -0.0716
69298POPC   D2A23552  32.677   5.623   6.144  0.1230  0.2550 -0.0503
69298POPC   C3A23553  32.870   5.917   6.403 -0.0595  0.0430  0.0511
69298POPC   C4A23554  33.118   5.944   6.808 -0.0018  0.2533 -0.4397
69298POPC   C1B23555  31.998   5.838   6.144  0.2028 -0.2640 -0.0896
69298POPC   C2B23556  32.019   5.696   6.608  0.2097  0.0859  0.1900
69298POPC   C3B23557  32.221   5.474   6.978  0.2505  0.0818  0.1203
69298POPC   C4B23558  32.628   5.242   7.106 -0.1657 -0.0814  0.1241
69299POPC   NC323559  27.066   6.253  10.553 -0.1832  0.0348 -0.0427
69299POPC   PO423560  27.041   6.172  10.901  0.0566  0.1610  0.2938
69299POPC   GL123561  27.418   6.314  10.881  0.1893  0.4654 -0.5159
69299POPC   GL223562  27.695   6.305  11.093  0.1405  0.1698  0.0524
69299POPC   C1A23563  27.742   6.531  10.653 -0.0991  0.2576  0.2479
69299POPC   D2A23564  28.123   6.672  10.573 -0.1535 -0.1286 -0.2004
69299POPC   C3A23565  28.464   6.372  10.734 -0.0919  0.0072  0.0583
69299POPC   C4A23566  28.599   5.908  10.662 -0.0219 -0.0062  0.1412
69299POPC   C1B23567  28.059   6.128  10.891  0.4652 -0.1558 -0.2017
69299POPC   C2B23568  28.293   5.779  11.046  0.1613 -0.0828  0.1942
69299POPC   C3B23569  28.766   5.668  11.167 -0.2038  0.1303  0.2167
69299POPC   C4B23570  29.087   5.400  11.072  0.1093 -0.0083 -0.1432
69300POPC   NC323571   1.187   5.119   5.131  0.2439 -0.0498  0.0041
69300POPC   PO423572   1.393   5.407   5.312  0.2824  0.0755 -0.1707
69300POPC   GL123573   1.226   5.318   5.642  0.0222  0.4133  0.0675
69300POPC   GL223574   1.263   5.056   5.750 -0.1327 -0.0179 -0.1034
69300POPC   C1A23575   1.098   5.534   6.005 -0.2866 -0.1529  0.1288
69300POPC   D2A23576   1.027   5.842   6.308  0.0311 -0.1828 -0.0636
69300POPC   C3A23577   1.129   5.676   6.752  0.1953  0.1414  0.2672
69300POPC   C4A23578   1.170   5.375   7.114  0.4423 -0.0357 -0.0499
69300POPC   C1B23579   1.177   4.965   6.187 -0.0025 -0.1167  0.2498
69300POPC   C2B23580   0.980   4.713   6.581 -0.0893 -0.1012  0.1319
69300POPC   C3B23581   0.855   4.541   6.985  0.1284  0.1098  0.1676
69300POPC   C4B23582   0.912   4.189   7.286  0.0323 -0.1610 -0.0417
69301POPC   NC323583  31.595  11.460   4.490 -0.3794  0.0320  0.1569
69301POPC   PO423584  31.649  11.298   4.854  0.3305 -0.0613  0.0955
69301POPC   GL123585  31.861  11.303   5.229 -0.0793 -0.1528  0.1333
69301POPC   GL223586  31.993  11.525   5.289 -0.2509  0.0722  0.0152
69301POPC   C1A23587  31.578  11.257   5.558 -0.3862  0.1041 -0.1465
69301POPC   D2A23588  31.560  10.993   5.959  0.0474 -0.1631 -0.0988
69301POPC   C3A23589  31.894  11.064   6.374  0.0330  0.1191 -0.3252
69301POPC   C4A23590  32.127  11.164   6.785 -0.2487 -0.3640  0.0155
69301POPC   C1B23591  32.433  11.670   5.405 -0.1538  0.0763 -0.0746
69301POPC   C2B23592  32.834  11.870   5.338  0.1715  0.1367  0.2607
69301POPC   C3B23593  33.140  12.147   5.619 -0.2900  0.0852  0.1414
69301POPC   C4B23594  33.287  12.590   5.783  0.0561  0.0176  0.1603
69302POPC   NC323595  30.188   7.206   5.868  0.1186  0.0310 -0.3508
69302POPC   PO423596  30.207   7.545   6.081 -0.2659 -0.0903  0.1440
69302POPC   GL123597  30.496   7.465   6.271 -0.1959  0.2871  0.0853
69302POPC   GL223598  30.794   7.518   6.233 -0.1262 -0.1549  0.0982
69302POPC   C1A23599  30.621   7.554   6.691  0.1364 -0.2627 -0.4612
69302POPC   D2A23600  30.823   7.581   7.065  0.0117  0.2090 -0.0247
69302POPC   C3A23601  30.874   7.440   7.534  0.0360 -0.5077  0.2788
69302POPC   C4A23602  30.777   7.480   7.981 -0.1469 -0.1666 -0.2117
69302POPC   C1B23603  31.083   7.427   6.580 -0.0269 -0.0091  0.1682
69302POPC   C2B23604  31.327   7.450   6.979  0.3228 -0.3406 -0.2099
69302POPC   C3B23605  31.714   7.650   7.233 -0.2566  0.0639  0.0145
69302POPC   C4B23606  32.039   7.822   7.539 -0.1419 -0.0879  0.3633
69303POPC   NC323607  27.203   2.603   5.585  0.3799 -0.2595  0.0474
69303POPC   PO423608  27.546   2.616   5.842  0.0591 -0.2849  0.2595
69303POPC   GL123609  27.578   2.656   6.159  0.0547 -0.0461 -0.1089
69303POPC   GL223610  27.798   2.481   6.225 -0.1529  0.2271 -0.0354
69303POPC   C1A23611  27.816   2.968   6.434  0.2123  0.2377 -0.0549
69303POPC   D2A23612  27.894   3.330   6.686  0.2947 -0.4347  0.0775
69303POPC   C3A23613  28.047   3.223   7.090 -0.3704 -0.0344 -0.0500
69303POPC   C4A23614  28.013   2.813   7.308  0.1029 -0.1615  0.0594
69303POPC   C1B23615  27.999   2.257   6.548 -0.0913 -0.2137  0.1742
69303POPC   C2B23616  28.334   2.114   6.708  0.0796  0.1496  0.3249
69303POPC   C3B23617  28.571   2.263   7.060 -0.4149 -0.1347  0.0694
69303POPC   C4B23618  28.827   2.245   7.483  0.1416 -0.3428  0.0331
69304POPC   NC323619  30.297   1.863   4.297  0.1278  0.0791 -0.2456
69304POPC   PO423620  30.265   1.509   4.376  0.3270  0.0369 -0.1349
69304POPC   GL123621  30.119   1.187   4.526  0.0847  0.0581  0.4191
69304POPC   GL223622  30.269   0.986   4.325  0.1579  0.0217 -0.2071
69304POPC   C1A23623  30.304   1.175   4.931 -0.0584  0.1477  0.1514
69304POPC   D2A23624  30.157   1.241   5.326  0.1874 -0.0044  0.0575
69304POPC   C3A23625  30.022   1.042   5.782 -0.1352  0.1984  0.1158
69304POPC   C4A23626  30.137   0.761   6.144 -0.1465  0.1170  0.0116
69304POPC   C1B23627  30.419   0.676   4.655  0.3086  0.0329 -0.1147
69304POPC   C2B23628  30.646   0.441   4.988  0.1518 -0.1874 -0.0185
69304POPC   C3B23629  31.071   0.246   4.863 -0.0309  0.1325 -0.1894
69304POPC   C4B23630  31.280   0.287   4.444 -0.3561  0.1134 -0.0397
69305POPC   NC323631  22.396   3.046   5.878  0.0112  0.1477  0.0611
69305POPC   PO423632  22.032   3.092   5.763 -0.0804  0.2286  0.1057
69305POPC   GL123633  21.954   2.927   6.149 -0.1839 -0.0440 -0.2036
69305POPC   GL223634  21.878   3.157   6.291 -0.1196 -0.1440  0.1342
69305POPC   C1A23635  21.916   2.793   6.618  0.0565 -0.1131  0.0169
69305POPC   D2A23636  21.760   2.690   7.000 -0.0854  0.4886  0.1903
69305POPC   C3A23637  21.709   2.286   7.205  0.1105 -0.3281  0.3026
69305POPC   C4A23638  21.551   1.934   7.370 -0.0284  0.1276  0.3032
69305POPC   C1B23639  21.844   3.300   6.748  0.0390 -0.0221  0.0631
69305POPC   C2B23640  21.917   3.542   7.144  0.1540  0.0679 -0.2169
69305POPC   C3B23641  21.709   3.505   7.555  0.1007 -0.0055 -0.1299
69305POPC   C4B23642  21.702   3.329   8.003 -0.0374  0.0301 -0.4628
69306POPC   NC323643  19.337   6.551   5.183 -0.2024  0.1150 -0.0032
69306POPC   PO423644  19.414   6.844   5.433  0.0507 -0.0162 -0.0612
69306POPC   GL123645  19.378   7.064   5.784 -0.0460  0.3037 -0.2037
69306POPC   GL223646  19.400   6.751   5.929 -0.1883  0.1670 -0.0977
69306POPC   C1A23647  19.215   7.305   6.156 -0.0400  0.2169  0.0524
69306POPC   D2A23648  18.978   7.244   6.573  0.2381 -0.2016  0.1709
69306POPC   C3A23649  19.091   7.106   6.989  0.0015  0.0585  0.1219
69306POPC   C4A23650  19.017   7.285   7.392 -0.2367 -0.0383 -0.3346
69306POPC   C1B23651  19.045   6.805   6.206  0.0130  0.0324  0.1801
69306POPC   C2B23652  18.806   6.805   6.660 -0.1268 -0.1905 -0.1654
69306POPC   C3B23653  18.647   6.853   7.101 -0.0582  0.1755  0.2557
69306POPC   C4B23654  18.403   7.036   7.417 -0.2120  0.3210  0.0479
69307POPC   NC323655  27.512  10.974   5.598 -0.3237  0.1457 -0.0212
69307POPC   PO423656  27.256  11.259   5.658 -0.1447 -0.1460  0.2106
69307POPC   GL123657  27.233  11.291   6.076 -0.2411  0.0495 -0.1458
69307POPC   GL223658  27.417  11.008   6.119 -0.1708 -0.3331 -0.2524
69307POPC   C1A23659  27.264  11.297   6.511 -0.0500  0.2013 -0.4104
69307POPC   D2A23660  27.163  11.287   6.955  0.1575  0.1663 -0.1036
69307POPC   C3A23661  27.356  11.633   7.248  0.1036  0.0530 -0.0114
69307POPC   C4A23662  27.400  11.982   7.488  0.1133 -0.2687  0.2991
69307POPC   C1B23663  27.804  11.154   6.356 -0.0591 -0.3200 -0.2262
69307POPC   C2B23664  28.152  11.472   6.301 -0.0343  0.1671 -0.3346
69307POPC   C3B23665  28.161  11.912   6.204  0.0322 -0.1295 -0.1088
69307POPC   C4B23666  28.278  12.387   6.178  0.0744  0.3456  0.0643
69308POPC   NC323667  19.368  16.679   4.302  0.0871  0.2481  0.0062
69308POPC   PO423668  19.532  17.033   4.463  0.1933 -0.0626  0.0909
69308POPC   GL123669  19.553  16.781   4.816 -0.0714 -0.0342  0.2455
69308POPC   GL223670  19.645  17.057   4.962 -0.0841  0.1831 -0.1722
69308POPC   C1A23671  19.503  16.362   5.111 -0.0310  0.1971 -0.0734
69308POPC   D2A23672  19.042  16.220   5.076  0.2749  0.1992  0.1298
69308POPC   C3A23673  18.689  16.345   5.286 -0.0340  0.1873  0.0327
69308POPC   C4A23674  18.396  16.381   5.655 -0.1997 -0.0559 -0.1626
69308POPC   C1B23675  19.375  16.810   5.236 -0.3170 -0.0605 -0.0127
69308POPC   C2B23676  19.300  16.963   5.650  0.0501 -0.0887  0.0059
69308POPC   C3B23677  19.291  17.121   6.091 -0.2511  0.4007 -0.1822
69308POPC   C4B23678  19.582  17.282   6.416  0.0403 -0.3670  0.0353
69309POPC   NC323679  25.505   2.161   5.330 -0.1811 -0.0496  0.0724
69309POPC   PO423680  25.477   1.835   5.581  0.1316 -0.0917 -0.3909
69309POPC   GL123681  25.665   1.533   5.734 -0.0975 -0.3668 -0.0513
69309POPC   GL223682  25.955   1.558   5.731 -0.1393  0.0807 -0.2185
69309POPC   C1A23683  25.734   1.295   6.147  0.0397 -0.1329  0.2433
69309POPC   D2A23684  25.734   1.055   6.531 -0.0205 -0.0613  0.0073
69309POPC   C3A23685  25.865   0.817   6.889 -0.0734  0.0229 -0.2896
69309POPC   C4A23686  25.981   0.495   7.125 -0.2854  0.0011  0.1293
69309POPC   C1B23687  26.166   1.603   6.204 -0.2905 -0.1920 -0.1006
69309POPC   C2B23688  26.190   1.558   6.662  0.3651  0.0591  0.1080
69309POPC   C3B23689  26.469   1.567   7.081 -0.1146  0.3193  0.0198
69309POPC   C4B23690  26.893   1.430   7.204  0.1526  0.1632 -0.4528
69310POPC   NC323691  29.211   1.845   4.756 -0.0156  0.0646  0.0620
69310POPC   PO423692  28.897   2.063   4.887  0.2956 -0.1421  0.3140
69310POPC   GL123693  29.064   1.960   5.263  0.2063 -0.1314  0.2471
69310POPC   GL223694  29.362   1.981   5.318 -0.2484 -0.1947  0.0050
69310POPC   C1A23695  29.016   1.578   5.487 -0.1616  0.1061 -0.1391
69310POPC   D2A23696  29.103   1.383   5.900  0.0542 -0.0461  0.0842
69310POPC   C3A23697  29.215   0.973   5.970 -0.0491  0.4031  0.0094
69310POPC   C4A23698  29.560   0.734   6.183  0.0482  0.1419  0.0543
69310POPC   C1B23699  29.365   1.841   5.789  0.0532  0.0155  0.2263
69310POPC   C2B23700  29.182   1.773   6.226 -0.3126  0.3548  0.0402
69310POPC   C3B23701  29.123   1.642   6.701 -0.0940  0.1919 -0.0553
69310POPC   C4B23702  29.283   1.497   7.115  0.0975  0.0408  0.1291
69311POPC   NC323703  20.497  14.441   4.341  0.1987  0.1159  0.1071
69311POPC   PO423704  20.797  14.517   4.575  0.0796  0.0268 -0.1522
69311POPC   GL123705  21.012  14.833   4.753  0.0133  0.0851  0.2509
69311POPC   GL223706  20.760  14.963   4.809  0.5276  0.2721  0.3199
69311POPC   C1A23707  21.049  14.744   5.227 -0.3001  0.0094  0.1949
69311POPC   D2A23708  20.865  14.776   5.653  0.0705  0.1703  0.1365
69311POPC   C3A23709  20.936  14.977   5.997  0.0495 -0.2702  0.3379
69311POPC   C4A23710  20.799  15.073   6.389  0.1623  0.1081 -0.1793
69311POPC   C1B23711  20.572  14.911   5.221  0.0846  0.2275  0.2006
69311POPC   C2B23712  20.253  14.881   5.544  0.1887 -0.0035 -0.0203
69311POPC   C3B23713  20.090  15.304   5.692 -0.0976 -0.0245  0.3002
69311POPC   C4B23714  19.970  15.416   6.087  0.2074 -0.1907 -0.5500
69312POPC   NC323715  22.697   7.057   5.834  0.1221  0.0287  0.1236
69312POPC   PO423716  22.509   7.377   5.962  0.0781  0.2099  0.1663
69312POPC   GL123717  22.214   7.469   6.161 -0.0031  0.3254 -0.0506
69312POPC   GL223718  22.176   7.380   6.432  0.0203  0.1369 -0.1833
69312POPC   C1A23719  21.777   7.590   6.115 -0.1205 -0.2808 -0.2386
69312POPC   D2A23720  21.495   7.996   6.184  0.1179  0.1858 -0.1772
69312POPC   C3A23721  21.163   7.896   5.851 -0.1570 -0.1760 -0.1986
69312POPC   C4A23722  20.692   7.799   5.788  0.1573  0.1296  0.4535
69312POPC   C1B23723  21.872   7.435   6.802 -0.1324 -0.2321 -0.0567
69312POPC   C2B23724  21.482   7.478   7.017  0.0613  0.2788 -0.1157
69312POPC   C3B23725  21.098   7.319   7.117  0.0647 -0.2372 -0.3140
69312POPC   C4B23726  20.686   7.481   7.296  0.0998  0.1262 -0.1578
69313POPC   NC323727  31.909  13.817   4.299 -0.2788 -0.0243 -0.0256
69313POPC   PO423728  31.985  13.480   4.125 -0.0609 -0.7168  0.0315
69313POPC   GL123729  31.817  13.196   4.366  0.0929  0.0877  0.0591
69313POPC   GL223730  31.889  12.888   4.354  0.1041  0.1212 -0.0247
69313POPC   C1A23731  31.609  13.178   4.788 -0.0416 -0.1188 -0.0504
69313POPC   D2A23732  31.469  13.291   5.166 -0.0992 -0.0971  0.0654
69313POPC   C3A23733  31.523  13.075   5.540  0.1477 -0.0543 -0.2038
69313POPC   C4A23734  31.516  13.024   5.990 -0.2766 -0.3096  0.2685
69313POPC   C1B23735  31.998  12.844   4.799 -0.0048 -0.3201 -0.3350
69313POPC   C2B23736  32.075  13.025   5.237 -0.0743 -0.0607  0.0188
69313POPC   C3B23737  31.998  13.144   5.671  0.0532  0.0661  0.0208
69313POPC   C4B23738  31.989  13.224   6.180  0.1155  0.0791  0.0312
69314POPC   NC323739  30.473   7.948   5.635 -0.2953 -0.2908  0.1084
69314POPC   PO423740  30.794   8.129   5.710  0.1611  0.0344 -0.2335
69314POPC   GL123741  30.927   7.997   6.040  0.2737 -0.0876 -0.0391
69314POPC   GL223742  30.629   7.957   6.132  0.1325 -0.1795  0.0465
69314POPC   C1A23743  31.315   7.888   6.317  0.0180  0.1047  0.2788
69314POPC   D2A23744  31.636   7.733   6.536  0.0864 -0.0670 -0.1945
69314POPC   C3A23745  32.082   7.806   6.453 -0.1185  0.0816  0.1024
69314POPC   C4A23746  32.480   7.799   6.718 -0.1474  0.0047  0.1151
69314POPC   C1B23747  30.870   8.006   6.530  0.0642  0.0277 -0.0998
69314POPC   C2B23748  31.223   8.011   6.865 -0.3679  0.1293 -0.0877
69314POPC   C3B23749  31.259   7.882   7.297 -0.2546 -0.1907  0.0112
69314POPC   C4B23750  31.332   7.477   7.490  0.0531 -0.1953  0.2196
69315POPC   NC323751  17.807  12.331   3.986 -0.3617  0.0160  0.1644
69315POPC   PO423752  17.749  12.682   3.795  0.2113 -0.2655  0.1868
69315POPC   GL123753  17.792  12.855   4.118  0.2703 -0.0483  0.0203
69315POPC   GL223754  17.826  12.701   4.360 -0.0551  0.1904  0.0258
69315POPC   C1A23755  17.555  13.143   4.390 -0.1084 -0.0651  0.0833
69315POPC   D2A23756  17.357  13.511   4.561 -0.0856  0.0482  0.0918
69315POPC   C3A23757  17.433  13.611   5.029  0.2305  0.1080 -0.0519
69315POPC   C4A23758  17.634  13.844   5.384 -0.1472 -0.1250 -0.0666
69315POPC   C1B23759  17.817  12.905   4.762 -0.0399  0.3242  0.0689
69315POPC   C2B23760  17.693  13.137   5.157  0.0214 -0.2551 -0.0702
69315POPC   C3B23761  17.737  13.368   5.501  0.0118 -0.1046 -0.1279
69315POPC   C4B23762  17.868  13.637   5.833 -0.2253  0.0994  0.2625
69316POPC   NC323763  24.006   6.033   6.929 -0.0823 -0.1624  0.0641
69316POPC   PO423764  23.654   6.211   7.038 -0.0547  0.2666 -0.1558
69316POPC   GL123765  23.240   6.114   7.092  0.3765  0.1034  0.2440
69316POPC   GL223766  23.255   5.918   7.297  0.1686 -0.0323 -0.4202
69316POPC   C1A23767  22.981   6.319   7.443 -0.0897  0.0983 -0.2568
69316POPC   D2A23768  22.563   6.453   7.634  0.0798  0.1191 -0.3348
69316POPC   C3A23769  22.512   6.749   8.045 -0.1596  0.1191  0.0478
69316POPC   C4A23770  22.307   7.079   8.338  0.2096 -0.1466 -0.2952
69316POPC   C1B23771  22.908   5.736   7.634  0.0099  0.2316  0.1277
69316POPC   C2B23772  22.932   5.724   8.105  0.2341 -0.1221 -0.2980
69316POPC   C3B23773  22.832   5.361   8.404  0.0035 -0.0033 -0.2153
69316POPC   C4B23774  22.683   5.198   8.778 -0.0256  0.1451  0.1525
69317POPC   NC323775  29.045  10.024   5.602 -0.1096  0.1213 -0.1537
69317POPC   PO423776  28.954  10.338   5.410  0.3056 -0.1372 -0.1508
69317POPC   GL123777  29.211  10.467   5.731 -0.0555 -0.5261 -0.0850
69317POPC   GL223778  29.074  10.408   6.021  0.0923  0.1834 -0.0237
69317POPC   C1A23779  29.217  10.926   5.930 -0.1585  0.3661  0.0316
69317POPC   D2A23780  29.116  11.360   5.992 -0.1361  0.2224  0.6325
69317POPC   C3A23781  28.724  11.552   6.146 -0.0483 -0.0378 -0.1359
69317POPC   C4A23782  28.641  11.521   6.571 -0.1128  0.1124  0.0560
69317POPC   C1B23783  29.091  10.612   6.393  0.1435 -0.0147 -0.2283
69317POPC   C2B23784  29.393  10.666   6.759 -0.1567  0.0095 -0.0517
69317POPC   C3B23785  29.705  10.746   7.140 -0.0286 -0.1767  0.2267
69317POPC   C4B23786  30.130  10.611   7.049 -0.0721  0.0564 -0.0635
69318POPC   NC323787  27.418   9.217   6.463  0.2969 -0.0021 -0.0004
69318POPC   PO423788  27.441   9.358   6.851 -0.1449  0.0712  0.1333
69318POPC   GL123789  27.657   9.533   7.179  0.0212  0.3672 -0.4274
69318POPC   GL223790  27.937   9.598   7.089 -0.1785  0.0637  0.6203
69318POPC   C1A23791  27.772   9.839   7.495  0.1466 -0.3359  0.0199
69318POPC   D2A23792  28.055  10.035   7.802 -0.1819  0.1628 -0.3170
69318POPC   C3A23793  28.358  10.066   8.184  0.2203 -0.0357 -0.0443
69318POPC   C4A23794  28.474  10.237   8.599  0.4150  0.1593 -0.0003
69318POPC   C1B23795  27.992   9.388   7.489  0.1140  0.1658  0.2853
69318POPC   C2B23796  28.239   9.526   7.846  0.1950  0.1228 -0.1504
69318POPC   C3B23797  28.467   9.263   8.113 -0.0811  0.0652 -0.0062
69318POPC   C4B23798  28.850   9.205   8.427  0.1213  0.1372 -0.3236
69319POPC   NC323799  22.695  14.030   4.703 -0.3453 -0.2058 -0.0122
69319POPC   PO423800  22.516  14.337   4.770 -0.3422 -0.0283 -0.2298
69319POPC   GL123801  22.603  14.188   5.126  0.0713  0.2147  0.3692
69319POPC   GL223802  22.303  14.235   5.252  0.0821  0.3179  0.0464
69319POPC   C1A23803  22.672  14.385   5.569 -0.4877 -0.1841 -0.4104
69319POPC   D2A23804  22.628  14.534   6.054 -0.0069 -0.4977  0.2749
69319POPC   C3A23805  22.317  14.207   6.221  0.1068 -0.0038 -0.0303
69319POPC   C4A23806  22.344  13.888   6.599  0.1874 -0.0268 -0.2325
69319POPC   C1B23807  22.295  13.790   5.399 -0.1471  0.1320  0.1614
69319POPC   C2B23808  22.517  13.578   5.733 -0.0806  0.1277  0.1746
69319POPC   C3B23809  22.285  13.246   5.971  0.3883 -0.1835 -0.0209
69319POPC   C4B23810  22.277  12.960   6.320  0.2660 -0.2536  0.0713
69320POPC   NC323811  19.240   4.065   5.135 -0.0625 -0.1780  0.0812
69320POPC   PO423812  19.518   4.173   5.383  0.1127 -0.1364 -0.5613
69320POPC   GL123813  19.327   4.029   5.781  0.1648 -0.1035  0.2490
69320POPC   GL223814  19.388   3.785   5.938  0.3316  0.1762 -0.2620
69320POPC   C1A23815  18.973   4.028   6.070  0.1576 -0.0355  0.0752
69320POPC   D2A23816  18.911   4.151   6.481  0.1083 -0.2216  0.0228
69320POPC   C3A23817  18.753   4.456   6.821 -0.3301 -0.1003 -0.0088
69320POPC   C4A23818  18.719   4.683   7.219  0.4148  0.0237 -0.3065
69320POPC   C1B23819  19.422   3.741   6.401 -0.3554 -0.1121  0.2293
69320POPC   C2B23820  19.442   3.716   6.846 -0.3097  0.0340 -0.1444
69320POPC   C3B23821  19.630   4.075   7.034 -0.3075 -0.0178 -0.2708
69320POPC   C4B23822  19.684   4.489   6.824 -0.1363 -0.0511  0.1760
69321POPC   NC323823  29.879   8.933   5.877  0.2068 -0.0398 -0.3358
69321POPC   PO423824  30.278   8.866   5.830 -0.0938  0.0045  0.0771
69321POPC   GL123825  30.368   9.155   6.046 -0.0478 -0.2048  0.2876
69321POPC   GL223826  30.465   9.048   6.277  0.0886 -0.3243  0.1608
69321POPC   C1A23827  30.554   9.493   6.316  0.0502 -0.2402 -0.1021
69321POPC   D2A23828  30.445   9.903   6.610 -0.0172  0.1308  0.0176
69321POPC   C3A23829  30.825   9.952   6.877 -0.4940  0.1545  0.1112
69321POPC   C4A23830  31.141  10.113   7.122 -0.1647 -0.2370 -0.1748
69321POPC   C1B23831  30.491   9.010   6.729 -0.0191 -0.0848  0.2459
69321POPC   C2B23832  30.703   9.014   7.138  0.0021  0.0570  0.0987
69321POPC   C3B23833  30.913   8.745   7.460 -0.1157  0.2172  0.0787
69321POPC   C4B23834  31.104   8.689   7.822 -0.3923  0.0445  0.1814
69322POPC   NC323835  22.234  11.457   4.882 -0.0330  0.0580  0.4098
69322POPC   PO423836  21.942  11.712   4.710 -0.0734 -0.3264  0.2232
69322POPC   GL123837  21.824  11.538   5.066  0.0164 -0.0712  0.0575
69322POPC   GL223838  21.874  11.291   5.182 -0.1560 -0.3228  0.1952
69322POPC   C1A23839  21.798  11.754   5.533  0.1900 -0.1786  0.1235
69322POPC   D2A23840  21.632  11.880   5.967 -0.0074  0.2493 -0.4083
69322POPC   C3A23841  21.826  12.336   6.072 -0.1054  0.1254 -0.1571
69322POPC   C4A23842  21.996  12.766   5.883  0.0866  0.2164 -0.0804
69322POPC   C1B23843  21.500  11.255   5.455  0.0265  0.1591  0.1194
69322POPC   C2B23844  21.046  11.311   5.397 -0.2318  0.0082 -0.0999
69322POPC   C3B23845  20.606  11.481   5.447 -0.1245  0.2692 -0.0211
69322POPC   C4B23846  20.201  11.631   5.508 -0.0916 -0.2730 -0.1688
69323POPC   NC323847  27.105   5.975   9.460  0.1100  0.0728  0.2301
69323POPC   PO423848  27.009   5.611   9.375 -0.0291 -0.4578 -0.0066
69323POPC   GL123849  27.310   5.311   9.191  0.0030  0.1926 -0.1264
69323POPC   GL223850  27.305   5.216   9.440  0.1969  0.1056 -0.2807
69323POPC   C1A23851  27.467   5.028   8.864  0.2219 -0.0767 -0.2382
69323POPC   D2A23852  27.638   4.573   8.858  0.2121 -0.2009 -0.1191
69323POPC   C3A23853  27.859   4.345   9.244 -0.1324 -0.0873  0.2819
69323POPC   C4A23854  28.267   4.250   9.316 -0.0951 -0.4184 -0.4299
69323POPC   C1B23855  27.631   4.846   9.448 -0.1686  0.1322  0.0314
69323POPC   C2B23856  27.978   4.880   9.104 -0.1066  0.3353 -0.0931
69323POPC   C3B23857  28.188   4.542   8.915  0.0346  0.1404 -0.1366
69323POPC   C4B23858  28.304   4.393   8.468  0.1777 -0.0670  0.0656
69324POPC   NC323859  26.934   4.880  10.744  0.0594 -0.2206 -0.1913
69324POPC   PO423860  26.589   4.752  10.617 -0.1172 -0.1374  0.2196
69324POPC   GL123861  26.414   4.344  10.839 -0.1693 -0.2301 -0.0262
69324POPC   GL223862  26.296   4.463  11.079 -0.0266  0.1329 -0.1612
69324POPC   C1A23863  26.156   4.025  10.607  0.0396 -0.0541 -0.3029
69324POPC   D2A23864  26.057   3.593  10.417  0.3196  0.1904  0.0069
69324POPC   C3A23865  26.376   3.356  10.635 -0.1851 -0.0532 -0.0388
69324POPC   C4A23866  26.669   3.410  11.000 -0.0134 -0.1932 -0.2022
69324POPC   C1B23867  26.510   4.171  11.318 -0.0579 -0.0693  0.1768
69324POPC   C2B23868  26.779   3.762  11.277  0.3745 -0.1002  0.3029
69324POPC   C3B23869  26.850   3.342  11.443 -0.1498  0.2355  0.2895
69324POPC   C4B23870  26.998   3.177  11.865 -0.2291  0.1190 -0.0527
69325POPC   NC323871  25.238  15.062   4.433  0.0663  0.0153  0.1093
69325POPC   PO423872  25.264  14.886   4.779 -0.0376 -0.0263  0.0252
69325POPC   GL123873  25.194  14.800   5.101  0.4830  0.2015  0.1113
69325POPC   GL223874  25.037  14.534   5.079 -0.2582 -0.2070 -0.2185
69325POPC   C1A23875  24.884  14.937   5.362 -0.0407 -0.2161 -0.5184
69325POPC   D2A23876  24.647  15.161   5.742 -0.0641  0.0576 -0.1897
69325POPC   C3A23877  24.557  14.905   6.109  0.3630 -0.0816 -0.0603
69325POPC   C4A23878  24.477  14.595   6.469 -0.3327 -0.5071  0.0510
69325POPC   C1B23879  25.291  14.518   5.429 -0.1465 -0.0920 -0.0864
69325POPC   C2B23880  25.647  14.257   5.605 -0.0264 -0.1259  0.1482
69325POPC   C3B23881  25.935  14.049   5.843 -0.1273  0.0586  0.0068
69325POPC   C4B23882  26.257  13.973   6.136  0.1125 -0.1849  0.1179
69326POPC   NC323883  22.155   8.484   5.611 -0.0457 -0.0642 -0.0232
69326POPC   PO423884  22.309   8.138   5.778  0.2910 -0.1633  0.3623
69326POPC   GL123885  21.980   8.043   6.021 -0.2211 -0.0593  0.1275
69326POPC   GL223886  21.873   8.286   6.008 -0.2658 -0.2096 -0.1815
69326POPC   C1A23887  21.890   8.043   6.485  0.2059  0.0026  0.1030
69326POPC   D2A23888  21.920   8.187   6.943  0.1525  0.1064 -0.2631
69326POPC   C3A23889  21.553   7.997   7.179 -0.0444 -0.1150  0.0512
69326POPC   C4A23890  21.152   7.846   7.233  0.0383  0.1011 -0.0207
69326POPC   C1B23891  21.632   8.528   6.317  0.0643  0.1201 -0.0975
69326POPC   C2B23892  21.432   8.502   6.710  0.1090 -0.1855  0.0296
69326POPC   C3B23893  21.521   8.506   7.148 -0.3404  0.0297 -0.2463
69326POPC   C4B23894  21.858   8.320   7.438 -0.0023 -0.2000 -0.1194
69327POPC   NC323895  25.823   8.111   7.096  0.0157 -0.3531  0.1330
69327POPC   PO423896  25.955   8.406   7.315 -0.0538 -0.2248  0.0353
69327POPC   GL123897  25.970   8.393   7.764  0.3339  0.1741 -0.0756
69327POPC   GL223898  25.730   8.512   7.738 -0.0774  0.0943 -0.0814
69327POPC   C1A23899  25.822   8.579   8.224 -0.0375  0.0687  0.0167
69327POPC   D2A23900  25.601   8.755   8.624 -0.4530  0.2561  0.0432
69327POPC   C3A23901  25.738   9.044   8.874  0.1391 -0.1241  0.1832
69327POPC   C4A23902  25.714   9.350   9.245  0.0771  0.1171  0.0598
69327POPC   C1B23903  25.802   8.997   7.843 -0.0533  0.1775  0.0776
69327POPC   C2B23904  25.892   9.438   7.930 -0.1465  0.0825 -0.1671
69327POPC   C3B23905  25.874   9.872   7.732 -0.2909  0.2052 -0.1582
69327POPC   C4B23906  25.510  10.124   7.674 -0.0888  0.0365  0.0365
69328POPC   NC323907  27.895  12.505   5.122 -0.0289  0.0709  0.0368
69328POPC   PO423908  27.723  12.825   5.265  0.0195  0.1393  0.1430
69328POPC   GL123909  27.842  12.859   5.659  0.1916  0.0164 -0.0753
69328POPC   GL223910  27.623  13.014   5.854  0.0657  0.2664 -0.2182
69328POPC   C1A23911  28.273  12.861   5.872  0.1992  0.1167 -0.1586
69328POPC   D2A23912  28.579  12.822   6.155 -0.1486  0.1067 -0.0141
69328POPC   C3A23913  28.569  12.609   6.527 -0.2990  0.2362  0.0746
69328POPC   C4A23914  28.858  12.568   6.882  0.1020  0.1789 -0.0147
69328POPC   C1B23915  27.922  12.893   6.183  0.0004 -0.1831 -0.3566
69328POPC   C2B23916  28.068  12.831   6.595  0.0494 -0.3444 -0.1227
69328POPC   C3B23917  28.268  12.772   6.968  0.0236  0.2325  0.0417
69328POPC   C4B23918  28.201  12.514   7.397 -0.0410  0.0686 -0.0953
69329POPC   NC323919  28.755  13.122   4.735  0.0842  0.2709 -0.1148
69329POPC   PO423920  28.436  13.138   4.949  0.0663 -0.2003 -0.2618
69329POPC   GL123921  28.377  13.455   5.147  0.3790 -0.0255 -0.1793
69329POPC   GL223922  28.333  13.747   5.028  0.0214 -0.2976 -0.1367
69329POPC   C1A23923  28.532  13.500   5.583  0.2830  0.2654 -0.2034
69329POPC   D2A23924  28.638  13.528   6.007 -0.3467  0.2366  0.2793
69329POPC   C3A23925  28.567  13.547   6.460  0.0035 -0.1287  0.1458
69329POPC   C4A23926  28.205  13.687   6.781 -0.0124  0.1942 -0.1281
69329POPC   C1B23927  28.068  13.688   5.414  0.0025 -0.1373 -0.1105
69329POPC   C2B23928  27.841  13.917   5.791 -0.0392  0.5045 -0.1359
69329POPC   C3B23929  27.612  13.850   6.198 -0.0174  0.0007  0.0907
69329POPC   C4B23930  27.752  13.789   6.650  0.1581 -0.0004 -0.0922
69330POPC   NC323931  26.482   4.257  12.495  0.0601 -0.0926 -0.2135
69330POPC   PO423932  26.715   4.335  12.748 -0.0523  0.0589 -0.0246
69330POPC   GL123933  26.757   3.991  12.741 -0.1980  0.2289  0.1944
69330POPC   GL223934  27.033   3.910  12.731  0.0443 -0.0972 -0.1198
69330POPC   C1A23935  26.745   3.796  12.346  0.1519  0.1498 -0.1168
69330POPC   D2A23936  26.571   3.384  12.283 -0.0533 -0.0685  0.0352
69330POPC   C3A23937  26.290   3.171  12.563  0.1909  0.1153 -0.0661
69330POPC   C4A23938  26.302   3.049  13.005  0.2102 -0.1990 -0.0630
69330POPC   C1B23939  26.760   3.514  12.786  0.0703  0.0425 -0.1793
69330POPC   C2B23940  26.717   3.039  12.810 -0.1739  0.2834  0.2859
69330POPC   C3B23941  26.944   2.757  13.066  0.0476  0.3114 -0.1176
69330POPC   C4B23942  27.063   2.837  13.506 -0.1285  0.1744 -0.0851
69331POPC   NC323943   0.388   7.224   5.439  0.0343 -0.1497 -0.2807
69331POPC   PO423944   0.192   6.908   5.345  0.1135 -0.0142 -0.0028
69331POPC   GL123945   0.152   6.928   5.762 -0.1547 -0.0256  0.0270
69331POPC   GL223946   0.136   7.252   5.932 -0.0940  0.3213  0.0748
69331POPC   C1A23947   0.095   6.605   6.026 -0.0807 -0.0842  0.0158
69331POPC   D2A23948   0.101   6.427   6.448 -0.0214  0.0433 -0.2551
69331POPC   C3A23949   0.413   6.422   6.796  0.2058 -0.1546 -0.4743
69331POPC   C4A23950   0.323   6.658   7.156 -0.0646  0.1720  0.2331
69331POPC   C1B23951   0.462   7.284   6.280 -0.2527 -0.0135  0.0095
69331POPC   C2B23952   0.664   7.378   6.678  0.0718  0.2995 -0.0337
69331POPC   C3B23953   1.043   7.598   6.767 -0.0959  0.0934 -0.0264
69331POPC   C4B23954   1.293   7.765   7.151  0.1900 -0.0209  0.2125
69332POPC   NC323955  21.296  13.615   4.602 -0.2255 -0.1704 -0.2117
69332POPC   PO423956  21.325  13.319   4.351  0.0387 -0.2388  0.1699
69332POPC   GL123957  21.230  13.101   4.640  0.1517  0.1217  0.0343
69332POPC   GL223958  21.403  12.981   4.766 -0.2629  0.2542 -0.3296
69332POPC   C1A23959  20.805  13.054   4.892 -0.1983  0.2916  0.2231
69332POPC   D2A23960  20.628  13.318   5.244 -0.0219  0.1915 -0.0573
69332POPC   C3A23961  20.669  13.253   5.742  0.0506 -0.2578  0.1410
69332POPC   C4A23962  20.531  13.150   6.176 -0.4541  0.2014  0.1454
69332POPC   C1B23963  21.417  12.787   5.188  0.0101 -0.0103  0.0094
69332POPC   C2B23964  21.510  12.690   5.657 -0.1808 -0.3956  0.0680
69332POPC   C3B23965  21.425  12.577   6.072 -0.3072 -0.0615 -0.2390
69332POPC   C4B23966  21.567  12.534   6.505 -0.0009 -0.2543 -0.1401
69333POPC   NC323967  22.019   3.555   5.991  0.1258 -0.0999 -0.1070
69333POPC   PO423968  21.842   3.572   5.645  0.1194  0.0284  0.3819
69333POPC   GL123969  21.500   3.490   5.947  0.2862  0.0669 -0.1459
69333POPC   GL223970  21.374   3.242   6.039  0.1379 -0.1601 -0.1615
69333POPC   C1A23971  21.636   3.594   6.387  0.1764 -0.1867 -0.2311
69333POPC   D2A23972  21.775   3.811   6.796 -0.1509 -0.2916  0.1132
69333POPC   C3A23973  21.541   3.896   7.147 -0.2423 -0.1745 -0.0402
69333POPC   C4A23974  21.373   4.007   7.537 -0.1039  0.0479 -0.0458
69333POPC   C1B23975  21.195   3.198   6.492 -0.1459 -0.2363 -0.2163
69333POPC   C2B23976  20.935   3.231   6.889 -0.0126  0.0402  0.0290
69333POPC   C3B23977  21.102   3.270   7.327  0.1350  0.1413  0.3647
69333POPC   C4B23978  21.291   3.103   7.713 -0.2288 -0.0882 -0.2452
69334POPC   NC323979  28.713  10.855   4.885  0.0055  0.1027 -0.1268
69334POPC   PO423980  29.006  11.089   5.048  0.2258  0.2647 -0.1910
69334POPC   GL123981  29.202  10.994   5.404 -0.1227  0.0203  0.0425
69334POPC   GL223982  29.219  10.771   5.353 -0.0430  0.2177  0.0876
69334POPC   C1A23983  29.545  11.215   5.563 -0.1130  0.3352 -0.2308
69334POPC   D2A23984  29.631  11.268   6.006  0.0300 -0.0299  0.0937
69334POPC   C3A23985  29.461  11.590   6.264  0.1197  0.3372  0.2328
69334POPC   C4A23986  29.101  11.779   6.550  0.2428 -0.1546 -0.1608
69334POPC   C1B23987  29.590  10.690   5.642  0.0298 -0.1552  0.1685
69334POPC   C2B23988  29.939  10.884   5.950 -0.0187 -0.0063  0.0403
69334POPC   C3B23989  30.270  11.023   6.252 -0.0180  0.2530 -0.1982
69334POPC   C4B23990  30.338  11.103   6.717 -0.1067 -0.1887 -0.0456
69335POPC   NC323991  27.413   4.588   5.814  0.1686 -0.0313  0.0642
69335POPC   PO423992  27.642   4.382   6.083  0.1643  0.0150  0.0600
69335POPC   GL123993  27.751   4.094   6.478 -0.3080  0.0567 -0.0093
69335POPC   GL223994  27.764   3.797   6.549  0.0572  0.1296 -0.0386
69335POPC   C1A23995  28.205   4.003   6.606  0.1243 -0.0346 -0.1402
69335POPC   D2A23996  28.530   3.812   6.309  0.0628  0.1156  0.2245
69335POPC   C3A23997  28.724   3.633   5.983 -0.1673  0.0177 -0.1040
69335POPC   C4A23998  29.043   3.255   5.976  0.2053 -0.0535 -0.4351
69335POPC   C1B23999  28.017   3.751   6.989 -0.2211  0.2819  0.1497
69335POPC   C2B24000  28.246   3.594   7.341 -0.2721 -0.0305  0.2771
69335POPC   C3B24001  28.367   3.241   7.600 -0.0504  0.0779  0.0211
69335POPC   C4B24002  28.442   2.894   7.866 -0.0841  0.0792 -0.2938
69336POPC   NC324003  23.198  13.976   4.982  0.0448 -0.1418  0.1744
69336POPC   PO424004  23.143  13.687   4.756 -0.0810  0.1467 -0.0872
69336POPC   GL124005  23.100  13.373   4.887 -0.1238  0.0086 -0.2019
69336POPC   GL224006  23.235  13.409   5.136  0.0921 -0.0425  0.0885
69336POPC   C1A24007  22.928  13.007   5.052 -0.2913 -0.1301 -0.0173
69336POPC   D2A24008  23.044  12.630   5.172  0.1361 -0.1311  0.1087
69336POPC   C3A24009  22.624  12.454   5.320 -0.1367  0.1280 -0.0827
69336POPC   C4A24010  22.377  12.798   5.621 -0.2431  0.2108 -0.0700
69336POPC   C1B24011  23.153  13.552   5.586  0.0929 -0.1759  0.0443
69336POPC   C2B24012  23.099  13.585   6.025 -0.0071 -0.2080  0.0656
69336POPC   C3B24013  23.231  13.277   6.307 -0.3881 -0.0118  0.1765
69336POPC   C4B24014  23.154  12.861   6.420  0.0662  0.2044  0.1926
69337POPC   NC324015  31.051   9.544   5.423 -0.0631 -0.0201  0.1127
69337POPC   PO424016  31.304   9.392   5.688  0.2582  0.1625 -0.1569
69337POPC   GL124017  31.125   9.401   6.039  0.3682 -0.1763  0.2539
69337POPC   GL224018  31.108   9.250   6.296  0.1543 -0.0554  0.1954
69337POPC   C1A24019  31.115   9.792   6.238  0.1421 -0.0745 -0.0354
69337POPC   D2A24020  31.246   9.984   6.589 -0.0107  0.0550  0.0637
69337POPC   C3A24021  31.614  10.173   6.829  0.0138 -0.0417  0.2777
69337POPC   C4A24022  31.999  10.272   7.099  0.0238 -0.0927  0.0254
69337POPC   C1B24023  30.962   9.553   6.648 -0.0478  0.1388  0.0801
69337POPC   C2B24024  30.844   9.520   7.098 -0.2014 -0.0707  0.0118
69337POPC   C3B24025  30.722   9.779   7.412  0.1417  0.1152 -0.0236
69337POPC   C4B24026  30.719  10.030   7.855  0.1693 -0.4255  0.0962
69338POPC   NC324027  21.065   6.929   5.362 -0.0480  0.3664 -0.0592
69338POPC   PO424028  20.758   6.910   5.613 -0.0207  0.1109 -0.1682
69338POPC   GL124029  20.707   6.977   5.985 -0.0574 -0.4324  0.2571
69338POPC   GL224030  20.625   7.297   5.970 -0.0692 -0.3527 -0.3680
69338POPC   C1A24031  20.716   7.056   6.420  0.0099 -0.1044  0.0684
69338POPC   D2A24032  20.545   7.138   6.762 -0.2414 -0.0008 -0.2203
69338POPC   C3A24033  20.140   7.210   6.917  0.2383  0.3801  0.1732
69338POPC   C4A24034  19.678   7.198   6.916 -0.1663  0.0365  0.2128
69338POPC   C1B24035  20.542   7.598   6.348 -0.2988  0.0349  0.0576
69338POPC   C2B24036  20.390   7.706   6.774 -0.0205  0.0333  0.2912
69338POPC   C3B24037  19.964   7.616   7.029  0.3054  0.3947  0.0336
69338POPC   C4B24038  19.861   7.387   7.366 -0.2731  0.1447 -0.1680
69339POPC   NC324039  31.131   1.047   3.845  0.1762 -0.4067  0.2792
69339POPC   PO424040  31.044   1.204   4.180 -0.1170  0.0189 -0.0929
69339POPC   GL124041  31.030   1.191   4.568  0.3250 -0.0016 -0.4522
69339POPC   GL224042  30.700   1.176   4.585  0.1905  0.0655  0.0199
69339POPC   C1A24043  31.342   1.075   4.917 -0.1337  0.1793 -0.1455
69339POPC   D2A24044  31.573   1.108   5.296 -0.0575  0.0667  0.2508
69339POPC   C3A24045  31.486   0.860   5.653  0.0105 -0.0189  0.1457
69339POPC   C4A24046  31.236   0.563   5.974 -0.0472 -0.1984 -0.0289
69339POPC   C1B24047  30.781   1.249   5.031 -0.0488  0.0100 -0.1993
69339POPC   C2B24048  30.779   1.462   5.494  0.0725 -0.0853  0.2376
69339POPC   C3B24049  31.045   1.573   5.874  0.0766 -0.0929  0.1871
69339POPC   C4B24050  31.176   1.463   6.284  0.3055  0.3124  0.1042
69340POPC   NC324051  32.239   4.057   4.861  0.0614 -0.1932  0.1223
69340POPC   PO424052  31.845   4.122   4.921 -0.0992 -0.1383 -0.0141
69340POPC   GL124053  31.795   4.296   5.267  0.6245  0.1605  0.2093
69340POPC   GL224054  32.077   4.241   5.353 -0.0158 -0.0771  0.0596
69340POPC   C1A24055  31.759   4.007   5.680 -0.2017 -0.0888  0.1328
69340POPC   D2A24056  32.036   3.981   6.082 -0.4132  0.1559  0.2154
69340POPC   C3A24057  31.851   3.995   6.474  0.0455 -0.1483  0.0299
69340POPC   C4A24058  31.948   4.004   6.957  0.4141  0.0859  0.0270
69340POPC   C1B24059  32.045   4.547   5.681 -0.1668  0.1845  0.1124
69340POPC   C2B24060  32.264   4.604   6.057  0.0003  0.1467  0.1469
69340POPC   C3B24061  32.316   4.748   6.448  0.0579 -0.0269 -0.0326
69340POPC   C4B24062  32.306   4.939   6.844 -0.0551 -0.1479  0.1242
69341POPC   NC324063  23.576   7.601   6.539  0.0883 -0.0740  0.0155
69341POPC   PO424064  23.611   7.253   6.667 -0.0972 -0.1176 -0.0558
69341POPC   GL124065  23.215   7.287   6.660  0.1830 -0.1575 -0.1410
69341POPC   GL224066  23.078   7.564   6.652 -0.2451 -0.0172 -0.4085
69341POPC   C1A24067  22.946   7.293   7.060  0.1316  0.0640  0.2160
69341POPC   D2A24068  23.018   7.316   7.506  0.0394 -0.3814  0.1028
69341POPC   C3A24069  22.907   7.740   7.638 -0.0171  0.0070  0.0735
69341POPC   C4A24070  22.782   8.124   7.887 -0.0197 -0.1554  0.1512
69341POPC   C1B24071  23.177   7.759   7.017 -0.0115  0.1036  0.1807
69341POPC   C2B24072  23.284   8.202   7.227  0.0942 -0.1887  0.2085
69341POPC   C3B24073  23.210   8.449   7.591 -0.1118  0.4985  0.1822
69341POPC   C4B24074  23.461   8.732   7.893  0.0458 -0.0073  0.0221
69342POPC   NC324075  16.257  10.260   4.222  0.2595 -0.6420  0.1688
69342POPC   PO424076  16.359  10.295   4.651  0.3970  0.2218 -0.2153
69342POPC   GL124077  16.348  10.359   5.125 -0.0837  0.1489 -0.2913
69342POPC   GL224078  16.420  10.147   5.231  0.1019 -0.0137 -0.0008
69342POPC   C1A24079  16.516  10.557   5.535  0.0271 -0.1576  0.0626
69342POPC   D2A24080  16.599  10.677   5.969 -0.0682 -0.1516  0.2319
69342POPC   C3A24081  16.855  10.526   6.311 -0.0538 -0.0863 -0.0584
69342POPC   C4A24082  17.101  10.627   6.712 -0.1671 -0.1134  0.2179
69342POPC   C1B24083  16.445   9.860   5.580  0.2833  0.0177 -0.4876
69342POPC   C2B24084  16.535   9.797   6.027 -0.0667  0.0444  0.0296
69342POPC   C3B24085  16.587   9.905   6.466 -0.1745 -0.1589 -0.2111
69342POPC   C4B24086  16.706  10.303   6.732 -0.0479 -0.0077 -0.0738
69343POPC   NC324087  31.468   4.446   4.973 -0.0607 -0.1810 -0.1545
69343POPC   PO424088  31.592   4.781   5.135 -0.1328  0.2213  0.2543
69343POPC   GL124089  31.280   4.477   5.416 -0.2908  0.2554  0.1193
69343POPC   GL224090  31.500   4.466   5.567  0.0633  0.0798 -0.3662
69343POPC   C1A24091  31.195   4.360   5.947  0.4825  0.0502  0.1117
69343POPC   D2A24092  31.157   4.286   6.412  0.0875  0.1666 -0.0715
69343POPC   C3A24093  31.496   4.242   6.751 -0.2940 -0.2233  0.2198
69343POPC   C4A24094  31.543   4.112   7.233 -0.0090 -0.1387 -0.3575
69343POPC   C1B24095  31.682   4.498   5.989 -0.0860 -0.1694  0.2503
69343POPC   C2B24096  31.873   4.509   6.401 -0.5432  0.2947 -0.0142
69343POPC   C3B24097  31.980   4.555   6.797  0.0288 -0.0245 -0.0964
69343POPC   C4B24098  32.059   4.655   7.215  0.2397 -0.0872 -0.0118
69344POPC   NC324099  31.008  12.084   4.248 -0.0929 -0.1794  0.0839
69344POPC   PO424100  31.283  12.402   4.216  0.3367  0.1560  0.2112
69344POPC   GL124101  31.234  12.580   4.559 -0.0141  0.3850  0.1648
69344POPC   GL224102  31.480  12.721   4.658  0.2903 -0.0617  0.1209
69344POPC   C1A24103  31.115  12.553   5.003  0.0512 -0.2012 -0.0148
69344POPC   D2A24104  31.226  12.654   5.437  0.1563 -0.3016 -0.2122
69344POPC   C3A24105  31.337  12.509   5.893 -0.1087  0.2057  0.3539
69344POPC   C4A24106  31.083  12.384   6.250  0.1120  0.1198  0.1473
69344POPC   C1B24107  31.607  12.787   5.153  0.3973  0.0547 -0.2500
69344POPC   C2B24108  31.740  12.639   5.579  0.2515  0.3217  0.0102
69344POPC   C3B24109  31.922  12.769   5.953 -0.2871  0.1534 -0.2091
69344POPC   C4B24110  32.344  12.777   6.125  0.0345 -0.0438 -0.1943
69345POPC   NC324111  21.389  16.451   4.438 -0.1193  0.0258 -0.0664
69345POPC   PO424112  21.056  16.643   4.463 -0.4302 -0.0468 -0.2762
69345POPC   GL124113  21.021  16.408   4.766  0.0631  0.2800 -0.1654
69345POPC   GL224114  20.853  16.531   4.951 -0.1673  0.0053  0.1575
69345POPC   C1A24115  20.922  15.985   4.933  0.1430  0.0886 -0.1610
69345POPC   D2A24116  20.815  15.806   5.304  0.1172  0.2453  0.0031
69345POPC   C3A24117  20.881  15.729   5.754  0.0096 -0.0572  0.1755
69345POPC   C4A24118  20.694  15.574   6.108 -0.1851  0.1254 -0.0743
69345POPC   C1B24119  20.721  16.301   5.329  0.1868 -0.0359 -0.0544
69345POPC   C2B24120  20.603  16.211   5.754  0.1286 -0.1940 -0.2802
69345POPC   C3B24121  20.796  16.080   6.189  0.3385 -0.0590 -0.1099
69345POPC   C4B24122  21.171  15.908   6.404 -0.2251 -0.0897 -0.2772
69346POPC   NC324123  30.638   5.574   5.665 -0.0948 -0.1124  0.6150
69346POPC   PO424124  30.649   5.694   6.040  0.1709  0.0950 -0.3163
69346POPC   GL124125  30.832   5.376   6.292  0.0980  0.1385 -0.0710
69346POPC   GL224126  30.725   5.547   6.539 -0.2510 -0.2285 -0.1873
69346POPC   C1A24127  31.240   5.373   6.486  0.0091 -0.0537 -0.2800
69346POPC   D2A24128  31.552   5.487   6.846 -0.1215 -0.2850 -0.0874
69346POPC   C3A24129  31.792   5.501   7.270  0.1311 -0.2540  0.2038
69346POPC   C4A24130  31.825   5.502   7.735  0.3306  0.0392 -0.2910
69346POPC   C1B24131  30.682   5.642   7.009 -0.2026 -0.0680  0.0080
69346POPC   C2B24132  30.448   5.724   7.411  0.0496 -0.0988  0.0251
69346POPC   C3B24133  30.344   5.372   7.706 -0.0390  0.1567 -0.0867
69346POPC   C4B24134  30.554   5.057   7.992 -0.0453  0.2844 -0.0200
69347POPC   NC324135  16.995   9.303   4.698  0.0492 -0.1065  0.1449
69347POPC   PO424136  16.875   9.596   4.938 -0.1071  0.0197 -0.2553
69347POPC   GL124137  16.973   9.698   5.380  0.1939 -0.0514 -0.2250
69347POPC   GL224138  17.225   9.936   5.310 -0.0074 -0.1888  0.0567
69347POPC   C1A24139  17.073   9.740   5.813  0.3879 -0.0898  0.1318
69347POPC   D2A24140  17.123   9.665   6.292 -0.1529  0.0965 -0.0489
69347POPC   C3A24141  16.752   9.431   6.530 -0.3443 -0.1553 -0.3214
69347POPC   C4A24142  16.721   9.223   6.954  0.0368  0.1066 -0.0701
69347POPC   C1B24143  17.271  10.249   5.653 -0.0127 -0.1407  0.1261
69347POPC   C2B24144  17.342  10.384   6.061  0.1514  0.0450 -0.1209
69347POPC   C3B24145  17.442  10.695   6.297 -0.1313 -0.1060 -0.1481
69347POPC   C4B24146  17.291  11.052   6.506  0.1899 -0.6283 -0.2330
69348POPC   NC324147  30.276   9.697   5.231  0.1376 -0.2089 -0.0663
69348POPC   PO424148  30.583   9.418   5.295  0.1636 -0.1954  0.5083
69348POPC   GL124149  30.489   9.336   5.657  0.1427  0.4692  0.1069
69348POPC   GL224150  30.727   9.497   5.782 -0.2213  0.0724 -0.0738
69348POPC   C1A24151  30.225   9.581   5.944 -0.5440  0.1594 -0.1863
69348POPC   D2A24152  30.151   9.970   6.206  0.2661 -0.0527 -0.1655
69348POPC   C3A24153  29.715  10.037   6.367 -0.1776  0.2984  0.1020
69348POPC   C4A24154  29.326  10.171   6.520 -0.0483  0.0853 -0.2314
69348POPC   C1B24155  30.635   9.901   6.036  0.0725 -0.1142 -0.0741
69348POPC   C2B24156  30.598  10.296   6.273 -0.1289  0.0222 -0.1264
69348POPC   C3B24157  30.534  10.410   6.680  0.2549  0.2937  0.4142
69348POPC   C4B24158  30.664  10.651   7.041  0.2764  0.1627 -0.0602
69349POPC   NC324159  24.539   4.380   7.462 -0.1361 -0.1136  0.4941
69349POPC   PO424160  24.631   4.052   7.626 -0.0269 -0.2979 -0.1291
69349POPC   GL124161  24.749   3.656   7.717 -0.0557  0.1120  0.2352
69349POPC   GL224162  24.486   3.604   7.787 -0.2104 -0.0937 -0.2024
69349POPC   C1A24163  24.777   3.253   7.944  0.0208 -0.1164  0.1338
69349POPC   D2A24164  24.737   2.993   8.351  0.0097 -0.1232 -0.0848
69349POPC   C3A24165  25.108   2.818   8.568 -0.0471 -0.3057 -0.0019
69349POPC   C4A24166  25.340   2.739   8.918  0.1523 -0.1977  0.0261
69349POPC   C1B24167  24.231   3.495   8.099  0.1046  0.0027 -0.1737
69349POPC   C2B24168  24.128   3.272   8.531 -0.0718 -0.2902  0.0260
69349POPC   C3B24169  24.096   3.303   8.954 -0.1307  0.1072 -0.0591
69349POPC   C4B24170  24.066   3.230   9.426  0.0712  0.1703  0.2672
69350POPC   NC324171  19.004   8.167   4.934  0.3302 -0.0973  0.1811
69350POPC   PO424172  19.164   7.856   5.094  0.0449 -0.0335 -0.0166
69350POPC   GL124173  19.188   7.852   5.448 -0.2203  0.0475  0.0534
69350POPC   GL224174  19.207   8.152   5.600 -0.0068 -0.0701 -0.0703
69350POPC   C1A24175  19.182   7.792   5.930  0.0415  0.0129  0.2241
69350POPC   D2A24176  19.196   7.884   6.391  0.0740 -0.0792  0.3539
69350POPC   C3A24177  19.248   8.145   6.746  0.1288  0.0461  0.0255
69350POPC   C4A24178  19.168   8.181   7.210 -0.0390 -0.3345  0.0583
69350POPC   C1B24179  19.164   8.336   6.048  0.1248  0.1184  0.1581
69350POPC   C2B24180  19.193   8.534   6.440 -0.0461  0.1346  0.0925
69350POPC   C3B24181  19.001   8.794   6.742  0.2875 -0.1117  0.2032
69350POPC   C4B24182  18.867   9.154   7.019  0.0687 -0.1006  0.2059
69351POPC   NC324183  23.153   3.270   6.396  0.1372 -0.0219  0.4549
69351POPC   PO424184  23.227   3.601   6.573 -0.0027 -0.1082  0.0966
69351POPC   GL124185  23.089   3.516   6.858 -0.4460  0.0127  0.0999
69351POPC   GL224186  22.807   3.369   6.811  0.0739 -0.1879  0.0334
69351POPC   C1A24187  22.933   3.454   7.301 -0.1662  0.1170  0.1191
69351POPC   D2A24188  22.810   3.148   7.604  0.0718 -0.0368  0.3293
69351POPC   C3A24189  22.755   2.836   7.889  0.0266  0.1583  0.0531
69351POPC   C4A24190  22.723   2.441   8.151  0.4245  0.0560 -0.2573
69351POPC   C1B24191  22.771   2.979   7.110  0.0809 -0.2228  0.0108
69351POPC   C2B24192  22.511   2.822   7.460 -0.0822  0.0730  0.2454
69351POPC   C3B24193  22.527   2.422   7.662 -0.1093 -0.2402 -0.1008
69351POPC   C4B24194  22.478   1.985   7.806 -0.1002 -0.0127  0.0679
69352POPC   NC324195  21.026  15.463   4.138 -0.0777  0.1121 -0.0459
69352POPC   PO424196  21.075  15.136   4.369 -0.0622  0.2960  0.2229
69352POPC   GL124197  21.215  15.357   4.780  0.0896  0.1177 -0.1481
69352POPC   GL224198  21.016  15.507   4.668  0.0307 -0.0850 -0.3005
69352POPC   C1A24199  21.415  15.221   5.155  0.2411  0.2906 -0.5687
69352POPC   D2A24200  21.617  15.361   5.519  0.0581 -0.1654  0.1954
69352POPC   C3A24201  21.480  15.453   5.910  0.3467 -0.1479 -0.0346
69352POPC   C4A24202  21.167  15.397   6.271 -0.1179  0.0453  0.0097
69352POPC   C1B24203  21.264  15.680   5.057 -0.0889 -0.0346 -0.0810
69352POPC   C2B24204  21.510  15.835   5.432 -0.0127 -0.3033 -0.2143
69352POPC   C3B24205  21.511  15.949   5.951  0.2314 -0.1349 -0.1192
69352POPC   C4B24206  21.623  16.149   6.346 -0.1346 -0.2151  0.3835
69353POPC   NC324207  22.916  10.607   4.756 -0.1769 -0.1777 -0.0652
69353POPC   PO424208  23.128  10.578   5.103  0.1020  0.3247  0.2508
69353POPC   GL124209  23.161  10.419   5.472 -0.0109  0.2994  0.1446
69353POPC   GL224210  23.209  10.675   5.580 -0.2966 -0.0160  0.3805
69353POPC   C1A24211  23.340  10.342   5.947  0.0024  0.0730 -0.1573
69353POPC   D2A24212  23.131  10.350   6.392  0.0567 -0.1362 -0.2028
69353POPC   C3A24213  23.036  10.737   6.585 -0.0015  0.0223  0.1094
69353POPC   C4A24214  22.913  11.110   6.819  0.2005 -0.0936  0.1653
69353POPC   C1B24215  22.957  11.024   5.778  0.2813 -0.0254  0.0325
69353POPC   C2B24216  23.002  11.188   6.206 -0.3171  0.1789 -0.0780
69353POPC   C3B24217  22.628  11.058   6.410  0.1081  0.0462  0.1749
69353POPC   C4B24218  22.299  11.219   6.686 -0.0948 -0.0461 -0.1877
69354POPC   NC324219  25.545  15.796   5.060 -0.0168  0.0519 -0.0051
69354POPC   PO424220  25.376  16.036   5.327  0.1598 -0.1202 -0.2501
69354POPC   GL124221  25.210  15.948   5.696 -0.1308  0.1891 -0.1456
69354POPC   GL224222  25.177  16.179   5.912  0.2033  0.0999 -0.0475
69354POPC   C1A24223  25.220  15.548   5.977  0.2052 -0.0957 -0.2122
69354POPC   D2A24224  24.921  15.208   6.135  0.2841 -0.0234  0.1590
69354POPC   C3A24225  24.802  15.030   6.515 -0.1187 -0.3686 -0.0537
69354POPC   C4A24226  24.909  14.779   6.914  0.2671  0.0820 -0.1461
69354POPC   C1B24227  25.122  16.442   6.287 -0.1113 -0.2666 -0.1267
69354POPC   C2B24228  24.951  16.463   6.772 -0.2027  0.0575 -0.2377
69354POPC   C3B24229  24.792  16.174   7.101  0.0225  0.1679 -0.1269
69354POPC   C4B24230  24.519  15.999   7.437 -0.0297 -0.1455 -0.0394
69355POPC   NC324231  19.530   3.382   5.232 -0.1071  0.1235  0.1136
69355POPC   PO424232  19.365   3.685   5.412  0.2638 -0.0444 -0.3194
69355POPC   GL124233  19.066   3.540   5.660 -0.0223  0.0065 -0.3604
69355POPC   GL224234  18.916   3.761   5.646  0.0821  0.0142  0.1965
69355POPC   C1A24235  19.031   3.541   6.132 -0.0459 -0.1664  0.2604
69355POPC   D2A24236  18.755   3.674   6.450  0.1213  0.0009 -0.2089
69355POPC   C3A24237  18.960   3.880   6.822 -0.0541  0.0235  0.0736
69355POPC   C4A24238  19.154   4.038   7.231 -0.0943  0.0353  0.0312
69355POPC   C1B24239  18.535   3.572   5.833 -0.2033 -0.0811 -0.1621
69355POPC   C2B24240  18.436   3.213   6.071 -0.0343  0.0235  0.0802
69355POPC   C3B24241  18.576   2.783   6.086  0.1110 -0.1391 -0.2049
69355POPC   C4B24242  18.905   2.604   5.820 -0.0496  0.1469  0.1052
69356POPC   NC324243  24.757   3.067   7.037  0.1840 -0.2143  0.1695
69356POPC   PO424244  25.036   3.319   7.130 -0.1562 -0.3137 -0.0537
69356POPC   GL124245  25.163   3.019   7.262  0.0130 -0.2236 -0.0735
69356POPC   GL224246  25.025   2.744   7.354  0.0440 -0.2437 -0.1737
69356POPC   C1A24247  25.515   2.966   7.551 -0.0982  0.1223  0.0000
69356POPC   D2A24248  25.582   3.030   7.998 -0.5048  0.2318  0.0852
69356POPC   C3A24249  25.545   2.695   8.322  0.2271  0.1793  0.1134
69356POPC   C4A24250  25.862   2.554   8.608  0.1272  0.1940 -0.2151
69356POPC   C1B24251  24.670   2.466   7.356 -0.0074 -0.0662  0.1091
69356POPC   C2B24252  24.510   2.132   7.614 -0.1452 -0.0378  0.3176
69356POPC   C3B24253  24.179   1.853   7.809  0.0710 -0.0263  0.3916
69356POPC   C4B24254  23.934   1.847   8.164 -0.1027 -0.1380 -0.0512
69357POPC   NC324255  15.553   5.500   4.931 -0.1377  0.4040  0.2338
69357POPC   PO424256  15.744   5.298   5.212  0.0014 -0.2180 -0.1946
69357POPC   GL124257  16.048   5.369   5.541  0.0028  0.0290  0.0743
69357POPC   GL224258  16.339   5.474   5.565 -0.0901 -0.2425  0.1684
69357POPC   C1A24259  15.988   5.401   5.971 -0.1294 -0.0157  0.0165
69357POPC   D2A24260  16.008   5.104   6.386 -0.1572  0.2922  0.5117
69357POPC   C3A24261  16.005   5.124   6.862 -0.0128  0.0947  0.2171
69357POPC   C4A24262  15.956   5.035   7.303 -0.0212  0.3058  0.1084
69357POPC   C1B24263  16.583   5.573   5.903 -0.0943 -0.1541  0.3595
69357POPC   C2B24264  16.266   5.826   6.102  0.1902  0.1635  0.0027
69357POPC   C3B24265  16.252   5.960   6.519 -0.1728 -0.0141  0.1446
69357POPC   C4B24266  16.348   5.895   6.964  0.1852  0.2706  0.0497
69358POPC   NC324267  26.263   5.082   8.779  0.1706  0.3028  0.3269
69358POPC   PO424268  26.635   5.101   8.690 -0.1038 -0.0689  0.2451
69358POPC   GL124269  26.846   4.822   8.759  0.1644  0.2122 -0.0263
69358POPC   GL224270  27.091   4.885   8.626 -0.1775  0.0994  0.3243
69358POPC   C1A24271  27.117   4.725   9.127 -0.3185  0.0917 -0.1347
69358POPC   D2A24272  27.362   4.427   9.455 -0.0075  0.1623 -0.2610
69358POPC   C3A24273  27.586   3.987   9.480  0.2101  0.0567 -0.1844
69358POPC   C4A24274  28.024   3.866   9.659 -0.0876  0.0094 -0.3317
69358POPC   C1B24275  27.164   4.399   8.747 -0.1873  0.1691  0.1698
69358POPC   C2B24276  27.061   4.023   9.027  0.0435  0.1701 -0.2400
69358POPC   C3B24277  26.689   3.948   9.342 -0.5262 -0.0432  0.3192
69358POPC   C4B24278  26.340   3.756   9.576 -0.0256 -0.0706  0.0019
69359POPC   NC324279  24.436   7.288   7.702  0.2809 -0.2449 -0.3208
69359POPC   PO424280  24.669   7.126   7.974  0.2837 -0.1762  0.0291
69359POPC   GL124281  24.397   7.059   8.275 -0.0187  0.0626 -0.1404
69359POPC   GL224282  24.401   7.328   8.320 -0.1860  0.0022  0.1451
69359POPC   C1A24283  24.060   7.037   8.566 -0.0047 -0.1449  0.2998
69359POPC   D2A24284  23.746   7.012   8.939  0.2650  0.2083 -0.0743
69359POPC   C3A24285  23.459   6.996   9.316  0.0143 -0.1374 -0.2002
69359POPC   C4A24286  23.514   6.961   9.771 -0.2132 -0.0704  0.0490
69359POPC   C1B24287  23.955   7.520   8.423  0.0551  0.1440  0.0704
69359POPC   C2B24288  23.548   7.522   8.669  0.1376  0.0345  0.3606
69359POPC   C3B24289  23.218   7.818   8.713 -0.4677 -0.0067 -0.1825
69359POPC   C4B24290  23.017   8.191   8.942  0.0504  0.0070 -0.0006
69360POPC   NC324291  31.331  14.643   3.995 -0.0244  0.0525 -0.1035
69360POPC   PO424292  31.048  14.758   4.220 -0.2627 -0.0166  0.0729
69360POPC   GL124293  31.327  14.432   4.377  0.1002 -0.1224 -0.0106
69360POPC   GL224294  31.380  14.551   4.620 -0.1225 -0.0967 -0.1281
69360POPC   C1A24295  31.634  14.166   4.566  0.1767  0.1699 -0.0622
69360POPC   D2A24296  31.889  14.096   4.938 -0.4067  0.0249 -0.0856
69360POPC   C3A24297  32.095  13.975   5.315  0.1176 -0.1001  0.0189
69360POPC   C4A24298  32.502  13.986   5.570 -0.0799 -0.1974  0.1915
69360POPC   C1B24299  31.478  14.310   5.028 -0.3448 -0.1798 -0.0940
69360POPC   C2B24300  31.746  14.355   5.433 -0.0255 -0.4361 -0.1370
69360POPC   C3B24301  31.961  14.149   5.742  0.1298 -0.3067  0.0535
69360POPC   C4B24302  32.134  13.789   5.874  0.1527 -0.1190  0.4240
69361POPC   NC324303  25.127  11.306   5.358  0.4190 -0.1396 -0.2205
69361POPC   PO424304  24.869  11.593   5.267 -0.0307  0.2447  0.0561
69361POPC   GL124305  24.724  11.667   5.560  0.1656  0.0239 -0.0551
69361POPC   GL224306  24.807  11.949   5.731 -0.1676  0.1013  0.0479
69361POPC   C1A24307  24.312  11.781   5.819 -0.2068  0.0315 -0.0021
69361POPC   D2A24308  24.216  12.096   6.140  0.3069  0.0613 -0.3421
69361POPC   C3A24309  23.984  12.008   6.557 -0.2440 -0.0074  0.0669
69361POPC   C4A24310  23.735  11.709   6.740  0.1381 -0.0693 -0.1531
69361POPC   C1B24311  24.686  11.745   6.145 -0.3061 -0.0887  0.2804
69361POPC   C2B24312  24.609  11.751   6.602 -0.2128  0.1153 -0.1183
69361POPC   C3B24313  24.431  11.954   6.959  0.0157  0.1214  0.0942
69361POPC   C4B24314  23.989  12.077   7.030 -0.1204  0.1567 -0.1315
69362POPC   NC324315  16.581   9.050   4.848 -0.1083  0.2580  0.2211
69362POPC   PO424316  16.279   9.251   4.994  0.5875 -0.1999  0.1072
69362POPC   GL124317  16.345   9.551   5.234 -0.1039  0.0140  0.0768
69362POPC   GL224318  16.628   9.407   5.353  0.0963 -0.1141 -0.2711
69362POPC   C1A24319  16.213   9.443   5.677  0.0242 -0.2159  0.2118
69362POPC   D2A24320  16.027   9.733   6.000  0.3271 -0.0954 -0.2283
69362POPC   C3A24321  16.054   9.893   6.412  0.1941 -0.1409  0.1442
69362POPC   C4A24322  16.221  10.147   6.760 -0.2055  0.1165  0.1523
69362POPC   C1B24323  16.726   9.348   5.784 -0.1844  0.1239  0.0202
69362POPC   C2B24324  16.480   9.214   6.112  0.1954  0.0173  0.1113
69362POPC   C3B24325  16.294   9.379   6.492 -0.1862  0.1304  0.2442
69362POPC   C4B24326  16.335   9.603   6.874 -0.0687 -0.2000  0.1894
69363POPC   NC324327  22.433   6.427   6.111 -0.1247  0.5323 -0.1535
69363POPC   PO424328  22.230   6.773   5.978 -0.1945  0.0610  0.1644
69363POPC   GL124329  22.016   6.919   6.351 -0.4018  0.0652  0.4074
69363POPC   GL224330  21.710   7.104   6.320 -0.3539  0.0784  0.2591
69363POPC   C1A24331  22.116   6.983   6.837 -0.1291  0.2640 -0.2828
69363POPC   D2A24332  21.954   7.040   7.221 -0.1486  0.3102 -0.1472
69363POPC   C3A24333  21.746   6.958   7.684 -0.1459  0.0610 -0.3524
69363POPC   C4A24334  21.397   7.123   8.014  0.1961  0.2232 -0.0768
69363POPC   C1B24335  21.448   7.439   6.498 -0.0010  0.1799  0.2039
69363POPC   C2B24336  21.417   7.854   6.688 -0.4115 -0.3575 -0.2109
69363POPC   C3B24337  21.079   8.163   6.867 -0.1065  0.0912 -0.1972
69363POPC   C4B24338  21.116   8.368   7.301  0.1443  0.1392  0.0597
69364POPC   NC324339  25.662   6.178  11.979  0.0989 -0.2299  0.0005
69364POPC   PO424340  25.391   5.870  11.960 -0.3193  0.1110  0.1429
69364POPC   GL124341  25.192   6.095  12.061 -0.0790 -0.0240  0.0834
69364POPC   GL224342  24.943   5.897  12.206  0.3676 -0.1519  0.1363
69364POPC   C1A24343  24.844   6.419  12.121 -0.2714  0.2144  0.1046
69364POPC   D2A24344  24.463   6.546  12.243  0.1950 -0.1005 -0.0129
69364POPC   C3A24345  24.345   6.835  11.980 -0.1739  0.0628 -0.0226
69364POPC   C4A24346  24.418   7.124  11.649 -0.0273  0.4356 -0.0439
69364POPC   C1B24347  24.686   6.085  12.550 -0.3601 -0.2162 -0.1291
69364POPC   C2B24348  24.491   6.433  12.751  0.1449  0.0041 -0.3294
69364POPC   C3B24349  24.139   6.670  12.697 -0.0296  0.2161 -0.0183
69364POPC   C4B24350  23.890   6.704  12.296 -0.1070  0.0635  0.4000
69365POPC   NC324351  31.837  10.410   4.618 -0.1843  0.0919  0.0228
69365POPC   PO424352  31.744  10.093   4.872 -0.0580  0.2399  0.2894
69365POPC   GL124353  31.997  10.018   5.134  0.0191  0.2215 -0.0945
69365POPC   GL224354  31.993   9.744   5.177  0.0521  0.1238  0.0330
69365POPC   C1A24355  32.145  10.290   5.462  0.1943 -0.2453  0.1863
69365POPC   D2A24356  32.555  10.481   5.477  0.0050 -0.2390 -0.3508
69365POPC   C3A24357  32.485  10.629   5.920  0.1072  0.0083 -0.2540
69365POPC   C4A24358  32.476  10.835   6.316  0.1889  0.3275 -0.1251
69365POPC   C1B24359  32.183   9.691   5.580  0.1520 -0.0231 -0.6015
69365POPC   C2B24360  32.039   9.699   6.039  0.3536  0.1568 -0.0121
69365POPC   C3B24361  31.976   9.492   6.424 -0.1977  0.1161 -0.1792
69365POPC   C4B24362  31.918   9.309   6.838  0.0648  0.0885 -0.0981
69366POPC   NC324363  22.462   0.658   4.372  0.2221  0.0688 -0.0036
69366POPC   PO424364  22.233   0.948   4.523 -0.1083  0.1080  0.1122
69366POPC   GL124365  22.153   1.063   4.890 -0.3595 -0.0922  0.1742
69366POPC   GL224366  21.951   0.861   4.946 -0.0299  0.1208  0.0590
69366POPC   C1A24367  22.445   1.109   5.236  0.0261  0.3537  0.2177
69366POPC   D2A24368  22.579   1.328   5.581  0.1722 -0.1417 -0.0920
69366POPC   C3A24369  22.591   1.201   6.035 -0.1460 -0.0330 -0.0846
69366POPC   C4A24370  22.451   0.929   6.384 -0.2622 -0.3020  0.4275
69366POPC   C1B24371  22.022   0.891   5.443 -0.2332  0.2028  0.1022
69366POPC   C2B24372  22.275   0.841   5.817 -0.1406 -0.2211  0.1373
69366POPC   C3B24373  22.281   0.525   6.128 -0.3059 -0.2149  0.0864
69366POPC   C4B24374  22.489   0.101   6.241  0.1442  0.3628  0.3798
69367POPC   NC324375  26.170   4.971   7.917  0.2142  0.2183 -0.2382
69367POPC   PO424376  26.235   4.987   8.291 -0.3167  0.2295 -0.4040
69367POPC   GL124377  26.422   4.710   8.480  0.2985 -0.1051  0.0264
69367POPC   GL224378  26.436   4.604   8.776 -0.0953  0.0317 -0.0604
69367POPC   C1A24379  26.834   4.469   8.368  0.2325  0.0014  0.0669
69367POPC   D2A24380  27.237   4.432   8.185 -0.1953 -0.0636  0.0638
69367POPC   C3A24381  27.602   4.251   8.447  0.0406  0.4267  0.0098
69367POPC   C4A24382  27.946   4.117   8.753 -0.0192  0.0595 -0.0228
69367POPC   C1B24383  26.675   4.231   8.869  0.1279 -0.0427  0.1118
69367POPC   C2B24384  26.716   3.846   8.708 -0.4399  0.3734  0.0878
69367POPC   C3B24385  26.944   3.484   8.510 -0.0609 -0.1593 -0.1536
69367POPC   C4B24386  27.348   3.344   8.412  0.1452  0.1096  0.2929
69368POPC   NC324387  20.564   2.439   5.143  0.2306 -0.1723 -0.1747
69368POPC   PO424388  20.939   2.316   5.287  0.3047  0.2107  0.1708
69368POPC   GL124389  21.208   2.167   5.580 -0.2959  0.2104  0.1499
69368POPC   GL224390  21.130   2.359   5.731  0.2320 -0.2678  0.2634
69368POPC   C1A24391  21.039   1.882   5.933 -0.1962  0.0415 -0.0686
69368POPC   D2A24392  21.066   1.628   6.275 -0.0098  0.1149  0.1832
69368POPC   C3A24393  20.892   1.421   6.700 -0.2386  0.0936 -0.3198
69368POPC   C4A24394  20.921   1.285   7.103 -0.2970  0.0766  0.2219
69368POPC   C1B24395  21.313   2.393   6.162  0.3758 -0.1436  0.0147
69368POPC   C2B24396  21.395   2.368   6.635  0.0000  0.4089  0.2608
69368POPC   C3B24397  21.156   2.320   7.009  0.2061 -0.1574 -0.3709
69368POPC   C4B24398  20.817   2.228   7.284 -0.2153 -0.2945  0.0921
69369POPC   NC324399  23.674   3.761   6.532 -0.0796 -0.4647 -0.0573
69369POPC   PO424400  23.620   4.137   6.663  0.0698  0.0207 -0.2194
69369POPC   GL124401  23.382   3.988   6.873  0.0450 -0.5114  0.0814
69369POPC   GL224402  23.294   4.151   7.030 -0.1944 -0.1115 -0.2486
69369POPC   C1A24403  23.330   3.739   7.286  0.0596  0.0375  0.0014
69369POPC   D2A24404  23.458   3.759   7.746  0.0205  0.0215 -0.1064
69369POPC   C3A24405  23.216   3.719   8.065 -0.0070  0.0375  0.2145
69369POPC   C4A24406  23.277   3.624   8.497  0.1334  0.0620 -0.1006
69369POPC   C1B24407  22.918   3.952   7.136  0.0830 -0.1789  0.1509
69369POPC   C2B24408  22.531   3.981   7.402  0.1963 -0.2222 -0.2319
69369POPC   C3B24409  22.104   3.781   7.578  0.0114 -0.1741  0.0573
69369POPC   C4B24410  21.715   3.830   7.890  0.2737 -0.0989  0.1095
69370POPC   NC324411  25.134  12.077   5.119 -0.2972 -0.2480  0.2755
69370POPC   PO424412  25.226  12.427   5.203  0.1222 -0.3373  0.1268
69370POPC   GL124413  25.178  12.278   5.540  0.1175 -0.0176 -0.2047
69370POPC   GL224414  24.880  12.394   5.561 -0.1555  0.0181 -0.1464
69370POPC   C1A24415  25.209  12.062   5.986 -0.2248 -0.0888  0.3423
69370POPC   D2A24416  25.031  12.278   6.379  0.2484  0.2925  0.1499
69370POPC   C3A24417  24.614  12.313   6.628  0.2013 -0.0329 -0.0255
69370POPC   C4A24418  24.161  12.478   6.647 -0.0308 -0.0572  0.0249
69370POPC   C1B24419  24.839  12.804   5.608  0.0620  0.0815  0.0574
69370POPC   C2B24420  24.839  13.139   5.861 -0.5681  0.2621  0.0043
69370POPC   C3B24421  24.952  13.222   6.305  0.2255 -0.1429 -0.2605
69370POPC   C4B24422  24.636  13.339   6.631  0.0976  0.0528  0.2244
69371POPC   NC324423  30.798  11.669   4.610  0.0295 -0.0319 -0.1123
69371POPC   PO424424  31.163  11.687   4.458  0.0671 -0.4284 -0.2836
69371POPC   GL124425  31.295  11.634   4.841  0.0525 -0.1279 -0.4538
69371POPC   GL224426  31.103  11.478   5.035 -0.1180 -0.0739 -0.1962
69371POPC   C1A24427  31.494  11.772   5.269 -0.3412 -0.1676 -0.4759
69371POPC   D2A24428  31.715  11.754   5.668  0.1724  0.1206 -0.0534
69371POPC   C3A24429  31.764  11.523   6.121 -0.2057  0.0789  0.1872
69371POPC   C4A24430  31.859  11.595   6.540 -0.0198  0.2100  0.2267
69371POPC   C1B24431  31.038  11.549   5.483 -0.0130 -0.0817  0.2742
69371POPC   C2B24432  31.183  11.520   5.898 -0.0281 -0.0321 -0.2469
69371POPC   C3B24433  30.989  11.704   6.280  0.1311  0.2595  0.5812
69371POPC   C4B24434  30.943  11.938   6.608 -0.0296  0.2982  0.3371
69372POPC   NC324435  28.642  15.049   4.229 -0.0698 -0.2844 -0.2293
69372POPC   PO424436  28.915  14.837   4.147 -0.1479  0.2170  0.0028
69372POPC   GL124437  29.009  14.962   4.559 -0.0578 -0.4281 -0.4057
69372POPC   GL224438  29.061  14.679   4.723 -0.0188 -0.0308  0.1350
69372POPC   C1A24439  29.291  15.052   4.975  0.3568 -0.1907  0.2473
69372POPC   D2A24440  29.338  15.137   5.449  0.0546  0.1377  0.2074
69372POPC   C3A24441  29.351  15.009   5.883 -0.1361  0.0302 -0.1749
69372POPC   C4A24442  29.645  15.221   6.224  0.1961  0.4544 -0.1945
69372POPC   C1B24443  28.838  14.825   5.169  0.1613 -0.1489 -0.2359
69372POPC   C2B24444  28.802  14.969   5.606 -0.3271 -0.2394  0.2569
69372POPC   C3B24445  28.781  15.031   6.008  0.2448  0.1160  0.1165
69372POPC   C4B24446  29.142  14.893   6.308  0.0944  0.0437  0.1559
69373POPC   NC324447  19.988   4.227   5.155  0.1962  0.1324  0.2899
69373POPC   PO424448  20.251   4.257   5.335 -0.1340 -0.0457 -0.2856
69373POPC   GL124449  19.975   4.314   5.604 -0.0130 -0.1517  0.0551
69373POPC   GL224450  20.109   4.566   5.777  0.0338 -0.1040  0.2138
69373POPC   C1A24451  19.763   4.186   5.963  0.0785  0.0471 -0.2335
69373POPC   D2A24452  19.659   4.202   6.405  0.0506  0.0605 -0.2868
69373POPC   C3A24453  19.304   4.314   6.629 -0.3339 -0.1616 -0.2288
69373POPC   C4A24454  19.251   4.549   7.051  0.1925 -0.3103  0.0774
69373POPC   C1B24455  19.846   4.602   6.150 -0.2484 -0.2759  0.1347
69373POPC   C2B24456  19.547   4.815   6.463 -0.2779  0.1719 -0.3160
69373POPC   C3B24457  19.481   5.076   6.868  0.2341 -0.0223 -0.2688
69373POPC   C4B24458  19.127   5.043   7.189  0.0721 -0.0486  0.0168
69374POPC   NC324459  30.579   3.546   4.912  0.1499  0.0819  0.0846
69374POPC   PO424460  30.626   3.218   4.706 -0.2560  0.0826 -0.3302
69374POPC   GL124461  30.635   3.182   5.158 -0.0796  0.3915 -0.2583
69374POPC   GL224462  30.374   3.066   5.207 -0.2560 -0.3821  0.1277
69374POPC   C1A24463  30.799   3.340   5.574 -0.2367 -0.0724  0.0265
69374POPC   D2A24464  30.874   3.575   5.967  0.0700  0.1771  0.0060
69374POPC   C3A24465  30.834   3.477   6.390  0.0238  0.1174 -0.2734
69374POPC   C4A24466  30.713   3.214   6.734  0.1865 -0.0663 -0.0342
69374POPC   C1B24467  30.686   2.845   5.481 -0.0343 -0.0676  0.1682
69374POPC   C2B24468  30.779   2.594   5.885 -0.2225  0.3089  0.0759
69374POPC   C3B24469  30.958   2.424   6.250  0.0670 -0.1162 -0.3812
69374POPC   C4B24470  31.163   2.352   6.634 -0.1413  0.2204 -0.2518
69375POPC   NC324471  26.600   6.885  10.672  0.2141 -0.4108  0.0660
69375POPC   PO424472  26.705   6.585  10.438 -0.0830  0.1670  0.4575
69375POPC   GL124473  26.962   6.850  10.427 -0.5479 -0.0692  0.2350
69375POPC   GL224474  26.856   7.006  10.235 -0.0738  0.2605  0.0026
69375POPC   C1A24475  27.073   7.163  10.772  0.2181  0.0261  0.1443
69375POPC   D2A24476  27.313   7.395  11.019 -0.0045 -0.3056 -0.2575
69375POPC   C3A24477  27.412   7.834  10.936 -0.0625 -0.0606 -0.3250
69375POPC   C4A24478  27.525   8.259  11.016 -0.4018  0.2116 -0.0336
69375POPC   C1B24479  26.847   7.447  10.362  0.0106  0.0793  0.1092
69375POPC   C2B24480  26.951   7.721  10.690 -0.1904  0.1249 -0.1285
69375POPC   C3B24481  26.783   8.107  10.979 -0.0346 -0.3564  0.2064
69375POPC   C4B24482  26.588   8.426  11.243 -0.3503  0.2757 -0.0214
69376POPC   NC324483  29.548   8.643   6.221 -0.2435  0.0613  0.0215
69376POPC   PO424484  29.510   9.030   6.213  0.2058  0.1042  0.0891
69376POPC   GL124485  29.788   8.993   6.364  0.2900  0.4486  0.2879
69376POPC   GL224486  29.973   9.163   6.308  0.0038 -0.0689 -0.1810
69376POPC   C1A24487  29.854   9.209   6.811 -0.1852  0.0946  0.1319
69376POPC   D2A24488  29.919   9.376   7.229 -0.0298 -0.0339 -0.1197
69376POPC   C3A24489  29.769   9.566   7.558  0.2175  0.0461 -0.1809
69376POPC   C4A24490  30.089   9.666   7.954  0.2592  0.3907  0.0429
69376POPC   C1B24491  30.098   9.541   6.535  0.0473  0.0173  0.0147
69376POPC   C2B24492  30.294   9.512   6.963  0.0027  0.1948  0.3191
69376POPC   C3B24493  30.328   9.369   7.436  0.1482  0.0757 -0.0895
69376POPC   C4B24494  30.187   9.197   7.824 -0.3721  0.1356  0.0643
69377POPC   NC324495  30.299   5.946   6.883 -0.2069  0.2973 -0.0487
69377POPC   PO424496  30.239   5.796   6.545 -0.0116  0.0317  0.0123
69377POPC   GL124497  30.193   5.514   6.771  0.1057  0.1911  0.3305
69377POPC   GL224498  30.354   5.275   6.764  0.0510  0.0543 -0.0355
69377POPC   C1A24499  29.977   5.259   7.078 -0.0160 -0.0759 -0.0206
69377POPC   D2A24500  29.918   5.157   7.530  0.0723  0.0493 -0.0468
69377POPC   C3A24501  30.074   4.885   7.851  0.3052  0.2617  0.4481
69377POPC   C4A24502  30.255   4.596   8.120  0.1214 -0.0494  0.1278
69377POPC   C1B24503  30.485   5.269   7.176  0.0435  0.2102 -0.1962
69377POPC   C2B24504  30.843   5.397   7.465 -0.1133 -0.1499 -0.1062
69377POPC   C3B24505  30.866   5.489   7.856 -0.2837 -0.0881  0.3087
69377POPC   C4B24506  30.914   5.734   8.210 -0.1062  0.0672  0.0996
69378POPC   NC324507  25.624   7.674   7.744 -0.2511 -0.0780  0.0466
69378POPC   PO424508  25.770   8.023   7.591  0.0328 -0.2368 -0.1468
69378POPC   GL124509  25.691   8.150   8.013 -0.1968  0.0830 -0.0741
69378POPC   GL224510  25.632   7.957   8.253 -0.2188  0.0874  0.1154
69378POPC   C1A24511  25.332   8.391   8.223  0.0956 -0.1365  0.1015
69378POPC   D2A24512  25.073   8.617   8.575 -0.3731  0.0128  0.0455
69378POPC   C3A24513  24.891   8.595   8.995  0.1940  0.1254  0.0079
69378POPC   C4A24514  24.729   8.733   9.444 -0.0082  0.2759  0.1412
69378POPC   C1B24515  25.285   8.077   8.589  0.1187  0.0920  0.0952
69378POPC   C2B24516  24.903   8.193   8.683  0.0950  0.1124 -0.0554
69378POPC   C3B24517  24.564   8.028   8.927 -0.0935 -0.1394  0.0216
69378POPC   C4B24518  24.140   8.104   9.099  0.0491 -0.1532  0.1991
69379POPC   NC324519  24.496   8.564   6.637 -0.0928 -0.2310 -0.0881
69379POPC   PO424520  24.600   8.157   6.671 -0.0726 -0.4705 -0.1789
69379POPC   GL124521  24.564   8.320   7.144  0.2428  0.0949 -0.0974
69379POPC   GL224522  24.728   8.418   7.348 -0.1760  0.1281  0.1525
69379POPC   C1A24523  24.221   8.449   7.430  0.1441  0.1909  0.0588
69379POPC   D2A24524  23.891   8.726   7.606 -0.0158 -0.1169  0.0617
69379POPC   C3A24525  23.955   8.848   8.035  0.2699 -0.2797 -0.0299
69379POPC   C4A24526  24.142   9.092   8.355  0.3025  0.2427  0.0444
69379POPC   C1B24527  24.587   8.816   7.582  0.1699 -0.1090 -0.0286
69379POPC   C2B24528  24.858   9.185   7.703  0.0331 -0.4304  0.1288
69379POPC   C3B24529  24.970   9.575   7.941  0.0947  0.3001  0.4296
69379POPC   C4B24530  25.029   9.524   8.413 -0.0086 -0.2366  0.2527
69380POPC   NC324531  27.261   4.314   6.459  0.1276  0.1031  0.0521
69380POPC   PO424532  27.136   4.588   6.754  0.1358 -0.0066  0.0444
69380POPC   GL124533  27.331   4.291   6.919  0.0155  0.0527  0.0952
69380POPC   GL224534  27.377   3.998   6.853  0.0348 -0.1023  0.2327
69380POPC   C1A24535  27.361   4.149   7.350 -0.3931 -0.0056  0.2968
69380POPC   D2A24536  27.494   4.149   7.762  0.0627  0.1347 -0.0194
69380POPC   C3A24537  27.452   3.868   8.163  0.1626 -0.3613 -0.2403
69380POPC   C4A24538  27.731   3.674   8.500 -0.2047 -0.0586 -0.0196
69380POPC   C1B24539  27.188   3.767   7.162  0.0868 -0.0666  0.0306
69380POPC   C2B24540  27.217   3.339   7.400 -0.0494  0.0140 -0.0071
69380POPC   C3B24541  27.337   3.152   7.759 -0.0677  0.0030 -0.1380
69380POPC   C4B24542  27.655   3.065   8.106  0.1656 -0.1063  0.3388
69381POPC   NC324543  20.507   3.372   5.117 -0.3057  0.1303  0.0072
69381POPC   PO424544  20.805   3.226   5.303  0.1748  0.1773 -0.1270
69381POPC   GL124545  20.694   3.030   5.671  0.0136  0.3010 -0.0593
69381POPC   GL224546  20.703   2.695   5.667  0.1453  0.2837  0.0003
69381POPC   C1A24547  20.319   3.019   5.889  0.3338  0.0018  0.0684
69381POPC   D2A24548  19.900   3.034   6.052 -0.0557 -0.0544  0.0128
69381POPC   C3A24549  19.811   2.927   6.448 -0.2330 -0.2943 -0.1744
69381POPC   C4A24550  19.558   2.812   6.876  0.1087 -0.0310  0.1261
69381POPC   C1B24551  20.669   2.465   6.032 -0.0133 -0.1486  0.0799
69381POPC   C2B24552  20.894   2.184   6.357  0.0436 -0.1663  0.0720
69381POPC   C3B24553  20.924   1.959   6.733  0.0591  0.2807 -0.1744
69381POPC   C4B24554  21.160   1.721   7.085  0.0743  0.2918  0.0595
69382POPC   NC324555  27.655  16.335   4.794 -0.3450 -0.0833  0.2575
69382POPC   PO424556  27.753  16.704   4.656 -0.1754 -0.0313 -0.1275
69382POPC   GL124557  28.018  16.644   4.977  0.2212  0.0599 -0.0964
69382POPC   GL224558  27.832  16.599   5.179  0.0840 -0.0167 -0.0606
69382POPC   C1A24559  28.394  16.444   5.239  0.2652  0.0961 -0.0100
69382POPC   D2A24560  28.577  16.756   5.547  0.3438  0.0421 -0.2685
69382POPC   C3A24561  28.642  16.717   5.993  0.1474  0.0431  0.0803
69382POPC   C4A24562  28.552  16.371   6.332  0.3547  0.3145 -0.2080
69382POPC   C1B24563  27.642  16.568   5.593 -0.0140 -0.0542 -0.1161
69382POPC   C2B24564  27.765  16.471   6.047  0.0636  0.1161 -0.1733
69382POPC   C3B24565  27.846  16.568   6.562 -0.0861 -0.0448  0.0169
69382POPC   C4B24566  27.715  16.906   6.758 -0.0217 -0.1512  0.0061
69383POPC   NC324567   1.034   6.720   5.295 -0.1145 -0.0203 -0.0217
69383POPC   PO424568   0.726   6.980   5.148  0.2203  0.3116  0.3336
69383POPC   GL124569   0.836   7.091   5.551 -0.1673 -0.0592 -0.1688
69383POPC   GL224570   1.141   7.182   5.577  0.1828  0.1246 -0.1194
69383POPC   C1A24571   0.586   6.962   5.911 -0.2764 -0.2430  0.0571
69383POPC   D2A24572   0.566   6.735   6.377 -0.0613  0.1541  0.2465
69383POPC   C3A24573   0.983   6.930   6.600  0.5216  0.0870  0.2986
69383POPC   C4A24574   1.195   7.080   6.964  0.3057  0.1160 -0.2396
69383POPC   C1B24575   1.086   6.805   5.857  0.0710 -0.0439  0.0848
69383POPC   C2B24576   0.998   6.470   6.104  0.0954 -0.2071  0.1526
69383POPC   C3B24577   1.036   6.430   6.550  0.3705  0.0594 -0.2565
69383POPC   C4B24578   0.840   6.617   6.975  0.2926 -0.3719 -0.2826
69384POPC   NC324579  21.965  12.193   4.632  0.2722  0.1777 -0.1125
69384POPC   PO424580  21.736  12.384   4.372  0.2761 -0.0918 -0.1438
69384POPC   GL124581  21.723  12.613   4.638  0.0333  0.1354  0.3766
69384POPC   GL224582  21.960  12.774   4.704  0.0236  0.0037  0.0013
69384POPC   C1A24583  21.782  12.479   5.061  0.2465  0.0805 -0.4281
69384POPC   D2A24584  22.021  12.507   5.456 -0.0822 -0.1658  0.0474
69384POPC   C3A24585  22.116  12.155   5.695 -0.2605 -0.1880  0.1534
69384POPC   C4A24586  22.193  11.694   5.789 -0.4134 -0.2869  0.2083
69384POPC   C1B24587  21.887  12.937   5.151  0.1307  0.1662 -0.2358
69384POPC   C2B24588  21.688  13.112   5.481 -0.0761  0.2732  0.0212
69384POPC   C3B24589  21.660  13.127   5.930 -0.1826  0.0373  0.3724
69384POPC   C4B24590  21.878  13.232   6.295 -0.0264 -0.0053  0.1986
69385POPC   NC324591  21.232  11.272   4.086 -0.1586 -0.1247 -0.0967
69385POPC   PO424592  21.341  11.454   4.410 -0.1729 -0.1961 -0.1838
69385POPC   GL124593  21.089  11.349   4.792 -0.1457  0.0635  0.0621
69385POPC   GL224594  21.382  11.386   4.940  0.0358 -0.2642  0.1084
69385POPC   C1A24595  20.897  11.665   5.097  0.2632  0.1793 -0.0109
69385POPC   D2A24596  20.877  11.929   5.498  0.2952 -0.1866 -0.1658
69385POPC   C3A24597  20.642  11.779   5.832 -0.2344  0.2896  0.1854
69385POPC   C4A24598  20.359  11.452   5.966 -0.0746  0.1627  0.0833
69385POPC   C1B24599  21.414  11.737   5.248 -0.3505  0.1529  0.1691
69385POPC   C2B24600  21.267  11.686   5.707 -0.2188  0.3275 -0.1040
69385POPC   C3B24601  21.075  11.971   5.981  0.2312 -0.1562  0.0519
69385POPC   C4B24602  20.772  12.265   6.181 -0.1705 -0.0737  0.0994
69386POPC   NC324603  24.199   2.846   5.935 -0.0212  0.1573 -0.1528
69386POPC   PO424604  24.156   3.104   6.241  0.2785  0.0631  0.2095
69386POPC   GL124605  23.920   2.817   6.289 -0.0819 -0.1329  0.0460
69386POPC   GL224606  23.958   2.526   6.393 -0.1688  0.0903 -0.1731
69386POPC   C1A24607  23.637   2.779   6.686 -0.0766  0.3192 -0.0497
69386POPC   D2A24608  23.613   2.726   7.153  0.1119 -0.1293  0.1869
69386POPC   C3A24609  23.739   2.731   7.578 -0.1017  0.1174  0.0736
69386POPC   C4A24610  24.040   2.684   7.885 -0.0767  0.1609 -0.3329
69386POPC   C1B24611  24.017   2.051   6.524  0.1344 -0.0740  0.0415
69386POPC   C2B24612  23.949   1.676   6.724 -0.1819 -0.3294  0.0002
69386POPC   C3B24613  23.749   1.272   6.913 -0.0883 -0.2704 -0.0708
69386POPC   C4B24614  23.520   0.889   7.071 -0.1119  0.0392  0.3593
69387POPC   NC324615  18.488   9.555   4.762  0.4646 -0.0308 -0.0124
69387POPC   PO424616  18.142   9.582   4.692  0.2789 -0.0643 -0.0657
69387POPC   GL124617  17.865   9.802   4.925  0.0228  0.5437  0.2460
69387POPC   GL224618  17.842   9.569   5.068 -0.1582  0.2915 -0.0375
69387POPC   C1A24619  17.777  10.131   5.262  0.1946 -0.2720  0.1543
69387POPC   D2A24620  17.734  10.389   5.686 -0.1672 -0.2227 -0.0540
69387POPC   C3A24621  17.906  10.158   6.070  0.4340  0.0680 -0.2247
69387POPC   C4A24622  18.018   9.727   6.257 -0.0235  0.2077  0.1506
69387POPC   C1B24623  17.930   9.711   5.493  0.1785  0.0369  0.2110
69387POPC   C2B24624  18.279   9.807   5.780  0.0036  0.4779 -0.2474
69387POPC   C3B24625  18.442  10.051   6.144 -0.0385 -0.1603 -0.3482
69387POPC   C4B24626  18.175  10.318   6.435  0.3502 -0.1247  0.0861
69388POPC   NC324627  32.298   7.455   5.003  0.2142  0.0768 -0.2381
69388POPC   PO424628  32.232   7.846   5.094  0.3368  0.3212 -0.1680
69388POPC   GL124629  32.405   7.651   5.446  0.0367 -0.0119 -0.3030
69388POPC   GL224630  32.139   7.593   5.542 -0.1557 -0.2268 -0.0227
69388POPC   C1A24631  32.639   7.624   5.887  0.1770  0.0298 -0.0084
69388POPC   D2A24632  32.768   7.456   6.303  0.1686 -0.0525  0.0379
69388POPC   C3A24633  32.972   7.371   6.704 -0.1070  0.0523  0.0322
69388POPC   C4A24634  33.003   7.124   7.082  0.2681 -0.0963 -0.2497
69388POPC   C1B24635  32.176   7.894   5.957 -0.2592 -0.0274  0.1280
69388POPC   C2B24636  32.220   8.291   6.156 -0.3527  0.3489 -0.1289
69388POPC   C3B24637  32.421   8.623   6.436  0.0423 -0.0874 -0.0348
69388POPC   C4B24638  32.735   8.872   6.670 -0.0559 -0.0886  0.1079
69389POPC   NC324639  27.073   7.246   9.286 -0.1557 -0.4695  0.1875
69389POPC   PO424640  26.833   7.581   9.261  0.0533  0.2800  0.2248
69389POPC   GL124641  26.785   7.748   9.638 -0.2591 -0.0963 -0.5530
69389POPC   GL224642  26.925   7.998   9.577  0.2973 -0.1880  0.0412
69389POPC   C1A24643  26.999   7.841  10.024 -0.0192  0.2415  0.1631
69389POPC   D2A24644  27.393   7.769  10.310  0.4202  0.0340 -0.0727
69389POPC   C3A24645  27.470   7.355  10.526  0.1890  0.0229  0.3905
69389POPC   C4A24646  27.537   6.983  10.760 -0.2228 -0.3227 -0.2794
69389POPC   C1B24647  27.092   8.257   9.830  0.0814 -0.3597  0.4620
69389POPC   C2B24648  26.954   8.625   9.997  0.2419 -0.0511  0.1137
69389POPC   C3B24649  26.670   8.962  10.182  0.2201 -0.1654 -0.0930
69389POPC   C4B24650  26.408   9.345  10.310  0.0697  0.0063  0.2595
69390POPC   NC324651  24.500   5.199   8.897 -0.3193  0.2872 -0.1037
69390POPC   PO424652  24.514   5.157   9.264 -0.2345  0.2019 -0.0173
69390POPC   GL124653  24.312   5.497   9.428  0.1379 -0.2083  0.0756
69390POPC   GL224654  24.426   5.804   9.459 -0.4685 -0.1348 -0.1770
69390POPC   C1A24655  24.053   5.616   9.788  0.1693  0.0454 -0.0049
69390POPC   D2A24656  24.069   5.443  10.180  0.0961  0.0001  0.1083
69390POPC   C3A24657  23.747   5.367  10.475  0.0034  0.2527  0.0435
69390POPC   C4A24658  23.366   5.411  10.762  0.0058  0.2366  0.1096
69390POPC   C1B24659  24.037   6.104   9.622  0.0604 -0.1966 -0.1220
69390POPC   C2B24660  23.698   6.388   9.572  0.1879  0.0351 -0.2305
69390POPC   C3B24661  23.271   6.531   9.529 -0.3112  0.0770 -0.3793
69390POPC   C4B24662  22.833   6.495   9.620  0.1963  0.0270 -0.2708
69391POPC   NC324663  26.168   4.348   6.854 -0.0818 -0.1460 -0.0477
69391POPC   PO424664  26.375   4.123   7.048  0.0909 -0.0012 -0.2439
69391POPC   GL124665  26.660   3.762   6.947  0.0809 -0.1143  0.1517
69391POPC   GL224666  26.629   3.676   7.217  0.1155 -0.1164  0.1343
69391POPC   C1A24667  26.891   3.358   6.923  0.2185  0.2796 -0.1787
69391POPC   D2A24668  26.989   2.951   7.130 -0.0220 -0.0731  0.3686
69391POPC   C3A24669  27.065   2.839   7.514  0.0177  0.3707 -0.0192
69391POPC   C4A24670  27.056   2.419   7.746 -0.1022  0.1628  0.0678
69391POPC   C1B24671  26.408   3.526   7.593 -0.1344 -0.1794  0.1123
69391POPC   C2B24672  26.063   3.268   7.735 -0.0094  0.3281  0.1044
69391POPC   C3B24673  26.135   2.882   8.036  0.3580 -0.1747 -0.1037
69391POPC   C4B24674  25.890   2.484   8.056 -0.0924 -0.0829 -0.2049
69392POPC   NC324675  19.705   8.971   5.011  0.0262 -0.1454  0.0105
69392POPC   PO424676  19.843   9.342   4.977 -0.2475  0.2087 -0.0271
69392POPC   GL124677  20.090   9.332   5.342  0.1599 -0.0243  0.0480
69392POPC   GL224678  20.240   9.587   5.348  0.0040 -0.0465  0.0856
69392POPC   C1A24679  20.163   9.210   5.762 -0.0362  0.0929 -0.0681
69392POPC   D2A24680  19.959   8.956   6.032 -0.0600  0.0289  0.1599
69392POPC   C3A24681  19.720   9.289   6.324 -0.1724  0.1026 -0.1347
69392POPC   C4A24682  19.821   9.541   6.737 -0.2403  0.0167 -0.0064
69392POPC   C1B24683  19.885   9.620   5.742  0.4391 -0.1474 -0.1754
69392POPC   C2B24684  19.810   9.799   6.233  0.2947 -0.2678 -0.1665
69392POPC   C3B24685  19.695  10.031   6.644  0.2092  0.0862 -0.2489
69392POPC   C4B24686  19.946  10.185   6.938  0.1393 -0.0571 -0.0583
69393POPC   NC324687  24.401  10.245   5.186  0.1514 -0.0390  0.1206
69393POPC   PO424688  24.079  10.057   5.237  0.1420  0.1217 -0.1520
69393POPC   GL124689  23.908  10.226   5.567  0.3695 -0.0121  0.1547
69393POPC   GL224690  23.757  10.473   5.566  0.1942 -0.1092 -0.1168
69393POPC   C1A24691  23.819  10.159   6.017  0.0434 -0.2616  0.1157
69393POPC   D2A24692  23.974   9.881   6.377 -0.4328 -0.0568 -0.0458
69393POPC   C3A24693  23.801   9.887   6.857  0.2856 -0.1719  0.0003
69393POPC   C4A24694  23.616   9.893   7.274 -0.1221 -0.1621 -0.0563
69393POPC   C1B24695  23.766  10.672   6.005 -0.0820  0.0087  0.2340
69393POPC   C2B24696  23.626  10.775   6.440  0.3523  0.1449  0.1492
69393POPC   C3B24697  23.448  10.892   6.880 -0.0705 -0.0587  0.0046
69393POPC   C4B24698  23.302  10.862   7.335  0.1137 -0.1866  0.1144
69394POPC   NC324699  27.637   6.330   8.473 -0.0043 -0.4029  0.0071
69394POPC   PO424700  27.967   6.563   8.540 -0.0560  0.3137  0.3890
69394POPC   GL124701  28.285   6.689   8.490 -0.0489 -0.0685  0.0538
69394POPC   GL224702  28.327   6.876   8.731 -0.2485 -0.0205  0.0901
69394POPC   C1A24703  28.681   6.468   8.415  0.0638  0.1260 -0.1733
69394POPC   D2A24704  29.019   6.321   8.678  0.0585  0.0031 -0.0922
69394POPC   C3A24705  29.172   6.327   9.081  0.1006  0.4067 -0.3205
69394POPC   C4A24706  29.508   6.211   9.406 -0.0542 -0.0104 -0.0935
69394POPC   C1B24707  28.808   6.763   8.810 -0.3115 -0.0605  0.1262
69394POPC   C2B24708  29.230   6.826   8.966  0.1264  0.0934  0.0520
69394POPC   C3B24709  29.336   6.727   9.452  0.3015  0.2565  0.3599
69394POPC   C4B24710  29.522   6.718   9.857 -0.1022 -0.0015  0.3914
69395POPC   NC324711  25.897  15.842   5.401 -0.0953  0.3480  0.1718
69395POPC   PO424712  26.245  15.728   5.289 -0.3456  0.0404 -0.1349
69395POPC   GL124713  26.452  15.925   5.564 -0.1418 -0.1502  0.0271
69395POPC   GL224714  26.235  15.995   5.743  0.1589 -0.0955  0.1125
69395POPC   C1A24715  26.740  15.744   5.905  0.0211  0.1603 -0.3664
69395POPC   D2A24716  27.113  15.406   6.006  0.2509 -0.1762 -0.2093
69395POPC   C3A24717  27.317  15.382   5.565  0.2161 -0.1019 -0.1484
69395POPC   C4A24718  27.566  15.105   5.270  0.0901 -0.0742  0.0169
69395POPC   C1B24719  26.205  15.559   5.913 -0.0081  0.1263 -0.0464
69395POPC   C2B24720  26.103  15.220   6.187 -0.2747  0.0403  0.1658
69395POPC   C3B24721  25.898  15.090   6.591 -0.2576  0.2953 -0.0819
69395POPC   C4B24722  25.594  15.309   6.919  0.2099  0.2597  0.2372
69396POPC   NC324723  23.032   2.212   5.687  0.1100  0.1404  0.0254
69396POPC   PO424724  23.379   2.048   5.707  0.1048 -0.4649 -0.1635
69396POPC   GL124725  23.422   1.887   6.112 -0.1579 -0.2303  0.0529
69396POPC   GL224726  23.583   1.709   6.129 -0.3513 -0.1879 -0.2060
69396POPC   C1A24727  23.491   2.003   6.589 -0.3377  0.3283  0.1592
69396POPC   D2A24728  23.554   1.747   6.984 -0.1930  0.0181  0.0101
69396POPC   C3A24729  23.257   1.686   7.358  0.2307  0.3284 -0.0014
69396POPC   C4A24730  22.923   1.837   7.649 -0.0432  0.2893  0.2184
69396POPC   C1B24731  23.453   1.491   6.558  0.0772  0.2329  0.1438
69396POPC   C2B24732  23.253   1.258   6.918  0.0498  0.0896  0.0480
69396POPC   C3B24733  23.114   1.080   7.348  0.1899 -0.3724 -0.0855
69396POPC   C4B24734  23.128   1.360   7.771  0.1348 -0.1238  0.1085
69397POPC   NC324735  29.284   4.429   5.842 -0.1220 -0.0172  0.1282
69397POPC   PO424736  29.324   4.084   5.681 -0.0590  0.2980 -0.1007
69397POPC   GL124737  29.127   3.932   6.007 -0.0282 -0.3227 -0.1036
69397POPC   GL224738  29.229   4.119   6.198  0.2411  0.0237 -0.0458
69397POPC   C1A24739  29.014   3.658   6.437 -0.2993 -0.1478 -0.0329
69397POPC   D2A24740  29.142   3.537   6.888 -0.3222  0.0118  0.1559
69397POPC   C3A24741  29.543   3.302   6.955 -0.3004  0.2277  0.0234
69397POPC   C4A24742  29.639   2.844   7.012  0.0175  0.0406  0.0546
69397POPC   C1B24743  29.310   3.986   6.590 -0.1066  0.1571  0.1021
69397POPC   C2B24744  29.602   3.808   6.925  0.1272  0.0312  0.3183
69397POPC   C3B24745  29.795   3.626   7.296 -0.1069  0.1027 -0.1628
69397POPC   C4B24746  29.709   3.552   7.719 -0.0989  0.1772 -0.2693
69398POPC   NC324747  17.394   0.831   4.340 -0.3625  0.2297 -0.0629
69398POPC   PO424748  17.028   0.744   4.363  0.1534 -0.1040 -0.3652
69398POPC   GL124749  16.979   0.842   4.724 -0.5335  0.1580 -0.2123
69398POPC   GL224750  17.270   0.711   4.807 -0.2770 -0.0952 -0.0655
69398POPC   C1A24751  16.946   1.012   5.122  0.2186 -0.3034 -0.0816
69398POPC   D2A24752  16.916   1.305   5.490  0.2452  0.1701 -0.3070
69398POPC   C3A24753  16.527   1.534   5.468  0.0381 -0.1415 -0.1284
69398POPC   C4A24754  16.051   1.528   5.529 -0.0923 -0.0078  0.2205
69398POPC   C1B24755  17.140   0.417   5.155 -0.0041 -0.2180  0.3728
69398POPC   C2B24756  17.032   0.231   5.570  0.1164  0.1190 -0.0247
69398POPC   C3B24757  17.047   0.144   6.041  0.1649 -0.0257 -0.0938
69398POPC   C4B24758  16.777   0.334   6.394  0.3193  0.0964 -0.4629
69399POPC   NC324759  24.564   5.189  10.160 -0.2433  0.0105  0.2292
69399POPC   PO424760  24.502   5.586  10.273 -0.2032 -0.0566 -0.0924
69399POPC   GL124761  24.199   5.703  10.595  0.3659  0.0472 -0.2655
69399POPC   GL224762  24.236   5.445  10.665 -0.0457  0.5220 -0.0031
69399POPC   C1A24763  24.007   6.075  10.721 -0.0907  0.2209 -0.2201
69399POPC   D2A24764  23.714   6.320  10.540  0.0267  0.2282  0.5285
69399POPC   C3A24765  23.260   6.474  10.537 -0.0627  0.1551  0.1646
69399POPC   C4A24766  22.814   6.409  10.539 -0.0821 -0.0981 -0.0627
69399POPC   C1B24767  24.087   5.032  10.420 -0.1190  0.1322 -0.0237
69399POPC   C2B24768  23.906   4.561  10.401  0.1817  0.0656  0.0710
69399POPC   C3B24769  23.971   4.257  10.729  0.0549 -0.3343  0.1850
69399POPC   C4B24770  24.124   3.866  10.965  0.1469 -0.1827 -0.1519
69400POPC   NC324771  27.627  11.507   5.345 -0.1284 -0.0817 -0.5069
69400POPC   PO424772  27.787  11.399   5.675  0.0820  0.1872 -0.1043
69400POPC   GL124773  27.688  11.777   5.717 -0.3384 -0.1300  0.2120
69400POPC   GL224774  27.479  11.706   5.921 -0.2403  0.1790  0.1840
69400POPC   C1A24775  27.672  12.132   6.053 -0.2659 -0.0405  0.1977
69400POPC   D2A24776  27.466  12.173   6.480 -0.0303  0.3457 -0.0508
69400POPC   C3A24777  27.868  12.349   6.607  0.4053  0.3906  0.3741
69400POPC   C4A24778  28.290  12.197   6.737 -0.3412  0.2790 -0.0167
69400POPC   C1B24779  27.569  11.656   6.344  0.2812 -0.3418  0.0634
69400POPC   C2B24780  27.756  11.535   6.770 -0.0511  0.1828  0.1906
69400POPC   C3B24781  27.875  11.567   7.143 -0.4023 -0.1406 -0.0244
69400POPC   C4B24782  27.954  11.833   7.599  0.0974  0.0862 -0.1247
69401POPC   NC324783  22.481   2.351   5.108 -0.2147  0.0472 -0.0043
69401POPC   PO424784  22.673   2.075   5.270 -0.1150  0.3051 -0.1724
69401POPC   GL124785  22.573   2.192   5.621 -0.2711  0.1712 -0.0453
69401POPC   GL224786  22.201   2.204   5.625 -0.2396  0.0422  0.2713
69401POPC   C1A24787  22.583   2.284   6.025 -0.0903  0.1932 -0.0973
69401POPC   D2A24788  22.345   2.221   6.387  0.1436  0.1644 -0.3066
69401POPC   C3A24789  22.624   2.041   6.754 -0.1907  0.0766 -0.1561
69401POPC   C4A24790  22.970   1.707   6.844  0.1575  0.1242  0.0293
69401POPC   C1B24791  22.089   2.010   5.988 -0.0310  0.0664  0.1325
69401POPC   C2B24792  21.918   1.796   6.385 -0.1217 -0.0086 -0.2262
69401POPC   C3B24793  21.926   1.400   6.653 -0.0507  0.2787  0.1112
69401POPC   C4B24794  21.912   1.010   6.811  0.3002  0.1215 -0.1198
69402POPC   NC324795  18.474   7.589   4.741  0.0961  0.2919  0.1185
69402POPC   PO424796  18.638   7.832   4.947 -0.0251  0.0689 -0.1325
69402POPC   GL124797  18.517   7.967   5.341 -0.2141 -0.3091 -0.3877
69402POPC   GL224798  18.777   8.123   5.392  0.2297  0.1433 -0.0530
69402POPC   C1A24799  18.700   7.845   5.767  0.0715 -0.1052 -0.0991
69402POPC   D2A24800  18.799   7.607   6.175  0.0368  0.0546 -0.1155
69402POPC   C3A24801  18.653   7.709   6.581 -0.1113 -0.0641 -0.0082
69402POPC   C4A24802  18.337   7.860   6.909  0.0295  0.1864  0.1301
69402POPC   C1B24803  18.464   8.301   5.665 -0.0520 -0.2235  0.1816
69402POPC   C2B24804  18.221   8.285   6.026  0.0014  0.3446 -0.2841
69402POPC   C3B24805  18.247   8.212   6.523  0.1580  0.0432 -0.0861
69402POPC   C4B24806  18.172   8.480   6.916 -0.1063  0.1557  0.1770
69403POPC   NC324807   0.024   5.886   5.300 -0.3120  0.1339 -0.3108
69403POPC   PO424808   0.267   6.085   5.069  0.1330  0.1105  0.1176
69403POPC   GL124809   0.339   6.144   5.506  0.1235  0.1099  0.1540
69403POPC   GL224810   0.327   6.437   5.488 -0.0539 -0.0155 -0.3866
69403POPC   C1A24811   0.009   6.072   5.852 -0.0264 -0.0822  0.0121
69403POPC   D2A24812  -0.391   6.166   6.019 -0.1330  0.1096 -0.0266
69403POPC   C3A24813  -0.460   5.988   6.396  0.2231 -0.1236  0.1454
69403POPC   C4A24814  -0.637   6.185   6.791 -0.1124  0.1401 -0.0297
69403POPC   C1B24815   0.520   6.351   5.928  0.0887 -0.2550  0.0136
69403POPC   C2B24816   0.618   6.183   6.380  0.0283 -0.0248  0.0657
69403POPC   C3B24817   0.798   6.106   6.808 -0.2516 -0.0561 -0.0088
69403POPC   C4B24818   1.066   6.170   7.148 -0.1593 -0.2128 -0.1008
69404POPC   NC324819  27.752  14.938   4.781 -0.1285  0.3712 -0.0401
69404POPC   PO424820  27.597  14.583   4.687 -0.1769  0.2948  0.2744
69404POPC   GL124821  27.459  14.686   5.027  0.4556 -0.0331 -0.3241
69404POPC   GL224822  27.156  14.705   5.024 -0.2479 -0.1095 -0.1336
69404POPC   C1A24823  27.473  14.621   5.472  0.0834 -0.1285 -0.1379
69404POPC   D2A24824  27.430  14.891   5.839  0.3804  0.0493 -0.2531
69404POPC   C3A24825  27.307  14.918   6.288 -0.0606 -0.1765  0.1116
69404POPC   C4A24826  27.229  15.178   6.696 -0.1122 -0.3889  0.0979
69404POPC   C1B24827  27.067  14.436   5.365 -0.4131  0.3784 -0.0734
69404POPC   C2B24828  27.127  14.489   5.817  0.1216  0.0527 -0.0514
69404POPC   C3B24829  27.081  14.448   6.247 -0.1541 -0.1997  0.0809
69404POPC   C4B24830  27.219  14.653   6.682 -0.0371  0.1238 -0.0205
69405POPC   NC324831  23.147   9.307   5.493 -0.0939 -0.0438 -0.0352
69405POPC   PO424832  23.189   9.191   5.862  0.2345  0.1348 -0.1122
69405POPC   GL124833  22.907   9.505   5.810 -0.2040 -0.1956 -0.3290
69405POPC   GL224834  22.901   9.562   6.149 -0.0192 -0.2018  0.1068
69405POPC   C1A24835  22.488   9.375   5.942  0.1109  0.4489 -0.0237
69405POPC   D2A24836  22.043   9.330   6.096  0.1419 -0.0283  0.2502
69405POPC   C3A24837  21.751   9.522   6.351  0.2344  0.2185 -0.2021
69405POPC   C4A24838  21.351   9.391   6.541  0.2917 -0.0977 -0.3310
69405POPC   C1B24839  22.862   9.982   6.402 -0.3980 -0.2847  0.2513
69405POPC   C2B24840  22.711  10.381   6.634 -0.0863  0.0466 -0.0285
69405POPC   C3B24841  22.460  10.688   6.875 -0.0716 -0.2206  0.0697
69405POPC   C4B24842  22.245  10.987   7.147 -0.2903 -0.1187  0.1099
69406POPC   NC324843  32.662   6.649   5.566  0.0745 -0.0692 -0.1146
69406POPC   PO424844  32.296   6.647   5.482  0.0804 -0.2907  0.0907
69406POPC   GL124845  32.216   6.812   5.879 -0.3778 -0.1045 -0.0343
69406POPC   GL224846  32.034   7.063   5.912  0.0140  0.1576  0.1727
69406POPC   C1A24847  32.569   6.883   6.240  0.3678  0.3429  0.2043
69406POPC   D2A24848  32.977   6.986   6.404  0.4556 -0.0423 -0.1528
69406POPC   C3A24849  33.299   6.935   6.792 -0.2328 -0.0858 -0.0091
69406POPC   C4A24850  33.537   7.079   7.101  0.1896 -0.0007 -0.0606
69406POPC   C1B24851  32.045   6.931   6.345 -0.2973  0.1337  0.0173
69406POPC   C2B24852  32.108   7.010   6.787  0.4623  0.1482  0.3292
69406POPC   C3B24853  32.297   6.864   7.120 -0.1200 -0.0558 -0.0278
69406POPC   C4B24854  32.214   6.723   7.581  0.0030 -0.1327  0.1316
69407POPC   NC324855  29.506  12.896   4.652 -0.2288 -0.2403  0.0910
69407POPC   PO424856  29.312  13.209   4.755  0.2011 -0.0730 -0.0297
69407POPC   GL124857  29.517  13.352   5.140  0.1582 -0.4902  0.3527
69407POPC   GL224858  29.465  13.065   5.205  0.0059  0.0127 -0.1647
69407POPC   C1A24859  29.730  13.728   5.360  0.2296  0.2973  0.0254
69407POPC   D2A24860  29.949  13.968   5.654  0.1799 -0.3095 -0.0159
69407POPC   C3A24861  30.021  14.187   6.048  0.1703 -0.2313 -0.2931
69407POPC   C4A24862  30.217  14.116   6.481 -0.2909 -0.0123  0.0544
69407POPC   C1B24863  29.685  13.256   5.564 -0.1953  0.1396 -0.1800
69407POPC   C2B24864  29.883  13.433   5.940  0.2781  0.4485  0.1461
69407POPC   C3B24865  30.178  13.745   6.093  0.2665  0.0950 -0.0632
69407POPC   C4B24866  30.554  14.045   6.101 -0.0699 -0.3113  0.0303
69408POPC   NC324867  23.123   6.714   6.234 -0.0874  0.0975  0.1044
69408POPC   PO424868  22.807   6.604   6.434 -0.2364  0.0121 -0.0426
69408POPC   GL124869  22.266   6.578   6.499  0.0562  0.1363  0.0397
69408POPC   GL224870  22.336   6.505   6.765 -0.3407 -0.0639 -0.1412
69408POPC   C1A24871  21.817   6.666   6.657 -0.0695 -0.3473 -0.0444
69408POPC   D2A24872  21.554   7.017   6.813  0.1354 -0.3073 -0.1465
69408POPC   C3A24873  21.447   6.967   7.267  0.1439  0.1212  0.0316
69408POPC   C4A24874  21.125   6.954   7.602  0.0431  0.1011 -0.1458
69408POPC   C1B24875  22.315   6.600   7.177  0.0412  0.2313  0.0239
69408POPC   C2B24876  22.124   6.607   7.605 -0.1178 -0.1506 -0.1072
69408POPC   C3B24877  21.971   6.718   8.076  0.0188 -0.3572 -0.2714
69408POPC   C4B24878  22.271   6.548   8.384  0.0630 -0.2326 -0.2542
69409POPC   NC324879  18.436   0.598   4.233  0.1249 -0.1127 -0.1472
69409POPC   PO424880  18.352   0.920   4.006 -0.0014  0.1645  0.0430
69409POPC   GL124881  18.124   0.927   4.292 -0.3925 -0.0329 -0.1014
69409POPC   GL224882  17.897   0.831   4.300  0.3161 -0.0104 -0.0568
69409POPC   C1A24883  18.260   0.810   4.687 -0.3226  0.0636 -0.0347
69409POPC   D2A24884  18.453   0.675   5.042 -0.2335  0.1877 -0.0200
69409POPC   C3A24885  18.444   0.276   5.301 -0.1587  0.1007  0.3863
69409POPC   C4A24886  18.411   0.132   5.730  0.3849  0.1425  0.2046
69409POPC   C1B24887  17.811   0.697   4.736  0.0229  0.1540  0.1750
69409POPC   C2B24888  17.684   0.700   5.164  0.2911  0.0176  0.0589
69409POPC   C3B24889  17.517   0.714   5.592  0.0097  0.0108 -0.0436
69409POPC   C4B24890  17.332   0.529   5.925  0.1604 -0.1266 -0.0859
69410POPC   NC324891  28.965   8.632   6.819  0.0091 -0.1481  0.0831
69410POPC   PO424892  28.791   8.928   6.644  0.2985 -0.0675 -0.0855
69410POPC   GL124893  29.022   9.071   6.904 -0.0141  0.1031  0.1039
69410POPC   GL224894  28.903   9.250   7.103  0.0568 -0.1290 -0.0050
69410POPC   C1A24895  29.386   9.379   6.951 -0.0496  0.2223 -0.2707
69410POPC   D2A24896  29.709   9.698   6.818 -0.2390  0.1675  0.2572
69410POPC   C3A24897  29.924   9.840   7.170  0.1674  0.0377 -0.1356
69410POPC   C4A24898  30.240   9.866   7.519 -0.0066  0.2776  0.1370
69410POPC   C1B24899  28.839   9.747   7.150 -0.2362  0.2161  0.0426
69410POPC   C2B24900  29.000  10.106   7.391  0.3280  0.1461  0.2609
69410POPC   C3B24901  29.034  10.491   7.630 -0.1520 -0.2148  0.2101
69410POPC   C4B24902  29.170  10.936   7.522  0.2012 -0.1298  0.1281
69411POPC   NC324903  23.078  11.545   4.669 -0.0451  0.3354  0.0626
69411POPC   PO424904  23.303  11.443   5.028 -0.1158  0.1181 -0.0194
69411POPC   GL124905  23.310  11.647   5.373  0.0486 -0.0488  0.1537
69411POPC   GL224906  23.012  11.713   5.390 -0.1021 -0.0325  0.2455
69411POPC   C1A24907  23.238  11.495   5.820  0.2907  0.2274  0.1835
69411POPC   D2A24908  23.446  11.354   6.206 -0.1872 -0.1753  0.1488
69411POPC   C3A24909  23.304  11.307   6.662  0.1586  0.4930  0.0635
69411POPC   C4A24910  23.296  11.288   7.110 -0.1516  0.0164 -0.1613
69411POPC   C1B24911  23.000  11.926   5.837  0.1097  0.0183  0.0180
69411POPC   C2B24912  22.875  11.683   6.185  0.1774  0.1700 -0.0554
69411POPC   C3B24913  22.776  11.545   6.586 -0.2450 -0.1995 -0.0487
69411POPC   C4B24914  22.737  11.846   6.890 -0.1558  0.0833 -0.2504
69412POPC   NC324915  21.043   2.814   5.299  0.0388  0.3721  0.1411
69412POPC   PO424916  21.402   2.765   5.354 -0.0694  0.1015 -0.4408
69412POPC   GL124917  21.282   2.847   5.733 -0.0490  0.1506  0.0679
69412POPC   GL224918  21.536   2.835   5.895 -0.1610 -0.0128 -0.1175
69412POPC   C1A24919  21.014   2.899   6.075  0.1803  0.4155  0.0839
69412POPC   D2A24920  20.985   2.686   6.494 -0.2075  0.0244  0.0523
69412POPC   C3A24921  20.723   2.627   6.804 -0.0589  0.1637 -0.1949
69412POPC   C4A24922  20.454   2.612   7.120 -0.0342 -0.2885 -0.1454
69412POPC   C1B24923  21.485   2.845   6.394  0.1459 -0.3099  0.2397
69412POPC   C2B24924  21.341   2.890   6.855  0.1757  0.1843 -0.0118
69412POPC   C3B24925  21.360   2.742   7.322 -0.2097 -0.1239 -0.0116
69412POPC   C4B24926  21.435   2.575   7.765 -0.0735  0.0466 -0.1434
69413POPC   NC324927  17.815   4.846   5.017 -0.1728  0.2175 -0.0609
69413POPC   PO424928  18.026   4.528   5.115  0.2252 -0.0434  0.0252
69413POPC   GL124929  18.123   4.578   5.476  0.0814 -0.1347  0.1776
69413POPC   GL224930  17.856   4.660   5.577 -0.1435  0.1595  0.1490
69413POPC   C1A24931  18.296   4.753   5.838 -0.2416 -0.0316 -0.0394
69413POPC   D2A24932  18.094   4.731   6.284  0.1061 -0.1927 -0.2042
69413POPC   C3A24933  17.785   4.974   6.514  0.1199 -0.0498  0.0346
69413POPC   C4A24934  17.507   5.311   6.670 -0.3909 -0.0392  0.0008
69413POPC   C1B24935  17.629   4.575   5.997 -0.0109 -0.0024 -0.1871
69413POPC   C2B24936  17.276   4.417   6.345 -0.3350  0.2365  0.0840
69413POPC   C3B24937  16.898   4.144   6.498 -0.4244 -0.5684  0.1167
69413POPC   C4B24938  16.775   3.990   6.952 -0.0212 -0.2241 -0.0450
69414POPC   NC324939  26.340   4.545  11.704 -0.0298  0.0567  0.0184
69414POPC   PO424940  26.346   4.631  12.063  0.1705  0.3660  0.0206
69414POPC   GL124941  26.005   4.438  12.167 -0.2333  0.0331 -0.0877
69414POPC   GL224942  25.799   4.468  11.947  0.0590  0.0540  0.0438
69414POPC   C1A24943  25.731   4.030  12.084  0.1389 -0.1532  0.1208
69414POPC   D2A24944  25.709   3.626  11.904 -0.0104 -0.2153 -0.1765
69414POPC   C3A24945  25.971   3.519  11.551  0.2467  0.0661 -0.0062
69414POPC   C4A24946  26.351   3.369  11.389  0.1395 -0.2854  0.0323
69414POPC   C1B24947  25.550   4.147  11.628 -0.0665 -0.1479 -0.0918
69414POPC   C2B24948  25.149   4.002  11.393  0.3520 -0.2797  0.1085
69414POPC   C3B24949  24.732   3.730  11.355  0.3138  0.0084  0.2012
69414POPC   C4B24950  24.308   3.979  11.433 -0.0246  0.1392  0.1216
69415POPC   NC324951  16.659   3.534  16.176 -0.2716  0.2111 -0.1276
69415POPC   PO424952  16.544   3.188  16.054  0.3201 -0.1307 -0.0782
69415POPC   GL124953  16.505   3.154  16.371  0.1471 -0.2299  0.2698
69415POPC   GL224954  16.283   3.308  16.447 -0.1423 -0.2228  0.0254
69415POPC   C1A24955  16.757   3.025  16.736  0.2007 -0.4158 -0.0478
69415POPC   D2A24956  17.227   3.190  16.838  0.0812  0.0884  0.2761
69415POPC   C3A24957  17.400   3.392  17.282  0.1976  0.0990 -0.0964
69415POPC   C4A24958  17.541   3.759  17.564 -0.0170  0.0744 -0.0527
69415POPC   C1B24959  16.215   3.017  16.865 -0.2641  0.1192 -0.4104
69415POPC   C2B24960  16.442   2.954  17.245  0.2671  0.0466 -0.0235
69415POPC   C3B24961  16.612   2.821  17.695 -0.1026 -0.1648 -0.2851
69415POPC   C4B24962  16.403   2.555  17.947 -0.1986 -0.3843 -0.1780
69416POPC   NC324963  24.455  16.124  14.434  0.2865 -0.0105  0.0417
69416POPC   PO424964  24.796  16.302  14.389  0.2130 -0.0550  0.1849
69416POPC   GL124965  24.986  16.598  14.548 -0.0187 -0.0141 -0.1395
69416POPC   GL224966  25.235  16.542  14.467  0.3319  0.0298  0.1562
69416POPC   C1A24967  24.970  16.719  14.956 -0.5584  0.0203  0.1333
69416POPC   D2A24968  24.868  16.451  15.287  0.1805  0.0060  0.0228
69416POPC   C3A24969  24.673  16.522  15.784  0.0011  0.0751  0.1316
69416POPC   C4A24970  24.557  16.452  16.237  0.2285  0.0747  0.0452
69416POPC   C1B24971  25.375  16.907  14.732  0.0922 -0.0477 -0.2889
69416POPC   C2B24972  25.611  17.232  14.949 -0.0361 -0.0917 -0.0827
69416POPC   C3B24973  25.423  17.626  14.961  0.0019  0.1923 -0.0237
69416POPC   C4B24974  25.233  18.062  15.090 -0.0462 -0.1474  0.0151
69417POPC   NC324975  20.585   1.999  15.047 -0.0844  0.1998 -0.0182
69417POPC   PO424976  20.326   1.721  15.144 -0.1466  0.0482  0.2299
69417POPC   GL124977  20.430   1.919  15.529 -0.0932 -0.0223  0.0822
69417POPC   GL224978  20.707   1.855  15.522  0.2656 -0.0072  0.1506
69417POPC   C1A24979  20.598   2.299  15.717 -0.0707  0.0994  0.0414
69417POPC   D2A24980  20.835   2.627  15.985 -0.2206 -0.1191  0.2470
69417POPC   C3A24981  20.944   2.575  16.441  0.0820  0.0166  0.1801
69417POPC   C4A24982  21.181   2.551  16.807 -0.2818 -0.1081 -0.1069
69417POPC   C1B24983  20.875   1.892  15.916  0.1363 -0.0344  0.0884
69417POPC   C2B24984  21.107   2.086  16.245 -0.0891  0.2039 -0.1015
69417POPC   C3B24985  21.414   2.204  16.541 -0.3685  0.1214 -0.2282
69417POPC   C4B24986  21.773   2.446  16.717  0.3019 -0.0767  0.0411
69418POPC   NC324987   0.019  14.731  16.712 -0.1872  0.0955  0.0782
69418POPC   PO424988   0.223  14.425  16.709 -0.0985 -0.3270  0.0183
69418POPC   GL124989   0.040  14.231  17.060  0.2479 -0.1914  0.0490
69418POPC   GL224990   0.322  14.147  17.214 -0.1962  0.1935  0.0766
69418POPC   C1A24991  -0.056  14.506  17.441 -0.0176 -0.0584  0.0234
69418POPC   D2A24992  -0.142  14.919  17.486  0.1881  0.3077 -0.1001
69418POPC   C3A24993   0.196  15.130  17.624 -0.1449 -0.1633  0.1176
69418POPC   C4A24994   0.502  15.205  17.950 -0.1107  0.2683 -0.3099
69418POPC   C1B24995   0.465  14.365  17.596  0.0146 -0.1456 -0.1991
69418POPC   C2B24996   0.185  14.631  17.858 -0.1616  0.2017 -0.0086
69418POPC   C3B24997   0.014  14.569  18.288 -0.0171  0.2738 -0.1631
69418POPC   C4B24998  -0.322  14.853  18.500  0.2084  0.0040 -0.2535
69419POPC   NC324999  29.905  12.992  16.570  0.0059  0.1084 -0.1136
69419POPC   PO425000  30.167  12.728  16.650 -0.0988 -0.0054 -0.0408
69419POPC   GL125001  29.986  12.926  17.048 -0.1871 -0.1418  0.1930
69419POPC   GL225002  30.020  13.194  17.157 -0.0403  0.0221  0.2338
69419POPC   C1A25003  29.951  12.685  17.449  0.1277  0.1416  0.0953
69419POPC   D2A25004  29.771  12.816  17.861  0.0562  0.1556  0.0568
69419POPC   C3A25005  29.985  12.708  18.214  0.0838  0.1476 -0.2878
69419POPC   C4A25006  30.148  12.508  18.610  0.1507  0.1853  0.0740
69419POPC   C1B25007  29.958  13.212  17.598 -0.0101 -0.0061 -0.2488
69419POPC   C2B25008  29.936  13.236  18.050 -0.0462  0.2737 -0.2095
69419POPC   C3B25009  30.087  13.530  18.365 -0.0344  0.0261 -0.1535
69419POPC   C4B25010  30.348  13.849  18.628 -0.0969  0.1178  0.0784
69420POPC   NC325011  18.127   3.635  15.892  0.2055 -0.2083  0.1211
69420POPC   PO425012  18.393   3.431  15.736 -0.0885 -0.4513 -0.1025
69420POPC   GL125013  18.544   3.212  15.871 -0.1253  0.3199 -0.4927
69420POPC   GL225014  18.799   3.243  16.041 -0.0930  0.1725 -0.0539
69420POPC   C1A25015  18.431   3.133  16.319  0.0524  0.0276  0.1644
69420POPC   D2A25016  18.144   2.982  16.715 -0.1301 -0.0608  0.1408
69420POPC   C3A25017  18.272   3.172  17.141 -0.1398  0.1028  0.0617
69420POPC   C4A25018  18.361   3.428  17.466 -0.1954 -0.2368  0.4122
69420POPC   C1B25019  18.861   3.146  16.477  0.0038  0.2356 -0.2109
69420POPC   C2B25020  18.697   3.275  16.920  0.0523  0.3743 -0.2510
69420POPC   C3B25021  18.822   3.204  17.368  0.0906  0.0379  0.1636
69420POPC   C4B25022  19.147   2.943  17.680  0.1624 -0.0310  0.4048
69421POPC   NC325023  23.858  10.579  10.314 -0.1240 -0.0501 -0.0195
69421POPC   PO425024  23.563  10.804  10.112  0.0599 -0.1236  0.2593
69421POPC   GL125025  23.829  10.797   9.841 -0.0339 -0.1782  0.1144
69421POPC   GL225026  24.125  10.728   9.954  0.0355 -0.1491 -0.0428
69421POPC   C1A25027  23.962  10.474   9.502  0.3805  0.1379  0.2863
69421POPC   D2A25028  24.171  10.028   9.427 -0.0471  0.1329 -0.0718
69421POPC   C3A25029  24.015   9.947   9.058  0.1658 -0.1493  0.1966
69421POPC   C4A25030  23.979  10.044   8.571 -0.3883 -0.0284 -0.0352
69421POPC   C1B25031  24.440  10.426  10.003  0.0953 -0.2973  0.1846
69421POPC   C2B25032  24.409   9.948   9.913  0.0183 -0.0176  0.1145
69421POPC   C3B25033  24.487   9.483   9.813 -0.0278 -0.0863 -0.0991
69421POPC   C4B25034  24.668   9.080   9.841  0.0013 -0.2422 -0.1994
69422POPC   NC325035  20.053   1.358  15.491 -0.0269 -0.1344 -0.1491
69422POPC   PO425036  20.169   0.977  15.508  0.2046  0.1846 -0.1181
69422POPC   GL125037  20.516   1.128  15.650  0.1472 -0.1589  0.0119
69422POPC   GL225038  20.536   1.396  15.543  0.0400 -0.1755 -0.0220
69422POPC   C1A25039  20.791   1.355  15.951  0.4086  0.0563  0.1061
69422POPC   D2A25040  21.046   1.463  16.298  0.1583 -0.3794 -0.1445
69422POPC   C3A25041  20.996   1.767  16.680  0.0870 -0.0413  0.1109
69422POPC   C4A25042  21.142   2.116  16.966  0.0396  0.0607  0.3503
69422POPC   C1B25043  20.442   1.667  15.918  0.3495 -0.3728  0.0032
69422POPC   C2B25044  20.593   1.867  16.339 -0.0107 -0.1839 -0.1076
69422POPC   C3B25045  20.730   2.211  16.689 -0.1449 -0.0006 -0.0297
69422POPC   C4B25046  20.665   2.586  17.000  0.1006  0.2234  0.4079
69423POPC   NC325047  28.726   2.215  10.922  0.1920 -0.3250  0.1333
69423POPC   PO425048  28.989   2.448  10.715 -0.0450 -0.1261 -0.0945
69423POPC   GL125049  28.774   2.704  10.863  0.2960  0.0514 -0.0918
69423POPC   GL225050  28.701   2.949  10.765  0.0058 -0.2593 -0.3956
69423POPC   C1A25051  28.725   2.894  11.251  0.1381 -0.2364  0.2635
69423POPC   D2A25052  28.291   2.955  11.391 -0.4549 -0.2358  0.0734
69423POPC   C3A25053  28.003   3.236  11.601 -0.2806 -0.1686 -0.0931
69423POPC   C4A25054  27.791   3.624  11.493  0.2664  0.1075 -0.1995
69423POPC   C1B25055  28.436   3.193  10.515 -0.0071  0.0131 -0.0863
69423POPC   C2B25056  28.182   3.378  10.190 -0.0571  0.0321 -0.0121
69423POPC   C3B25057  27.842   3.592  10.000 -0.0447 -0.1632  0.0096
69423POPC   C4B25058  27.661   3.444   9.594  0.5579  0.0758 -0.1195
69424POPC   NC325059  18.534   0.677  16.268  0.1479  0.0232  0.0327
69424POPC   PO425060  18.273   0.823  16.038  0.0240  0.2151  0.0673
69424POPC   GL125061  18.109   0.895  16.448  0.0449  0.2304 -0.0537
69424POPC   GL225062  18.276   0.996  16.671 -0.0649  0.0245  0.3606
69424POPC   C1A25063  17.826   1.173  16.809 -0.0456  0.0012  0.1839
69424POPC   D2A25064  17.851   1.661  16.839  0.0680  0.2922  0.1224
69424POPC   C3A25065  17.809   1.947  17.215 -0.1500  0.0406 -0.0423
69424POPC   C4A25066  17.701   2.294  17.512 -0.0088  0.0540 -0.0717
69424POPC   C1B25067  18.312   1.320  16.996  0.4994  0.1955 -0.0505
69424POPC   C2B25068  18.209   1.537  17.436  0.0565  0.0888 -0.2086
69424POPC   C3B25069  18.133   1.957  17.637 -0.0135  0.0972 -0.0843
69424POPC   C4B25070  18.000   1.996  18.091  0.0558 -0.1871 -0.0417
69425POPC   NC325071  26.837  11.386  15.956  0.0779 -0.0767 -0.0401
69425POPC   PO425072  26.519  11.155  15.970  0.0771  0.1628  0.1512
69425POPC   GL125073  26.416  10.851  16.222  0.0161  0.1830 -0.1948
69425POPC   GL225074  26.262  10.741  16.057 -0.1790  0.2611 -0.1264
69425POPC   C1A25075  26.334  10.720  16.643 -0.1149 -0.1300 -0.1571
69425POPC   D2A25076  26.283  10.638  17.080  0.0148  0.2708 -0.1759
69425POPC   C3A25077  26.267  10.191  17.129  0.1418  0.1123 -0.1726
69425POPC   C4A25078  26.146   9.765  16.973 -0.1397 -0.1780 -0.1756
69425POPC   C1B25079  26.381  10.366  16.220 -0.0120  0.0544  0.0618
69425POPC   C2B25080  26.537  10.218  16.652  0.0755 -0.1208  0.0099
69425POPC   C3B25081  26.898   9.982  16.797  0.2347 -0.1322  0.0144
69425POPC   C4B25082  26.754   9.935  17.226 -0.0854  0.1117 -0.1552
69426POPC   NC325083  30.503   8.446  15.427 -0.2736 -0.0295  0.1909
69426POPC   PO425084  30.605   8.787  15.689 -0.1522  0.1911 -0.0484
69426POPC   GL125085  30.493   8.827  16.039  0.1545 -0.2768 -0.2348
69426POPC   GL225086  30.838   8.785  16.156  0.1025  0.1653 -0.0508
69426POPC   C1A25087  30.363   8.883  16.509 -0.1197 -0.1056 -0.1272
69426POPC   D2A25088  30.186   8.851  16.934  0.2992 -0.0937  0.0016
69426POPC   C3A25089  30.160   8.443  17.135 -0.1129  0.0294 -0.0293
69426POPC   C4A25090  30.193   7.992  17.269 -0.1473  0.0269 -0.1187
69426POPC   C1B25091  30.794   8.648  16.595  0.0466 -0.3003  0.0010
69426POPC   C2B25092  30.583   8.347  16.845  0.2043 -0.0781 -0.1707
69426POPC   C3B25093  30.626   8.340  17.310  0.1646 -0.1477  0.0884
69426POPC   C4B25094  30.678   8.523  17.699  0.2320  0.0651 -0.0526
69427POPC   NC325095  21.790  14.101  16.604  0.3718  0.1108 -0.4231
69427POPC   PO425096  21.483  14.219  16.823  0.0982  0.0646  0.0275
69427POPC   GL125097  21.683  13.839  16.995  0.1573  0.2759  0.0164
69427POPC   GL225098  21.900  14.009  17.052 -0.0637 -0.1231 -0.0109
69427POPC   C1A25099  21.689  13.554  17.354 -0.2306 -0.0132 -0.3292
69427POPC   D2A25100  21.712  13.363  17.799  0.1899  0.0051  0.1536
69427POPC   C3A25101  21.508  13.482  18.239  0.1483 -0.0689  0.1208
69427POPC   C4A25102  21.485  13.235  18.639  0.6332  0.3949 -0.0729
69427POPC   C1B25103  21.735  14.115  17.487  0.1010  0.2990 -0.1005
69427POPC   C2B25104  21.904  13.882  17.815 -0.2471  0.1214 -0.1330
69427POPC   C3B25105  22.082  13.747  18.205 -0.1894  0.0221  0.2048
69427POPC   C4B25106  21.921  13.573  18.615 -0.1304  0.2850 -0.3737
69428POPC   NC325107  29.040  11.656  16.073 -0.2462  0.1220  0.4589
69428POPC   PO425108  28.988  12.015  16.185 -0.3092 -0.0297 -0.2496
69428POPC   GL125109  29.106  11.912  16.548 -0.3062 -0.2443 -0.1816
69428POPC   GL225110  29.026  11.647  16.548  0.0627 -0.4174 -0.2161
69428POPC   C1A25111  28.876  11.944  17.016 -0.2018 -0.3153  0.0562
69428POPC   D2A25112  28.820  11.936  17.466  0.3397  0.2123  0.2219
69428POPC   C3A25113  28.702  12.011  17.882 -0.1682  0.0224  0.1091
69428POPC   C4A25114  28.403  12.209  18.145 -0.0466 -0.3710 -0.0178
69428POPC   C1B25115  29.125  11.521  16.914  0.2805 -0.0411  0.3019
69428POPC   C2B25116  29.148  11.442  17.351  0.3573 -0.0864 -0.0271
69428POPC   C3B25117  29.116  11.364  17.822 -0.0639  0.0227 -0.1669
69428POPC   C4B25118  28.829  11.061  18.012 -0.0107  0.0482 -0.0239
69429POPC   NC325119  26.971  10.655  15.477  0.3013 -0.2162  0.1528
69429POPC   PO425120  26.790  10.268  15.392  0.1673 -0.0709  0.3112
69429POPC   GL125121  26.536  10.012  15.523 -0.2473  0.2412 -0.2589
69429POPC   GL225122  26.530   9.824  15.296 -0.2389 -0.1833 -0.1221
69429POPC   C1A25123  26.454   9.842  15.944  0.1400 -0.2877 -0.0030
69429POPC   D2A25124  26.220   9.585  16.192  0.0445  0.2445 -0.0863
69429POPC   C3A25125  26.311   9.158  16.180  0.0920 -0.1679 -0.2177
69429POPC   C4A25126  26.407   8.738  16.109 -0.0689 -0.3565 -0.1513
69429POPC   C1B25127  26.731   9.518  15.559  0.1231  0.3029 -0.0490
69429POPC   C2B25128  26.840   9.472  15.985  0.2161  0.1442 -0.1344
69429POPC   C3B25129  26.739   9.211  16.362 -0.0411  0.2948  0.0303
69429POPC   C4B25130  26.464   9.037  16.701 -0.0261 -0.2533 -0.0381
69430POPC   NC325131  30.732   7.137  14.093 -0.2069 -0.2203  0.0362
69430POPC   PO425132  30.984   6.994  14.415 -0.0492  0.1303 -0.3075
69430POPC   GL125133  30.765   6.824  14.596  0.3656 -0.2523 -0.2630
69430POPC   GL225134  30.466   6.940  14.463 -0.1428  0.0442  0.1234
69430POPC   C1A25135  30.530   6.746  14.996  0.0523  0.0736 -0.3172
69430POPC   D2A25136  30.116   6.759  15.188 -0.1471 -0.1251 -0.1077
69430POPC   C3A25137  29.708   6.633  15.459  0.0116 -0.0941  0.1730
69430POPC   C4A25138  29.440   6.268  15.495  0.1587 -0.0996  0.2131
69430POPC   C1B25139  30.210   6.608  14.605  0.1945 -0.2712  0.0327
69430POPC   C2B25140  29.783   6.409  14.535 -0.0388 -0.0668 -0.1689
69430POPC   C3B25141  29.367   6.206  14.713  0.0216  0.1656  0.0368
69430POPC   C4B25142  29.153   6.111  15.125  0.0782  0.0741 -0.0159
69431POPC   NC325143  19.151  14.790  16.555  0.1208  0.0101 -0.1392
69431POPC   PO425144  18.814  14.947  16.446  0.2621  0.0467 -0.0427
69431POPC   GL125145  18.393  15.003  16.759 -0.1109  0.3724 -0.1482
69431POPC   GL225146  18.378  15.335  16.791  0.2350 -0.0649 -0.0309
69431POPC   C1A25147  18.378  14.943  17.233  0.1201  0.0663  0.2810
69431POPC   D2A25148  18.182  15.117  17.602  0.2837  0.1905 -0.1638
69431POPC   C3A25149  18.043  15.609  17.691 -0.0863  0.1353  0.5450
69431POPC   C4A25150  18.111  15.983  17.999  0.1210  0.1044  0.2572
69431POPC   C1B25151  18.632  15.426  17.102  0.4921 -0.2421  0.2519
69431POPC   C2B25152  18.953  15.493  17.425 -0.0604 -0.1741  0.0417
69431POPC   C3B25153  18.977  15.575  17.829  0.1609  0.1148 -0.2656
69431POPC   C4B25154  18.966  15.257  18.135  0.3280  0.1252 -0.2202
69432POPC   NC325155  27.234   1.171  10.223 -0.1618  0.0385 -0.1656
69432POPC   PO425156  26.961   1.162  10.487 -0.0636  0.0686  0.0062
69432POPC   GL125157  26.934   1.507  10.300 -0.4681 -0.1564 -0.3782
69432POPC   GL225158  26.645   1.489  10.238  0.3525  0.1878 -0.1868
69432POPC   C1A25159  26.956   1.986  10.303 -0.0641 -0.0449  0.0440
69432POPC   D2A25160  27.166   2.320  10.578  0.0714 -0.1731  0.0020
69432POPC   C3A25161  26.950   2.682  10.742  0.0021  0.1486 -0.1051
69432POPC   C4A25162  26.519   2.883  10.661  0.0846  0.0505  0.2648
69432POPC   C1B25163  26.427   1.936  10.230 -0.4009  0.1067 -0.0232
69432POPC   C2B25164  26.248   2.314  10.065  0.1192 -0.0300 -0.3122
69432POPC   C3B25165  26.301   2.745  10.002  0.4017 -0.2185 -0.4055
69432POPC   C4B25166  26.200   3.121  10.253  0.2949  0.1838 -0.0174
69433POPC   NC325167  17.056  12.969  17.128  0.1097  0.1594 -0.0037
69433POPC   PO425168  16.748  12.798  16.880 -0.2112 -0.0478 -0.0281
69433POPC   GL125169  16.400  12.607  17.074  0.0861 -0.2101  0.1939
69433POPC   GL225170  16.402  12.789  17.253 -0.2360  0.2156 -0.0170
69433POPC   C1A25171  16.114  12.403  17.447 -0.3730  0.4068  0.2278
69433POPC   D2A25172  15.883  12.409  17.850 -0.2094  0.0080  0.1597
69433POPC   C3A25173  15.835  12.530  18.342  0.0463  0.1310  0.0118
69433POPC   C4A25174  15.675  12.625  18.752 -0.3000 -0.4056  0.0061
69433POPC   C1B25175  16.484  12.918  17.692  0.0171  0.0225  0.1543
69433POPC   C2B25176  16.685  13.002  18.103  0.0921  0.4103 -0.1681
69433POPC   C3B25177  16.719  12.984  18.559  0.0095 -0.0582 -0.0213
69433POPC   C4B25178  16.893  12.612  18.797  0.2232 -0.1924 -0.2793
69434POPC   NC325179  25.660  15.857  15.392 -0.3941 -0.1663 -0.0819
69434POPC   PO425180  25.439  15.482  15.424  0.0868 -0.0973 -0.1134
69434POPC   GL125181  25.582  15.623  15.823  0.1922 -0.2055  0.0459
69434POPC   GL225182  25.839  15.587  15.812 -0.1584  0.3175 -0.3710
69434POPC   C1A25183  25.499  16.079  15.983 -0.2100 -0.1558  0.0896
69434POPC   D2A25184  25.420  16.352  16.317 -0.0713 -0.1000  0.0029
69434POPC   C3A25185  25.283  16.270  16.785 -0.0115  0.1914  0.3658
69434POPC   C4A25186  25.169  16.365  17.223  0.0103  0.0638 -0.2304
69434POPC   C1B25187  25.759  15.648  16.247  0.0290  0.1545 -0.0814
69434POPC   C2B25188  26.033  15.860  16.574 -0.2230  0.1736 -0.1316
69434POPC   C3B25189  26.131  15.958  17.023  0.1371  0.0952  0.2394
69434POPC   C4B25190  26.432  15.988  17.428 -0.1174 -0.3131  0.2769
69435POPC   NC325191  30.768   6.284  14.824  0.2311  0.2145  0.1721
69435POPC   PO425192  30.704   6.257  14.426 -0.1457  0.2059  0.2158
69435POPC   GL125193  30.464   5.948  14.628 -0.0366  0.2655  0.3112
69435POPC   GL225194  30.238   6.103  14.559 -0.0974 -0.0592 -0.2316
69435POPC   C1A25195  30.243   5.755  14.987 -0.1798  0.1748  0.1905
69435POPC   D2A25196  30.001   5.517  15.290  0.1745 -0.0011 -0.1312
69435POPC   C3A25197  29.669   5.732  15.586  0.1227 -0.0332  0.2276
69435POPC   C4A25198  29.538   5.625  16.041  0.2565 -0.0136  0.1443
69435POPC   C1B25199  30.262   6.279  14.988  0.1763 -0.2017 -0.1750
69435POPC   C2B25200  29.860   6.264  15.221 -0.0419 -0.1871 -0.1451
69435POPC   C3B25201  29.679   5.929  15.037 -0.0754 -0.2353 -0.0720
69435POPC   C4B25202  29.446   5.574  15.165 -0.2759  0.1141 -0.1898
69436POPC   NC325203  31.252   7.340  11.544 -0.1590  0.1716  0.0084
69436POPC   PO425204  31.062   7.114  11.788 -0.0573  0.1605  0.0716
69436POPC   GL125205  30.736   7.093  11.604 -0.1078  0.6552  0.0805
69436POPC   GL225206  30.715   6.884  11.289  0.4479  0.2432 -0.1245
69436POPC   C1A25207  30.305   6.859  11.665  0.0432 -0.2602  0.0254
69436POPC   D2A25208  29.977   6.860  11.357  0.1616 -0.3393  0.0298
69436POPC   C3A25209  29.961   6.393  11.107 -0.1022  0.0480  0.0200
69436POPC   C4A25210  29.915   6.013  10.825  0.0779  0.0220  0.1164
69436POPC   C1B25211  30.388   6.696  11.033  0.0710 -0.0064  0.0381
69436POPC   C2B25212  30.007   6.749  10.768 -0.1867  0.3257  0.2509
69436POPC   C3B25213  29.716   6.784  10.384  0.0388 -0.0794 -0.0721
69436POPC   C4B25214  29.255   6.691  10.345 -0.2422 -0.0729  0.0255
69437POPC   NC325215  32.733   0.333  16.419  0.3416 -0.4231 -0.1848
69437POPC   PO425216  33.097   0.285  16.227 -0.0992  0.1811  0.0872
69437POPC   GL125217  33.118   0.407  16.636  0.0999 -0.2448  0.0653
69437POPC   GL225218  33.143   0.681  16.601 -0.2882 -0.0794  0.2424
69437POPC   C1A25219  33.273   0.278  17.047  0.0425  0.2975 -0.1069
69437POPC   D2A25220  33.428   0.107  17.416 -0.0267 -0.4703 -0.0850
69437POPC   C3A25221  33.323  -0.208  17.740 -0.0572 -0.0197  0.0009
69437POPC   C4A25222  33.384  -0.356  18.157 -0.1277 -0.0005 -0.0083
69437POPC   C1B25223  33.315   0.749  16.976  0.0212 -0.0965  0.0531
69437POPC   C2B25224  33.332   0.675  17.346 -0.0948 -0.2288  0.1196
69437POPC   C3B25225  33.612   0.767  17.669  0.0648 -0.1401  0.2798
69437POPC   C4B25226  33.742   0.751  18.068  0.2501  0.1041  0.0733
69438POPC   NC325227  20.802  10.273  16.156  0.1976 -0.0237 -0.0780
69438POPC   PO425228  20.468  10.429  16.316  0.4109 -0.0505  0.2604
69438POPC   GL125229  20.526  10.470  16.769  0.1278 -0.0194 -0.3561
69438POPC   GL225230  20.355  10.243  16.890 -0.1751 -0.0511  0.0024
69438POPC   C1A25231  20.739  10.501  17.222  0.0538  0.0006 -0.1770
69438POPC   D2A25232  20.945  10.470  17.644 -0.1215  0.1479  0.0606
69438POPC   C3A25233  21.062  10.780  17.971  0.0881  0.0766  0.1729
69438POPC   C4A25234  20.872  10.906  18.358 -0.0464  0.0132 -0.1498
69438POPC   C1B25235  20.556  10.027  17.228  0.0870 -0.2640 -0.1893
69438POPC   C2B25236  20.651   9.896  17.654  0.0740  0.1965 -0.2586
69438POPC   C3B25237  20.763  10.145  17.972 -0.0129 -0.3827 -0.2302
69438POPC   C4B25238  21.027  10.419  18.272 -0.3353 -0.1613  0.1193
69439POPC   NC325239  18.663   2.688  15.508 -0.3078 -0.0195  0.1294
69439POPC   PO425240  18.861   3.022  15.583  0.1739 -0.0034 -0.2028
69439POPC   GL125241  19.129   3.208  15.703  0.3966 -0.4171 -0.1352
69439POPC   GL225242  19.296   3.435  15.619  0.0458  0.2622 -0.0818
69439POPC   C1A25243  19.358   3.203  16.077  0.4198  0.0173 -0.0632
69439POPC   D2A25244  19.335   3.311  16.498  0.1364 -0.0739  0.2333
69439POPC   C3A25245  19.629   3.268  16.837 -0.3380  0.2975  0.0154
69439POPC   C4A25246  20.011   3.411  17.028  0.0254 -0.2309  0.0385
69439POPC   C1B25247  19.418   3.667  15.974  0.0559  0.1610 -0.3694
69439POPC   C2B25248  19.406   3.780  16.424 -0.2017  0.3546 -0.1341
69439POPC   C3B25249  19.445   3.899  16.882  0.5952 -0.1163  0.0916
69439POPC   C4B25250  19.612   3.649  17.204 -0.1184 -0.0019  0.0074
69440POPC   NC325251  27.925  12.260  16.728  0.0345 -0.1929 -0.0376
69440POPC   PO425252  28.161  11.996  16.560 -0.1302 -0.0820 -0.0680
69440POPC   GL125253  28.363  12.035  16.913  0.1877 -0.2130 -0.2238
69440POPC   GL225254  28.312  11.830  17.097 -0.3408 -0.1064 -0.0562
69440POPC   C1A25255  28.587  12.277  17.215  0.2074 -0.0130 -0.3859
69440POPC   D2A25256  28.421  12.447  17.660  0.1898 -0.0803  0.0383
69440POPC   C3A25257  28.458  12.878  17.791 -0.0198 -0.0843  0.0436
69440POPC   C4A25258  28.268  13.150  18.161 -0.2360 -0.1067  0.2838
69440POPC   C1B25259  28.196  12.020  17.588  0.2261 -0.1018 -0.1962
69440POPC   C2B25260  28.023  12.373  17.905  0.0679 -0.0264 -0.0948
69440POPC   C3B25261  28.142  12.622  18.225  0.0138  0.2158  0.1379
69440POPC   C4B25262  27.919  12.941  18.447  0.3275  0.2016  0.1911
69441POPC   NC325263  24.998  10.080  13.094 -0.1880  0.1625  0.1726
69441POPC   PO425264  24.733   9.973  13.381 -0.1054  0.0831  0.0992
69441POPC   GL125265  24.616   9.814  13.118  0.1647 -0.2703 -0.0197
69441POPC   GL225266  24.391   9.658  13.054  0.0830 -0.0886  0.4683
69441POPC   C1A25267  24.932   9.545  12.878  0.1895 -0.0503 -0.1865
69441POPC   D2A25268  25.066   9.197  12.692  0.2927 -0.0131  0.0626
69441POPC   C3A25269  24.774   8.952  12.896 -0.1118 -0.0245 -0.0754
69441POPC   C4A25270  24.636   8.814  13.329 -0.1614  0.2048  0.1418
69441POPC   C1B25271  24.417   9.361  12.666  0.3607  0.2194 -0.1388
69441POPC   C2B25272  24.598   9.097  12.365 -0.2768 -0.0578  0.1051
69441POPC   C3B25273  24.807   8.900  11.970 -0.0351  0.1095  0.0917
69441POPC   C4B25274  24.947   8.755  11.501  0.1680 -0.3290  0.1476
69442POPC   NC325275  16.748   8.485  16.031  0.1764  0.0466  0.0247
69442POPC   PO425276  16.977   8.789  16.051 -0.1797 -0.0523 -0.0321
69442POPC   GL125277  17.062   8.910  16.415  0.1136  0.3257  0.0810
69442POPC   GL225278  17.265   8.631  16.401  0.3961 -0.1365 -0.0558
69442POPC   C1A25279  16.985   8.804  16.859 -0.1538  0.0482  0.0265
69442POPC   D2A25280  16.665   8.685  17.179 -0.0063  0.3434  0.1427
69442POPC   C3A25281  16.466   8.341  17.368 -0.1535 -0.0152  0.2027
69442POPC   C4A25282  16.594   7.899  17.303  0.1841 -0.1236  0.0630
69442POPC   C1B25283  17.441   8.715  16.839  0.2223 -0.1698  0.1497
69442POPC   C2B25284  17.663   8.484  17.194  0.0919 -0.3962 -0.0079
69442POPC   C3B25285  17.550   8.243  17.611  0.2781 -0.3324  0.0071
69442POPC   C4B25286  17.619   7.829  17.780  0.1804  0.1298  0.0683
69443POPC   NC325287  26.328  10.488  12.518 -0.0720 -0.0435  0.0831
69443POPC   PO425288  26.037  10.534  12.240 -0.3134  0.1461  0.1522
69443POPC   GL125289  25.914  10.243  12.390 -0.0527  0.0666 -0.1112
69443POPC   GL225290  26.109  10.017  12.584 -0.1294  0.2747 -0.0586
69443POPC   C1A25291  25.698   9.947  12.137 -0.1873 -0.2280 -0.1909
69443POPC   D2A25292  25.331   9.709  12.001 -0.1207  0.0285 -0.3744
69443POPC   C3A25293  25.207   9.316  12.166  0.1528 -0.0556 -0.1128
69443POPC   C4A25294  25.285   8.831  12.250  0.1961 -0.1456 -0.0361
69443POPC   C1B25295  26.141   9.595  12.782  0.0614  0.1566  0.2335
69443POPC   C2B25296  26.024   9.097  12.793  0.0540 -0.3413  0.0899
69443POPC   C3B25297  25.837   8.654  12.870  0.3170 -0.0942  0.1740
69443POPC   C4B25298  25.838   8.191  12.871 -0.1078  0.0359  0.0708
69444POPC   NC325299  19.903   7.546  15.275  0.1016 -0.0625  0.3077
69444POPC   PO425300  20.169   7.445  15.013  0.3416  0.2331 -0.1025
69444POPC   GL125301  20.356   7.335  15.413  0.0715 -0.1515 -0.0909
69444POPC   GL225302  20.184   7.316  15.627 -0.1322 -0.0144  0.1711
69444POPC   C1A25303  20.642   7.580  15.677 -0.2107 -0.1092 -0.0490
69444POPC   D2A25304  20.562   7.917  16.029  0.2883  0.1253  0.1840
69444POPC   C3A25305  20.552   7.896  16.434  0.0288  0.0793 -0.1663
69444POPC   C4A25306  20.412   7.887  16.847  0.1208  0.2525 -0.0629
69444POPC   C1B25307  20.464   7.071  15.960  0.4546  0.1218 -0.1524
69444POPC   C2B25308  20.680   7.051  16.357  0.0762 -0.3356 -0.0242
69444POPC   C3B25309  20.814   6.968  16.776 -0.1354 -0.1337 -0.1498
69444POPC   C4B25310  21.193   6.750  16.904  0.2183 -0.1019  0.1189
69445POPC   NC325311  19.047   9.362  15.947 -0.2006 -0.2882  0.2049
69445POPC   PO425312  19.334   9.201  16.125 -0.2003  0.0992 -0.2673
69445POPC   GL125313  19.167   9.121  16.466  0.0158 -0.0165  0.0522
69445POPC   GL225314  19.331   8.895  16.533  0.1937 -0.0606  0.2329
69445POPC   C1A25315  19.336   9.254  16.914 -0.0686 -0.1544  0.0040
69445POPC   D2A25316  19.489   9.151  17.348 -0.3288  0.1352  0.2698
69445POPC   C3A25317  19.522   8.757  17.589 -0.0283  0.1946 -0.2764
69445POPC   C4A25318  19.589   8.344  17.787  0.1658  0.1140  0.2164
69445POPC   C1B25319  19.418   8.784  16.999  0.0103  0.2175 -0.2805
69445POPC   C2B25320  19.588   8.386  17.240 -0.0608 -0.1543  0.0894
69445POPC   C3B25321  19.945   8.338  17.436  0.1245 -0.1319  0.1355
69445POPC   C4B25322  20.137   7.895  17.382 -0.0996 -0.1693  0.1385
69446POPC   NC325323  29.448  13.800  16.588  0.2139  0.0377  0.0879
69446POPC   PO425324  29.775  14.037  16.586  0.0789 -0.1099  0.2271
69446POPC   GL125325  29.769  14.114  17.008 -0.3184  0.1023 -0.1806
69446POPC   GL225326  29.980  13.857  17.023 -0.0612 -0.1136  0.0175
69446POPC   C1A25327  29.673  14.135  17.450  0.0325 -0.1323 -0.0211
69446POPC   D2A25328  29.615  14.222  17.916 -0.2582  0.1203  0.1122
69446POPC   C3A25329  29.281  14.095  18.166  0.1252  0.2419  0.1987
69446POPC   C4A25330  28.946  13.820  18.161 -0.2657  0.0635  0.1021
69446POPC   C1B25331  30.112  13.693  17.449 -0.1257 -0.1411  0.2362
69446POPC   C2B25332  30.289  13.595  17.907 -0.3521 -0.1565  0.0434
69446POPC   C3B25333  30.566  13.547  18.322 -0.3378  0.1521 -0.2631
69446POPC   C4B25334  30.958  13.389  18.484 -0.2641  0.0071  0.2522
69447POPC   NC325335  27.438  10.419  13.231 -0.0240 -0.1852 -0.1705
69447POPC   PO425336  27.386  10.071  13.039 -0.2070 -0.2485  0.0791
69447POPC   GL125337  27.142   9.826  13.152  0.0667  0.1912 -0.1793
69447POPC   GL225338  26.842   9.824  13.237 -0.0215  0.0560 -0.2305
69447POPC   C1A25339  26.984   9.385  13.192  0.0002  0.0004 -0.0200
69447POPC   D2A25340  26.947   8.984  12.989  0.0963  0.1226  0.0984
69447POPC   C3A25341  26.568   8.828  12.930 -0.2051  0.2347 -0.0483
69447POPC   C4A25342  26.299   8.513  13.011 -0.0668 -0.0500 -0.0046
69447POPC   C1B25343  26.653   9.604  12.860 -0.1776 -0.1965 -0.1053
69447POPC   C2B25344  26.469   9.231  12.633 -0.2224  0.0955 -0.0781
69447POPC   C3B25345  26.300   8.790  12.545 -0.2922  0.1640 -0.2286
69447POPC   C4B25346  26.268   8.345  12.536 -0.1630  0.1394 -0.1090
69448POPC   NC325347  27.692  15.330  15.038 -0.1874 -0.0884 -0.1387
69448POPC   PO425348  27.667  15.515  15.366  0.1512 -0.2941 -0.0404
69448POPC   GL125349  27.794  15.739  15.785 -0.0738 -0.2105 -0.1317
69448POPC   GL225350  27.570  15.581  15.898  0.0710 -0.2641  0.0211
69448POPC   C1A25351  27.962  15.733  16.205 -0.1705 -0.3121 -0.3644
69448POPC   D2A25352  27.794  16.079  16.425  0.0052  0.2182 -0.3184
69448POPC   C3A25353  27.461  15.866  16.630 -0.1448 -0.0405  0.0986
69448POPC   C4A25354  27.012  15.814  16.669  0.1479 -0.0858  0.0230
69448POPC   C1B25355  27.334  15.486  16.290 -0.2408 -0.1175 -0.1668
69448POPC   C2B25356  27.318  15.381  16.698 -0.1475  0.1052  0.1871
69448POPC   C3B25357  27.169  15.157  17.032 -0.1968  0.1897 -0.0643
69448POPC   C4B25358  27.293  14.815  17.320 -0.2425  0.0840  0.1146
69449POPC   NC325359  31.410  15.075  16.309  0.3457 -0.3831  0.0015
69449POPC   PO425360  31.105  14.782  16.304  0.3439 -0.1981 -0.3040
69449POPC   GL125361  31.117  14.589  16.673 -0.1008 -0.1779 -0.2567
69449POPC   GL225362  30.805  14.622  16.707  0.1680 -0.0651  0.3242
69449POPC   C1A25363  31.053  14.799  17.106 -0.4385 -0.2979  0.3222
69449POPC   D2A25364  30.988  14.777  17.553  0.0905  0.1384  0.3424
69449POPC   C3A25365  30.679  14.923  17.830  0.0897 -0.0027  0.0120
69449POPC   C4A25366  30.461  15.154  18.139 -0.1121  0.0398  0.0240
69449POPC   C1B25367  30.580  14.563  17.129  0.2825  0.0800  0.1665
69449POPC   C2B25368  30.490  14.552  17.561 -0.0542 -0.4601 -0.2366
69449POPC   C3B25369  30.327  14.582  18.024 -0.1693 -0.1751 -0.1965
69449POPC   C4B25370  30.245  14.442  18.489 -0.2758 -0.0665  0.2132
69450POPC   NC325371  16.452  10.098  15.965 -0.2366 -0.1414  0.2175
69450POPC   PO425372  16.356  10.145  16.311 -0.0496 -0.0266  0.1311
69450POPC   GL125373  16.346  10.015  16.650 -0.2141 -0.1112 -0.1591
69450POPC   GL225374  16.608  10.127  16.758  0.4076  0.0227  0.0814
69450POPC   C1A25375  16.134  10.094  17.106 -0.1525 -0.0199 -0.0094
69450POPC   D2A25376  16.064  10.101  17.562  0.1833  0.1086 -0.2007
69450POPC   C3A25377  15.991  10.010  18.016  0.0641 -0.2970  0.0116
69450POPC   C4A25378  15.839   9.934  18.439  0.1074 -0.0879 -0.1179
69450POPC   C1B25379  16.607   9.900  17.124 -0.0797  0.0721 -0.3856
69450POPC   C2B25380  16.723   9.744  17.558  0.1425 -0.1318  0.0184
69450POPC   C3B25381  16.815   9.333  17.667 -0.0740  0.1351 -0.2429
69450POPC   C4B25382  17.194   9.079  17.764 -0.1213  0.0941 -0.0975
69451POPC   NC325383  18.407   8.835  15.724 -0.0385  0.0159  0.1553
69451POPC   PO425384  18.464   8.519  15.900 -0.0307  0.1552 -0.0547
69451POPC   GL125385  18.837   8.264  16.134  0.1216  0.2172 -0.1211
69451POPC   GL225386  18.714   8.247  16.382  0.1504 -0.0520  0.2485
69451POPC   C1A25387  19.177   8.051  16.305  0.5235 -0.2709 -0.1997
69451POPC   D2A25388  19.594   8.198  16.489  0.2422 -0.0489  0.1058
69451POPC   C3A25389  19.752   8.487  16.771 -0.4398  0.0994 -0.1578
69451POPC   C4A25390  20.182   8.706  16.857 -0.0591  0.0443  0.0929
69451POPC   C1B25391  18.493   7.977  16.728  0.0638 -0.0510 -0.1373
69451POPC   C2B25392  18.487   8.007  17.198  0.1033  0.0659 -0.0003
69451POPC   C3B25393  18.510   7.962  17.637 -0.2813  0.0985  0.1064
69451POPC   C4B25394  18.425   7.973  18.084 -0.0550 -0.1182 -0.1154
69452POPC   NC325395  27.189  11.885  16.633  0.4506  0.2001 -0.2417
69452POPC   PO425396  27.119  11.689  16.315 -0.1145  0.2610 -0.1232
69452POPC   GL125397  26.988  11.398  16.521  0.4434 -0.0401 -0.3480
69452POPC   GL225398  26.836  11.142  16.481 -0.3739  0.1140 -0.0334
69452POPC   C1A25399  27.018  11.366  16.987  0.3008  0.0643  0.1774
69452POPC   D2A25400  26.913  11.448  17.457 -0.0214 -0.3750 -0.0208
69452POPC   C3A25401  27.216  11.289  17.784 -0.1882 -0.0622 -0.1469
69452POPC   C4A25402  27.288  11.088  18.171  0.2082  0.1005 -0.1645
69452POPC   C1B25403  26.572  11.042  16.880  0.1097  0.0457 -0.0202
69452POPC   C2B25404  26.700  10.995  17.326 -0.3941 -0.1399 -0.1231
69452POPC   C3B25405  26.512  10.649  17.533  0.0719 -0.0468 -0.1883
69452POPC   C4B25406  26.260  10.230  17.604  0.0998  0.1601  0.0939
69453POPC   NC325407  20.282  11.426  16.840  0.2238 -0.1126 -0.1764
69453POPC   PO425408  20.033  11.257  16.608  0.1388  0.0010 -0.3829
69453POPC   GL125409  19.976  11.020  16.951  0.0265 -0.3946  0.0138
69453POPC   GL225410  19.761  10.854  16.849  0.0077 -0.1443  0.0544
69453POPC   C1A25411  19.994  10.823  17.380 -0.0116 -0.0621  0.2247
69453POPC   D2A25412  19.886  10.481  17.712  0.2235  0.1376 -0.5993
69453POPC   C3A25413  19.717  10.233  18.059  0.1271 -0.0275 -0.1185
69453POPC   C4A25414  19.467   9.982  18.357  0.0936  0.1261 -0.2145
69453POPC   C1B25415  19.579  10.586  17.161  0.1637  0.0060 -0.3979
69453POPC   C2B25416  19.411  10.429  17.584 -0.0924  0.2111  0.0441
69453POPC   C3B25417  19.023  10.388  17.753 -0.2377  0.0481  0.2343
69453POPC   C4B25418  18.596  10.475  17.811  0.1472  0.1559 -0.0405
69454POPC   NC325419  22.399   1.132  13.253 -0.1960  0.0077 -0.1210
69454POPC   PO425420  22.787   1.148  13.313 -0.0292  0.1025 -0.1069
69454POPC   GL125421  23.054   1.344  13.123 -0.1445 -0.2956  0.0805
69454POPC   GL225422  23.245   1.408  13.299  0.2191 -0.3005 -0.1800
69454POPC   C1A25423  23.241   1.721  12.926  0.1182  0.2229 -0.0982
69454POPC   D2A25424  23.482   2.177  12.910  0.0938 -0.0322  0.0115
69454POPC   C3A25425  23.769   2.317  13.146 -0.1785 -0.0404 -0.1115
69454POPC   C4A25426  23.962   2.487  13.527 -0.4099  0.1905 -0.0934
69454POPC   C1B25427  23.593   1.707  13.282 -0.1416  0.2261 -0.2685
69454POPC   C2B25428  23.738   1.885  13.698 -0.1212  0.0061 -0.0901
69454POPC   C3B25429  23.747   2.251  13.953 -0.0557 -0.0155  0.1116
69454POPC   C4B25430  23.674   2.697  13.958  0.1449 -0.0264 -0.3062
69455POPC   NC325431  23.150  11.930  16.137 -0.1471  0.1534  0.4604
69455POPC   PO425432  23.512  12.090  16.141 -0.1046  0.0507 -0.1663
69455POPC   GL125433  23.512  12.097  16.569  0.4460  0.0797 -0.2455
69455POPC   GL225434  23.254  11.955  16.633  0.1460 -0.3496 -0.1439
69455POPC   C1A25435  23.714  11.949  16.976  0.1026  0.0160  0.2787
69455POPC   D2A25436  24.077  11.726  17.145  0.1867 -0.0164 -0.0075
69455POPC   C3A25437  24.208  11.627  17.565  0.2599  0.0726  0.2218
69455POPC   C4A25438  24.343  11.430  17.941  0.2223  0.2045  0.0307
69455POPC   C1B25439  23.217  11.759  17.013 -0.6277 -0.1873  0.0280
69455POPC   C2B25440  23.008  11.799  17.370 -0.0490  0.0921  0.0752
69455POPC   C3B25441  23.034  12.022  17.770 -0.3022  0.0538  0.3029
69455POPC   C4B25442  22.694  12.038  18.054  0.1375 -0.1247  0.1357
69456POPC   NC325443  19.773   2.330  15.815 -0.1171 -0.1078  0.2932
69456POPC   PO425444  19.542   1.975  15.692  0.1070  0.0175 -0.1498
69456POPC   GL125445  19.607   2.058  16.098  0.2701  0.2231 -0.0513
69456POPC   GL225446  19.590   2.261  16.319  0.0512 -0.0461  0.1480
69456POPC   C1A25447  19.672   1.829  16.508  0.0497  0.1033 -0.2005
69456POPC   D2A25448  19.951   1.733  16.888  0.0766  0.0124  0.0457
69456POPC   C3A25449  20.182   1.754  17.293 -0.0125  0.3771 -0.0404
69456POPC   C4A25450  20.558   1.782  17.502 -0.4603 -0.2516  0.0489
69456POPC   C1B25451  19.750   2.306  16.726 -0.0421  0.0966  0.1820
69456POPC   C2B25452  19.814   2.125  17.170  0.1015 -0.1336 -0.0820
69456POPC   C3B25453  19.846   2.026  17.637 -0.1485 -0.1576 -0.2543
69456POPC   C4B25454  20.039   2.096  18.074  0.0345 -0.0927 -0.2071
69457POPC   NC325455  27.702  10.348  12.505  0.1187  0.0221 -0.1300
69457POPC   PO425456  27.521  10.533  12.245 -0.2358  0.0275  0.2927
69457POPC   GL125457  27.236  10.252  12.282  0.0325  0.0598  0.0448
69457POPC   GL225458  27.255  10.146  12.562 -0.0991 -0.0390 -0.3330
69457POPC   C1A25459  27.253   9.853  12.032 -0.1470  0.0668  0.1039
69457POPC   D2A25460  27.266   9.405  12.133  0.0727 -0.1300 -0.3289
69457POPC   C3A25461  27.001   9.010  12.036  0.2219 -0.1175  0.0756
69457POPC   C4A25462  26.631   8.678  12.129 -0.1665 -0.1594  0.1694
69457POPC   C1B25463  27.087   9.690  12.625 -0.1600 -0.1422 -0.1495
69457POPC   C2B25464  26.941   9.263  12.508  0.0119  0.1045  0.0142
69457POPC   C3B25465  26.822   8.883  12.528 -0.0811 -0.3109 -0.2203
69457POPC   C4B25466  26.770   8.464  12.606 -0.1737 -0.1105  0.0403
69458POPC   NC325467  16.718   5.166  15.953 -0.3259  0.1992  0.1949
69458POPC   PO425468  16.871   4.817  15.833 -0.1365 -0.1236  0.0985
69458POPC   GL125469  16.853   4.727  16.221  0.1684 -0.3287  0.0957
69458POPC   GL225470  17.072   4.967  16.235 -0.2995  0.3229  0.2127
69458POPC   C1A25471  17.003   4.680  16.667  0.0919 -0.1467 -0.1044
69458POPC   D2A25472  17.057   4.535  17.110 -0.0580 -0.0270  0.0531
69458POPC   C3A25473  17.012   4.186  17.370 -0.1619 -0.3371 -0.2162
69458POPC   C4A25474  17.266   4.162  17.722  0.2388  0.0937  0.2376
69458POPC   C1B25475  16.985   5.217  16.614  0.0605 -0.0217  0.0875
69458POPC   C2B25476  16.753   5.653  16.631  0.2025  0.2010 -0.0946
69458POPC   C3B25477  16.746   5.715  17.076  0.1654 -0.2075 -0.2238
69458POPC   C4B25478  16.984   5.987  17.386 -0.1600 -0.1753  0.0340
69459POPC   NC325479  31.418   7.455  14.688 -0.1341  0.1870  0.0930
69459POPC   PO425480  31.077   7.544  14.823  0.2393  0.1722  0.3499
69459POPC   GL125481  30.812   7.291  14.779  0.0288  0.0803  0.1650
69459POPC   GL225482  30.866   7.085  14.973  0.1104  0.1656  0.0393
69459POPC   C1A25483  30.447   7.275  15.130 -0.1121 -0.1481  0.0005
69459POPC   D2A25484  30.009   7.346  15.264 -0.2380  0.1049 -0.0322
69459POPC   C3A25485  29.983   7.039  15.634  0.6263 -0.0238  0.1175
69459POPC   C4A25486  29.859   6.693  15.895  0.0147  0.0947 -0.0322
69459POPC   C1B25487  30.714   6.958  15.483  0.0244 -0.0885 -0.0215
69459POPC   C2B25488  30.431   6.833  15.813  0.1451 -0.1860  0.3241
69459POPC   C3B25489  30.299   6.701  16.209  0.2414 -0.2091  0.0195
69459POPC   C4B25490  30.372   6.283  16.489  0.0706  0.1059  0.1000
69460POPC   NC325491  26.116  13.895   9.120 -0.1423 -0.0131 -0.0699
69460POPC   PO425492  26.153  13.514   9.258  0.3303 -0.0486  0.4185
69460POPC   GL125493  26.240  13.247   8.947  0.1201 -0.0824  0.0035
69460POPC   GL225494  26.122  12.964   8.853  0.1580 -0.1606  0.2823
69460POPC   C1A25495  26.325  13.251   8.472 -0.1269 -0.2980 -0.2844
69460POPC   D2A25496  26.229  12.988   8.113  0.2755  0.2520 -0.1105
69460POPC   C3A25497  25.895  12.851   7.843 -0.1636 -0.3827 -0.1208
69460POPC   C4A25498  25.712  13.105   7.505  0.0291  0.2000  0.2957
69460POPC   C1B25499  25.853  12.995   8.489 -0.1394  0.3312 -0.1208
69460POPC   C2B25500  25.521  12.783   8.302 -0.0311  0.1179  0.1554
69460POPC   C3B25501  25.283  12.936   7.911  0.0765 -0.3628  0.1890
69460POPC   C4B25502  25.210  13.122   7.523  0.1323  0.2369 -0.5065
69461POPC   NC325503  15.573   9.566  16.356  0.2612  0.0865  0.1673
69461POPC   PO425504  15.729   9.218  16.329 -0.0509  0.0850  0.0288
69461POPC   GL125505  15.821   9.203  16.747 -0.0017  0.0429 -0.1426
69461POPC   GL225506  15.634   9.017  16.779  0.1313  0.2826  0.2106
69461POPC   C1A25507  16.239   9.076  16.973  0.3322 -0.1757 -0.0863
69461POPC   D2A25508  16.450   9.059  17.429 -0.0198 -0.0992  0.1754
69461POPC   C3A25509  16.758   8.775  17.678 -0.1258 -0.2291  0.2027
69461POPC   C4A25510  16.814   8.381  17.926 -0.0842  0.3583 -0.1640
69461POPC   C1B25511  15.762   9.050  17.191 -0.3764  0.1505 -0.2721
69461POPC   C2B25512  15.931   9.110  17.603 -0.1890 -0.0137  0.0149
69461POPC   C3B25513  16.312   9.144  17.883  0.0559 -0.3439  0.0056
69461POPC   C4B25514  16.695   9.039  18.087 -0.0760  0.0929 -0.0571
69462POPC   NC325515  19.339   0.729  15.880  0.0552 -0.1062 -0.2001
69462POPC   PO425516  19.062   0.666  16.126 -0.0593  0.1253 -0.0802
69462POPC   GL125517  19.236   0.449  16.460  0.3275  0.2505  0.2902
69462POPC   GL225518  18.892   0.429  16.533  0.2193  0.0451  0.0110
69462POPC   C1A25519  19.179   0.676  16.868  0.3699  0.1051  0.1561
69462POPC   D2A25520  19.035   0.846  17.310 -0.1508  0.2114  0.1906
69462POPC   C3A25521  19.220   1.058  17.691  0.0724 -0.1567 -0.1007
69462POPC   C4A25522  19.074   1.341  17.972 -0.0700  0.1759  0.2796
69462POPC   C1B25523  18.656   0.670  16.793  0.0293  0.2135  0.0813
69462POPC   C2B25524  18.519   0.890  17.140  0.2231 -0.0671  0.0688
69462POPC   C3B25525  18.216   1.026  17.437  0.0664  0.1801  0.1509
69462POPC   C4B25526  18.196   1.253  17.869  0.1077  0.0693 -0.0115
69463POPC   NC325527  26.651  10.080  14.247 -0.1566  0.1403  0.3455
69463POPC   PO425528  26.558  10.132  13.893  0.1581 -0.0782 -0.1277
69463POPC   GL125529  26.605   9.873  13.615  0.1691  0.0396  0.0237
69463POPC   GL225530  26.346   9.786  13.457  0.2270  0.0369  0.2158
69463POPC   C1A25531  26.722   9.439  13.632  0.0313  0.0064  0.0826
69463POPC   D2A25532  26.506   9.125  13.961 -0.2133  0.0134  0.0127
69463POPC   C3A25533  26.488   8.685  13.953  0.0074 -0.0646  0.0251
69463POPC   C4A25534  26.720   8.258  13.950  0.2534  0.0147 -0.0411
69463POPC   C1B25535  26.422   9.382  13.220 -0.0494  0.1465 -0.0042
69463POPC   C2B25536  26.332   8.981  13.493 -0.0636  0.2918 -0.0269
69463POPC   C3B25537  25.897   8.816  13.401  0.0001  0.0093 -0.2882
69463POPC   C4B25538  25.552   8.508  13.222  0.1788 -0.0773  0.4018
69464POPC   NC325539  30.900   5.439  12.087  0.0182  0.0016  0.0448
69464POPC   PO425540  30.830   5.409  12.491 -0.4011 -0.1868  0.0234
69464POPC   GL125541  30.582   5.709  12.606  0.4654  0.0162  0.3007
69464POPC   GL225542  30.407   5.610  12.845 -0.4148  0.0310  0.0390
69464POPC   C1A25543  30.400   6.121  12.727  0.3028  0.1061  0.0527
69464POPC   D2A25544  30.253   6.519  12.589  0.2210 -0.0677 -0.0698
69464POPC   C3A25545  29.877   6.577  12.403 -0.0629  0.0278 -0.2596
69464POPC   C4A25546  29.681   6.254  12.114  0.1196 -0.1629 -0.0347
69464POPC   C1B25547  29.977   5.813  12.917 -0.3163 -0.4215 -0.1633
69464POPC   C2B25548  29.525   5.871  13.001 -0.0145 -0.1280  0.2166
69464POPC   C3B25549  29.257   6.018  13.277 -0.0354 -0.3890  0.1883
69464POPC   C4B25550  28.823   6.268  13.246 -0.1045  0.1444  0.0117
69465POPC   NC325551  26.147  12.081  16.572 -0.1564  0.0767 -0.0744
69465POPC   PO425552  26.371  12.397  16.413 -0.0973 -0.2211 -0.2889
69465POPC   GL125553  26.550  12.330  16.747  0.0176 -0.1409 -0.6442
69465POPC   GL225554  26.524  12.093  16.928 -0.2040 -0.4567  0.3531
69465POPC   C1A25555  26.465  12.632  17.064  0.2498 -0.1795 -0.1875
69465POPC   D2A25556  26.584  12.960  17.338 -0.1334 -0.0929 -0.2188
69465POPC   C3A25557  26.429  12.754  17.709  0.0505 -0.2433 -0.0116
69465POPC   C4A25558  26.538  12.627  18.112  0.0068  0.0385 -0.1318
69465POPC   C1B25559  26.484  12.255  17.386  0.2699  0.0214  0.0338
69465POPC   C2B25560  26.420  12.257  17.826  0.0584  0.0906  0.0848
69465POPC   C3B25561  26.496  12.013  18.137  0.0937  0.0770 -0.0900
69465POPC   C4B25562  26.508  11.679  18.491 -0.1288  0.2605  0.1663
69466POPC   NC325563  15.695   3.684  15.526  0.2101  0.1109  0.0052
69466POPC   PO425564  15.621   3.333  15.356  0.1646 -0.1838 -0.2195
69466POPC   GL125565  15.601   3.184  15.773 -0.1857  0.0361  0.2569
69466POPC   GL225566  15.393   3.406  15.823 -0.1822 -0.1070  0.0339
69466POPC   C1A25567  15.797   3.146  16.197 -0.0260  0.3589 -0.0805
69466POPC   D2A25568  15.843   3.462  16.541 -0.1344  0.0469  0.0485
69466POPC   C3A25569  15.770   3.257  16.968 -0.2358  0.3280  0.1616
69466POPC   C4A25570  15.588   3.334  17.407 -0.1695 -0.0717  0.3562
69466POPC   C1B25571  15.407   3.456  16.284  0.0243  0.0746 -0.1860
69466POPC   C2B25572  15.378   3.516  16.717  0.3463 -0.0023  0.0703
69466POPC   C3B25573  15.153   3.429  17.117 -0.1103  0.2843  0.0539
69466POPC   C4B25574  15.135   3.777  17.442  0.2385  0.1263  0.0022
69467POPC   NC325575  32.128  14.828  16.552 -0.1298  0.2308  0.2474
69467POPC   PO425576  31.796  14.782  16.359 -0.1566 -0.3522 -0.0276
69467POPC   GL125577  31.695  14.841  16.760 -0.0868  0.2670 -0.1641
69467POPC   GL225578  31.482  15.007  16.799 -0.0618  0.1638 -0.0391
69467POPC   C1A25579  31.487  14.504  16.966  0.1062  0.0180 -0.0958
69467POPC   D2A25580  31.434  14.313  17.397  0.2625 -0.1911  0.0921
69467POPC   C3A25581  31.360  14.506  17.775  0.2595 -0.0957 -0.2614
69467POPC   C4A25582  31.154  14.861  17.989 -0.0717 -0.1092  0.0013
69467POPC   C1B25583  31.548  14.985  17.280 -0.1322  0.0198  0.0657
69467POPC   C2B25584  31.342  15.167  17.657  0.1606  0.0257 -0.3266
69467POPC   C3B25585  31.450  15.373  18.046 -0.0691 -0.1114  0.0453
69467POPC   C4B25586  31.616  15.582  18.408  0.2546  0.1364  0.3162
69468POPC   NC325587  19.614  13.468  16.403  0.0723 -0.0339 -0.1742
69468POPC   PO425588  19.718  13.654  16.741 -0.0593 -0.1628  0.1535
69468POPC   GL125589  19.856  13.725  17.143 -0.0006 -0.3428 -0.2836
69468POPC   GL225590  20.139  13.629  17.340  0.0091 -0.0825 -0.1017
69468POPC   C1A25591  19.685  13.644  17.574  0.1305  0.1300  0.0591
69468POPC   D2A25592  19.315  13.565  17.899  0.3098  0.0535  0.1826
69468POPC   C3A25593  19.285  13.298  18.291  0.0068 -0.0467 -0.2433
69468POPC   C4A25594  19.144  12.844  18.383  0.2985  0.1812  0.0329
69468POPC   C1B25595  20.195  13.786  17.764  0.2842  0.0784 -0.0010
69468POPC   C2B25596  20.084  13.743  18.198 -0.0095 -0.0609  0.1219
69468POPC   C3B25597  20.183  13.792  18.642 -0.1474  0.1589  0.0203
69468POPC   C4B25598  20.151  14.103  18.888 -0.1430 -0.1331 -0.3021
69469POPC   NC325599  29.801  11.038  16.364  0.1151 -0.0737 -0.1688
69469POPC   PO425600  29.495  10.840  16.224  0.0919  0.0572  0.0237
69469POPC   GL125601  29.526  10.440  16.481  0.0776 -0.0754  0.5323
69469POPC   GL225602  29.758  10.385  16.639  0.0756  0.1466  0.0259
69469POPC   C1A25603  29.246  10.283  16.848 -0.2443  0.1595  0.0274
69469POPC   D2A25604  29.061  10.066  17.181  0.5115 -0.1678  0.1313
69469POPC   C3A25605  29.067   9.863  17.611 -0.0852  0.1179 -0.0972
69469POPC   C4A25606  28.849   9.668  18.015 -0.2278  0.0666  0.0028
69469POPC   C1B25607  29.819  10.175  17.001  0.2004 -0.3496  0.0398
69469POPC   C2B25608  29.564  10.141  17.417  0.1075  0.1480 -0.0946
69469POPC   C3B25609  29.570  10.167  17.904  0.3478 -0.0672 -0.1277
69469POPC   C4B25610  29.417  10.325  18.337 -0.2983  0.1888  0.1685
69470POPC   NC325611  22.938  32.247  14.811 -0.0104  0.4034 -0.0051
69470POPC   PO425612  22.589  32.439  14.884  0.1843 -0.1845  0.1155
69470POPC   GL125613  22.588  32.369  15.302  0.3855  0.0981 -0.0747
69470POPC   GL225614  22.882  32.287  15.307 -0.3708  0.4487 -0.3799
69470POPC   C1A25615  22.702  32.690  15.623 -0.1919 -0.0527 -0.1590
69470POPC   D2A25616  23.084  32.993  15.725 -0.0195 -0.1247  0.0653
69470POPC   C3A25617  23.152  33.362  16.039  0.3743 -0.0443 -0.0503
69470POPC   C4A25618  23.360  33.621  16.349 -0.0568 -0.0553  0.2542
69470POPC   C1B25619  23.197  32.536  15.537 -0.0748 -0.0016  0.2842
69470POPC   C2B25620  23.449  32.622  15.936  0.0152  0.0513 -0.1405
69470POPC   C3B25621  23.502  32.889  16.270  0.1870  0.0995  0.3779
69470POPC   C4B25622  23.590  33.062  16.663 -0.2555 -0.0379 -0.2869
69471POPC   NC325623  27.979  11.573  16.481  0.1364  0.1683 -0.1210
69471POPC   PO425624  27.877  11.284  16.236  0.0663 -0.0660 -0.3377
69471POPC   GL125625  27.916  11.094  16.639 -0.1054 -0.1393 -0.0923
69471POPC   GL225626  28.096  10.956  16.630  0.0056  0.0234 -0.0292
69471POPC   C1A25627  27.660  11.322  17.004  0.0476  0.2767  0.2830
69471POPC   D2A25628  27.545  11.195  17.409  0.0193  0.0834  0.1342
69471POPC   C3A25629  27.627  10.982  17.771  0.1483 -0.1014  0.2382
69471POPC   C4A25630  27.734  10.710  18.059 -0.1980  0.1035 -0.0049
69471POPC   C1B25631  27.989  10.812  17.064  0.0806 -0.1784 -0.0795
69471POPC   C2B25632  27.595  10.603  17.263  0.1140  0.1148  0.0515
69471POPC   C3B25633  27.446  10.478  17.691  0.0358  0.2502  0.0674
69471POPC   C4B25634  27.211  10.150  17.883  0.1313  0.0212 -0.0865
69472POPC   NC325635  23.397  16.763  14.944  0.2750  0.3063 -0.0107
69472POPC   PO425636  23.253  16.395  15.069  0.1087 -0.0902 -0.1457
69472POPC   GL125637  23.296  16.416  15.407  0.0043  0.0761  0.0510
69472POPC   GL225638  23.602  16.539  15.458  0.1314  0.0682  0.1289
69472POPC   C1A25639  23.254  16.469  15.803  0.2447  0.2689 -0.2005
69472POPC   D2A25640  23.657  16.678  15.974 -0.2020 -0.2073  0.0744
69472POPC   C3A25641  23.554  17.079  16.158  0.2190  0.1172 -0.0151
69472POPC   C4A25642  23.358  17.432  16.332 -0.1672  0.1162 -0.2022
69472POPC   C1B25643  23.852  16.972  15.625 -0.0739 -0.3138  0.0344
69472POPC   C2B25644  23.845  17.418  15.696  0.4340  0.0149  0.0371
69472POPC   C3B25645  23.824  17.594  16.090  0.0958 -0.2204  0.1280
69472POPC   C4B25646  23.982  17.994  16.322  0.1858  0.0250 -0.0458
69473POPC   NC325647  21.647  32.550  15.539  0.0510  0.0752 -0.0321
69473POPC   PO425648  21.791  32.815  15.261  0.0609 -0.1371  0.0689
69473POPC   GL125649  22.050  32.895  15.462 -0.3250  0.0034 -0.0934
69473POPC   GL225650  22.190  32.609  15.626  0.0137  0.0341  0.0794
69473POPC   C1A25651  21.997  33.195  15.845  0.0202 -0.1762 -0.0003
69473POPC   D2A25652  22.011  33.179  16.276 -0.2107 -0.2333 -0.2985
69473POPC   C3A25653  22.242  33.585  16.391  0.0148 -0.2928 -0.0389
69473POPC   C4A25654  22.502  33.961  16.482  0.0495 -0.1901  0.1930
69473POPC   C1B25655  22.356  32.720  16.031 -0.0016 -0.2219  0.1007
69473POPC   C2B25656  22.429  32.984  16.428  0.1255  0.3882  0.1403
69473POPC   C3B25657  22.271  33.189  16.727  0.0904 -0.2026 -0.2194
69473POPC   C4B25658  22.375  33.301  17.170  0.1160 -0.1799 -0.0484
69474POPC   NC325659  29.764   9.672  11.899  0.4937  0.2140 -0.1664
69474POPC   PO425660  29.620   9.855  11.622 -0.0541  0.0829  0.0799
69474POPC   GL125661  29.220   9.575  11.544  0.1080 -0.0460 -0.0852
69474POPC   GL225662  29.172   9.258  11.564 -0.3012  0.2778 -0.0564
69474POPC   C1A25663  28.892   9.605  11.249  0.0444 -0.1467 -0.0843
69474POPC   D2A25664  28.823   9.881  10.906 -0.2213 -0.3753 -0.2340
69474POPC   C3A25665  28.575   9.756  10.543  0.0195 -0.1071  0.0667
69474POPC   C4A25666  28.588   9.735  10.018 -0.1081  0.0791 -0.2803
69474POPC   C1B25667  29.115   9.119  11.146 -0.0962  0.0070  0.1802
69474POPC   C2B25668  28.834   8.882  10.900 -0.0806 -0.0739  0.2672
69474POPC   C3B25669  28.412   8.848  10.797 -0.0294 -0.1688  0.0968
69474POPC   C4B25670  28.120   8.554  10.707  0.0465  0.0295  0.0130
69475POPC   NC325671  28.329  11.119  16.214  0.2078  0.1844 -0.2429
69475POPC   PO425672  28.357  10.808  15.955  0.1023  0.4946 -0.1681
69475POPC   GL125673  28.372  10.680  16.356 -0.2236  0.1252  0.1754
69475POPC   GL225674  28.612  10.841  16.535  0.1600 -0.2309  0.1624
69475POPC   C1A25675  28.133  10.476  16.745 -0.2661  0.1354  0.0307
69475POPC   D2A25676  28.104  10.222  17.156  0.1131 -0.0138  0.3101
69475POPC   C3A25677  27.952  10.078  17.555  0.1938  0.2470 -0.4297
69475POPC   C4A25678  27.837  10.244  17.949  0.2865  0.2352 -0.2230
69475POPC   C1B25679  28.841  10.602  16.879 -0.0657 -0.5105 -0.0487
69475POPC   C2B25680  29.017  10.564  17.265 -0.2914  0.0307 -0.2383
69475POPC   C3B25681  29.176  10.350  17.660  0.4021  0.0902 -0.0200
69475POPC   C4B25682  28.976  10.291  18.056  0.1135  0.5732  0.3027
69476POPC   NC325683  27.141   9.974  15.235  0.0196  0.0744 -0.1563
69476POPC   PO425684  26.995   9.966  14.915  0.1134 -0.0740 -0.0322
69476POPC   GL125685  26.948   9.641  14.890 -0.0474  0.0026 -0.1148
69476POPC   GL225686  27.076   9.493  14.686  0.0969 -0.0061 -0.1313
69476POPC   C1A25687  26.939   9.215  15.057 -0.1833  0.0080  0.0553
69476POPC   D2A25688  27.176   8.815  15.072 -0.1114 -0.2371  0.2912
69476POPC   C3A25689  27.034   8.397  15.284  0.0065 -0.1272  0.0484
69476POPC   C4A25690  27.053   8.092  15.673 -0.1772 -0.1880  0.1246
69476POPC   C1B25691  27.162   9.001  14.606 -0.3459  0.2795 -0.2083
69476POPC   C2B25692  26.974   8.532  14.615 -0.1667 -0.1500  0.2298
69476POPC   C3B25693  26.795   8.196  14.851  0.0338 -0.1988  0.0250
69476POPC   C4B25694  26.470   7.960  14.987 -0.1636  0.0248  0.0804
69477POPC   NC325695  30.833  11.366  16.487  0.1141 -0.0891  0.1515
69477POPC   PO425696  30.708  10.975  16.488 -0.2781 -0.1182 -0.1705
69477POPC   GL125697  30.757  10.813  16.876  0.0519 -0.0633  0.0022
69477POPC   GL225698  30.526  10.622  16.853 -0.3263  0.0904 -0.1316
69477POPC   C1A25699  30.657  10.708  17.332 -0.0266 -0.1639 -0.0674
69477POPC   D2A25700  30.556  10.634  17.810  0.1264 -0.3906 -0.0990
69477POPC   C3A25701  30.843  10.751  18.162  0.1728  0.0016  0.1968
69477POPC   C4A25702  30.947  10.404  18.439 -0.1708 -0.1119  0.1031
69477POPC   C1B25703  30.269  10.407  17.178 -0.3997  0.0630 -0.1822
69477POPC   C2B25704  30.007  10.251  17.539 -0.1144  0.0522 -0.1164
69477POPC   C3B25705  30.135  10.485  17.970 -0.2597 -0.0421  0.2861
69477POPC   C4B25706  30.339  10.472  18.355 -0.1687  0.6556  0.2399
69478POPC   NC325707  25.228   9.720  14.680  0.0832 -0.0320  0.2961
69478POPC   PO425708  25.378   9.919  14.381 -0.3946 -0.3508  0.0123
69478POPC   GL125709  25.521   9.614  14.273 -0.2463 -0.1550 -0.1680
69478POPC   GL225710  25.804   9.619  14.326  0.2633 -0.4052  0.3080
69478POPC   C1A25711  25.297   9.256  14.471  0.1523  0.1834 -0.1817
69478POPC   D2A25712  25.304   8.787  14.389  0.0951 -0.1269 -0.0540
69478POPC   C3A25713  25.639   8.450  14.520  0.0131  0.0296  0.0997
69478POPC   C4A25714  25.664   8.280  14.926 -0.0774 -0.1921  0.0329
69478POPC   C1B25715  25.754   9.506  14.766 -0.0195  0.3678  0.1131
69478POPC   C2B25716  26.099   9.145  14.854 -0.0177 -0.1072 -0.1122
69478POPC   C3B25717  26.332   9.240  15.251  0.3066 -0.1442  0.0267
69478POPC   C4B25718  26.663   9.003  15.497  0.0477  0.1895  0.2169
69479POPC   NC325719  20.750   7.457  15.168 -0.0428 -0.3171 -0.2846
69479POPC   PO425720  20.809   7.379  14.810 -0.2421 -0.0240 -0.3560
69479POPC   GL125721  21.075   7.130  14.957  0.3286 -0.0313 -0.3621
69479POPC   GL225722  20.893   6.929  15.083 -0.2124  0.2127 -0.2881
69479POPC   C1A25723  21.526   7.039  14.961  0.2495 -0.3758 -0.1026
69479POPC   D2A25724  21.925   6.963  15.138 -0.2018  0.0855 -0.2389
69479POPC   C3A25725  22.061   6.938  15.529  0.0459  0.0028  0.2097
69479POPC   C4A25726  22.246   6.748  15.880  0.1058  0.2403 -0.2061
69479POPC   C1B25727  21.155   6.696  15.343 -0.1723  0.0839  0.1445
69479POPC   C2B25728  21.330   6.491  15.715  0.1875 -0.0693 -0.2657
69479POPC   C3B25729  21.427   6.447  16.160  0.0228 -0.2116  0.1725
69479POPC   C4B25730  21.297   6.337  16.569  0.2402 -0.0284  0.1176
69480POPC   NC325731  26.215  11.717  10.562  0.1406  0.0255 -0.4962
69480POPC   PO425732  26.251  11.338  10.407  0.1675  0.3279 -0.0792
69480POPC   GL125733  26.225  11.224  10.041  0.3401  0.1091 -0.3614
69480POPC   GL225734  26.532  11.280   9.932  0.0258 -0.0249  0.4921
69480POPC   C1A25735  26.142  11.327   9.610  0.1212 -0.1759  0.0395
69480POPC   D2A25736  26.052  11.125   9.195 -0.0276 -0.0128 -0.0630
69480POPC   C3A25737  26.258  11.001   8.796  0.2073  0.0410  0.1946
69480POPC   C4A25738  26.414  11.056   8.338  0.1416 -0.2316 -0.2437
69480POPC   C1B25739  26.544  10.942   9.616  0.1819  0.0074 -0.0456
69480POPC   C2B25740  26.402  10.661   9.327  0.1310 -0.1875  0.0570
69480POPC   C3B25741  26.031  10.661   9.064 -0.0758 -0.2383 -0.0171
69480POPC   C4B25742  25.925  10.641   8.632 -0.0903  0.0260  0.0878
69481POPC   NC325743  15.725   6.662  15.876 -0.3300  0.2409  0.0671
69481POPC   PO425744  15.366   6.749  15.702  0.3154  0.3111 -0.2795
69481POPC   GL125745  15.206   6.596  16.110 -0.1016 -0.4666  0.1366
69481POPC   GL225746  14.893   6.698  16.081 -0.2704  0.0673 -0.2590
69481POPC   C1A25747  15.106   6.356  16.515 -0.1426  0.1583 -0.0618
69481POPC   D2A25748  15.023   6.192  16.947 -0.1636  0.5245 -0.1632
69481POPC   C3A25749  15.145   6.557  17.233 -0.0385 -0.0496  0.0292
69481POPC   C4A25750  15.330   6.806  17.577 -0.1976 -0.3115  0.1452
69481POPC   C1B25751  14.670   6.489  16.434  0.0261 -0.1011 -0.2300
69481POPC   C2B25752  14.569   6.090  16.679  0.0822  0.0974 -0.1981
69481POPC   C3B25753  14.481   5.882  17.030  0.1310  0.2291 -0.0792
69481POPC   C4B25754  14.500   5.645  17.451  0.1203  0.0085 -0.0670
69482POPC   NC325755  18.774   3.507  15.448  0.0709  0.0750  0.1949
69482POPC   PO425756  18.856   3.637  15.775 -0.0971 -0.1144  0.0202
69482POPC   GL125757  18.975   3.634  16.142 -0.1755 -0.3080  0.1134
69482POPC   GL225758  18.931   3.896  16.212  0.2795 -0.1348  0.3527
69482POPC   C1A25759  18.989   3.619  16.616 -0.1043 -0.0290  0.0542
69482POPC   D2A25760  19.210   3.454  16.994 -0.1445 -0.0196  0.1410
69482POPC   C3A25761  19.162   3.565  17.462  0.0816 -0.1416 -0.0238
69482POPC   C4A25762  19.097   3.741  17.892 -0.3661 -0.0733 -0.0019
69482POPC   C1B25763  19.062   4.239  16.486  0.1408  0.3148  0.3363
69482POPC   C2B25764  19.220   4.526  16.806  0.4495  0.1050 -0.1763
69482POPC   C3B25765  19.547   4.396  17.085 -0.0612 -0.0966 -0.2432
69482POPC   C4B25766  19.803   4.133  17.386  0.0235  0.1639 -0.0217
69483POPC   NC325767  24.496  14.805  15.569 -0.0023 -0.0254 -0.2943
69483POPC   PO425768  24.846  14.704  15.674  0.0852  0.0211 -0.1186
69483POPC   GL125769  24.927  14.942  15.995  0.1675  0.1167  0.1034
69483POPC   GL225770  24.784  15.162  15.877 -0.0631 -0.2538 -0.1303
69483POPC   C1A25771  25.137  14.778  16.372 -0.1966  0.1725  0.1618
69483POPC   D2A25772  25.573  14.771  16.548  0.1378  0.0238 -0.0243
69483POPC   C3A25773  25.339  14.897  16.914 -0.0917  0.3313 -0.1402
69483POPC   C4A25774  24.968  14.941  17.197  0.0456  0.1311 -0.0940
69483POPC   C1B25775  24.883  15.316  16.304 -0.3720 -0.0433  0.4209
69483POPC   C2B25776  24.747  15.588  16.616 -0.2519  0.0856 -0.3006
69483POPC   C3B25777  24.660  15.842  17.003  0.0991 -0.3593  0.2791
69483POPC   C4B25778  24.375  15.774  17.391 -0.0025 -0.1748 -0.0042
69484POPC   NC325779  31.448   5.539  14.656  0.0827  0.0136  0.1660
69484POPC   PO425780  31.208   5.412  14.346  0.2186  0.1132 -0.2257
69484POPC   GL125781  30.889   5.364  14.546 -0.0547 -0.1617 -0.0143
69484POPC   GL225782  30.632   5.504  14.598 -0.0275  0.2011  0.2857
69484POPC   C1A25783  30.808   5.225  15.014 -0.2485 -0.0904  0.0075
69484POPC   D2A25784  30.563   4.890  15.076 -0.2356  0.2262  0.1467
69484POPC   C3A25785  30.129   5.001  15.232 -0.2234 -0.0520  0.2430
69484POPC   C4A25786  29.725   5.111  15.385  0.1845  0.0427 -0.1106
69484POPC   C1B25787  30.300   5.231  14.762  0.1102  0.0266 -0.0788
69484POPC   C2B25788  29.855   5.250  14.845 -0.1776  0.0808  0.0302
69484POPC   C3B25789  29.422   5.195  14.844 -0.2181  0.2915 -0.0118
69484POPC   C4B25790  28.943   5.098  14.739  0.1628  0.1055  0.0583
69485POPC   NC325791  20.886   6.365  12.037 -0.2179 -0.0798 -0.1108
69485POPC   PO425792  20.830   6.656  12.255 -0.0006 -0.2749 -0.1911
69485POPC   GL125793  21.252   6.653  12.096  0.2387  0.0450 -0.1756
69485POPC   GL225794  21.430   6.466  12.235  0.1481 -0.4042  0.1494
69485POPC   C1A25795  21.604   6.926  12.043 -0.0639 -0.2326  0.2914
69485POPC   D2A25796  21.952   7.159  12.227 -0.1593 -0.0534 -0.2713
69485POPC   C3A25797  22.389   7.254  11.968  0.3456 -0.1091 -0.1997
69485POPC   C4A25798  22.766   7.148  11.701 -0.2177 -0.0155  0.2500
69485POPC   C1B25799  21.853   6.422  11.931 -0.2405  0.3043 -0.1688
69485POPC   C2B25800  22.171   6.280  11.679 -0.1213 -0.1651 -0.2807
69485POPC   C3B25801  22.631   6.320  11.526 -0.3609 -0.1623  0.0949
69485POPC   C4B25802  23.032   6.209  11.588  0.1870 -0.1173 -0.0084
69486POPC   NC325803  28.952   9.441  13.342  0.0817  0.2729 -0.0623
69486POPC   PO425804  28.896   9.084  13.432  0.0579  0.1960 -0.1419
69486POPC   GL125805  28.663   8.750  13.403  0.1845  0.1233  0.1006
69486POPC   GL225806  28.402   8.885  13.486  0.0029 -0.4515  0.2664
69486POPC   C1A25807  28.779   8.358  13.148 -0.0227  0.2664  0.2632
69486POPC   D2A25808  28.567   7.919  13.134  0.1153 -0.3882  0.0003
69486POPC   C3A25809  28.207   7.713  12.888  0.1310  0.1100  0.2688
69486POPC   C4A25810  27.833   7.425  12.849  0.2387  0.0113  0.1810
69486POPC   C1B25811  28.270   8.559  13.187 -0.1714  0.0877  0.2220
69486POPC   C2B25812  28.032   8.148  13.283  0.2643 -0.2690  0.0057
69486POPC   C3B25813  27.654   7.802  13.345 -0.1382 -0.3378  0.2051
69486POPC   C4B25814  27.265   7.562  13.460 -0.1192 -0.0560 -0.2390
69487POPC   NC325815  32.083   9.726  16.071 -0.1126 -0.1630  0.0888
69487POPC   PO425816  31.852   9.416  15.889  0.0564 -0.0736  0.1050
69487POPC   GL125817  31.722   9.447  16.268  0.1319 -0.2711 -0.0073
69487POPC   GL225818  31.439   9.287  16.298  0.1008 -0.1219 -0.2534
69487POPC   C1A25819  31.820   9.453  16.713  0.0063 -0.2068 -0.2947
69487POPC   D2A25820  31.814   9.441  17.147  0.1909  0.0649  0.1425
69487POPC   C3A25821  31.478   9.626  17.416 -0.2816 -0.0236  0.0570
69487POPC   C4A25822  31.253   9.512  17.798 -0.0254  0.3342 -0.0256
69487POPC   C1B25823  31.584   9.026  16.652  0.2384 -0.1682  0.1025
69487POPC   C2B25824  31.633   8.973  17.142 -0.2198 -0.1751 -0.1517
69487POPC   C3B25825  31.725   9.119  17.586 -0.1041 -0.0494  0.0083
69487POPC   C4B25826  31.627   9.239  18.013  0.0044 -0.1161 -0.0542
69488POPC   NC325827  25.330  13.950  16.014  0.1211  0.0995 -0.3460
69488POPC   PO425828  25.246  13.760  16.327  0.1163 -0.2497  0.0603
69488POPC   GL125829  25.220  13.685  16.689 -0.0758  0.0108  0.4611
69488POPC   GL225830  25.457  13.615  16.792  0.0644 -0.0981 -0.0422
69488POPC   C1A25831  25.102  13.520  17.119  0.3116  0.0501 -0.0317
69488POPC   D2A25832  25.056  13.721  17.543  0.0468  0.0896 -0.0727
69488POPC   C3A25833  25.416  13.695  17.888  0.1171  0.0389 -0.0266
69488POPC   C4A25834  25.808  13.911  17.937  0.1518 -0.2120 -0.0364
69488POPC   C1B25835  25.367  13.959  17.083  0.1209  0.3740 -0.0728
69488POPC   C2B25836  25.440  14.150  17.527 -0.1118 -0.0644  0.2561
69488POPC   C3B25837  25.424  14.481  17.880 -0.0606 -0.1832  0.1880
69488POPC   C4B25838  25.656  14.590  18.271 -0.0409  0.2330 -0.0491
69489POPC   NC325839  29.467  13.233  16.388 -0.2141  0.4510  0.0273
69489POPC   PO425840  29.202  13.487  16.365  0.3600 -0.0342 -0.1514
69489POPC   GL125841  29.024  13.450  16.750  0.0594 -0.2040 -0.0110
69489POPC   GL225842  28.766  13.661  16.702 -0.0004 -0.3897 -0.2056
69489POPC   C1A25843  28.656  13.230  16.950 -0.1627 -0.0207  0.3885
69489POPC   D2A25844  28.515  13.320  17.439  0.0292  0.0606  0.0152
69489POPC   C3A25845  28.785  13.298  17.800  0.2011  0.0279  0.1310
69489POPC   C4A25846  28.880  13.068  18.214  0.0556  0.0355  0.1463
69489POPC   C1B25847  28.719  13.863  17.137 -0.0127  0.0655 -0.0829
69489POPC   C2B25848  28.646  13.772  17.569 -0.0065  0.0265 -0.2198
69489POPC   C3B25849  28.230  13.672  17.894 -0.0757 -0.0421 -0.0238
69489POPC   C4B25850  28.060  13.606  18.353  0.1710  0.2265  0.2091
69490POPC   NC325851  17.709  10.903  16.407 -0.2250 -0.2574 -0.1547
69490POPC   PO425852  17.573  10.619  16.199  0.1882  0.1755 -0.2611
69490POPC   GL125853  17.834  10.521  16.563 -0.1682 -0.0303  0.0119
69490POPC   GL225854  18.121  10.663  16.559  0.0820  0.0338 -0.3141
69490POPC   C1A25855  17.766  10.792  16.919 -0.1258 -0.3921  0.1418
69490POPC   D2A25856  17.652  11.252  16.914 -0.0937  0.0711 -0.0036
69490POPC   C3A25857  17.648  11.447  17.335 -0.1855  0.4000 -0.3388
69490POPC   C4A25858  17.849  11.385  17.718 -0.0949 -0.2856  0.1065
69490POPC   C1B25859  18.269  10.745  16.971  0.1049  0.1798 -0.4147
69490POPC   C2B25860  18.304  10.766  17.432  0.0625 -0.1499  0.2078
69490POPC   C3B25861  18.357  10.982  17.823  0.0699  0.0652  0.0878
69490POPC   C4B25862  18.062  10.817  18.108  0.0199 -0.0172 -0.1220
69491POPC   NC325863  15.632  10.584  16.472  0.2468 -0.4594 -0.0630
69491POPC   PO425864  15.769  10.884  16.329  0.0202  0.1951  0.2635
69491POPC   GL125865  15.810  10.937  16.726 -0.0903 -0.5711  0.1983
69491POPC   GL225866  15.778  10.730  16.929  0.2579  0.2028  0.2680
69491POPC   C1A25867  15.945  11.139  17.147 -0.0071 -0.1928  0.1874
69491POPC   D2A25868  15.897  11.367  17.534  0.2471  0.1215 -0.1236
69491POPC   C3A25869  16.086  11.300  17.965 -0.0126  0.0052  0.0350
69491POPC   C4A25870  16.270  11.245  18.387  0.0014  0.0223  0.3133
69491POPC   C1B25871  15.595  10.808  17.342 -0.5168 -0.1067 -0.1678
69491POPC   C2B25872  15.520  11.049  17.700 -0.1106 -0.2739  0.3751
69491POPC   C3B25873  15.480  11.116  18.179  0.1579  0.0641  0.0129
69491POPC   C4B25874  15.670  11.156  18.608 -0.0118 -0.1749  0.0418
69492POPC   NC325875  31.090  11.672  15.903  0.0123 -0.1532  0.1876
69492POPC   PO425876  31.256  11.604  16.272 -0.3225 -0.3536 -0.0220
69492POPC   GL125877  31.319  11.580  16.652 -0.1721  0.0550  0.2700
69492POPC   GL225878  31.058  11.735  16.753 -0.4109  0.2218  0.1392
69492POPC   C1A25879  31.498  11.617  17.069 -0.3131 -0.1346  0.0824
69492POPC   D2A25880  31.522  11.649  17.527 -0.4199 -0.1758  0.0545
69492POPC   C3A25881  31.199  11.866  17.800  0.1502 -0.0883 -0.3019
69492POPC   C4A25882  30.981  11.842  18.247  0.4258  0.3493 -0.1252
69492POPC   C1B25883  30.967  11.308  16.961 -0.0983 -0.0746  0.0154
69492POPC   C2B25884  31.061  11.064  17.321 -0.1569 -0.0240 -0.0221
69492POPC   C3B25885  31.074  10.760  17.643  0.2576 -0.1703 -0.1346
69492POPC   C4B25886  31.036  10.368  17.871 -0.2076  0.0169  0.0514
69493POPC   NC325887  27.164  13.701  16.260  0.0412  0.1403  0.0427
69493POPC   PO425888  27.444  13.477  16.071  0.0345  0.3804 -0.2127
69493POPC   GL125889  27.605  13.284  16.352 -0.2520  0.2788 -0.3257
69493POPC   GL225890  27.387  13.324  16.562 -0.1152 -0.1561 -0.0328
69493POPC   C1A25891  27.832  13.463  16.768 -0.1406  0.1069 -0.1238
69493POPC   D2A25892  27.761  13.620  17.197  0.2003  0.1791  0.0202
69493POPC   C3A25893  27.842  13.701  17.627  0.2867 -0.3358  0.1144
69493POPC   C4A25894  27.857  13.965  18.059 -0.2238 -0.2069  0.2348
69493POPC   C1B25895  27.417  13.248  17.046 -0.0352  0.1613 -0.1026
69493POPC   C2B25896  27.087  13.104  17.366  0.0689  0.0084  0.1936
69493POPC   C3B25897  26.944  12.943  17.805 -0.3490 -0.0473  0.0868
69493POPC   C4B25898  27.129  12.720  18.136  0.2413 -0.2648  0.4303
69494POPC   NC325899  19.820   0.554  15.613 -0.0897 -0.1906  0.3344
69494POPC   PO425900  19.864   0.800  15.922  0.3213 -0.1660 -0.1437
69494POPC   GL125901  20.004   0.912  16.297  0.0025  0.0627  0.2563
69494POPC   GL225902  20.034   0.593  16.332 -0.2244 -0.3227  0.2314
69494POPC   C1A25903  19.796   0.729  16.711 -0.0167  0.1050 -0.1493
69494POPC   D2A25904  19.593   0.342  16.894 -0.0421 -0.2103 -0.0260
69494POPC   C3A25905  19.558   0.433  17.315  0.0174  0.0829  0.0545
69494POPC   C4A25906  19.396   0.533  17.736  0.0529 -0.0152 -0.1816
69494POPC   C1B25907  20.424   0.732  16.604  0.1100 -0.2279  0.1808
69494POPC   C2B25908  20.837   0.842  16.894  0.2040  0.0984  0.2264
69494POPC   C3B25909  21.247   0.943  17.119 -0.1305 -0.0694  0.3080
69494POPC   C4B25910  21.526   0.845  17.456 -0.0105 -0.2018 -0.1311
69495POPC   NC325911  27.225  10.765  11.346  0.2801  0.3539 -0.1502
69495POPC   PO425912  26.944  10.882  11.139  0.2277 -0.1171 -0.2166
69495POPC   GL125913  26.811  10.495  11.053 -0.2395 -0.3040 -0.0821
69495POPC   GL225914  26.768  10.523  10.788  0.1949 -0.1008  0.1694
69495POPC   C1A25915  26.614  10.067  10.965 -0.0455  0.2370  0.1094
69495POPC   D2A25916  26.486   9.959  10.509  0.1392 -0.4328 -0.0274
69495POPC   C3A25917  26.799   9.884  10.164 -0.1502 -0.2465  0.1320
69495POPC   C4A25918  26.847   9.461  10.088 -0.3607  0.0834 -0.0700
69495POPC   C1B25919  27.020  10.099  10.689 -0.0955 -0.0978 -0.0638
69495POPC   C2B25920  27.079   9.634  10.689  0.0282  0.1461  0.0533
69495POPC   C3B25921  27.001   9.212  10.517 -0.0068  0.0521 -0.3155
69495POPC   C4B25922  27.030   8.770  10.462  0.0459  0.2475  0.2541
69496POPC   NC325923  27.992  13.574  16.183  0.1844  0.0009 -0.2929
69496POPC   PO425924  28.329  13.675  16.372 -0.2935 -0.0874 -0.1946
69496POPC   GL125925  28.256  13.886  16.711  0.3330  0.3112  0.1826
69496POPC   GL225926  28.300  13.701  16.902  0.1867  0.2405  0.6614
69496POPC   C1A25927  28.317  14.278  16.951  0.1106 -0.1582  0.0398
69496POPC   D2A25928  28.410  14.448  17.385  0.0426  0.3007  0.2128
69496POPC   C3A25929  28.795  14.236  17.473  0.2558 -0.1279  0.3770
69496POPC   C4A25930  29.156  14.102  17.247  0.1219 -0.0846  0.3723
69496POPC   C1B25931  28.201  13.830  17.288  0.3113  0.0336  0.0457
69496POPC   C2B25932  28.100  14.150  17.599 -0.0620 -0.0111  0.1554
69496POPC   C3B25933  28.148  14.440  17.958 -0.0862 -0.2069 -0.2251
69496POPC   C4B25934  28.041  14.318  18.407 -0.0400 -0.0816  0.1121
69497POPC   NC325935  32.124  12.868  16.783  0.3332 -0.0284  0.0635
69497POPC   PO425936  32.120  12.520  16.591 -0.0496 -0.1566 -0.3432
69497POPC   GL125937  31.964  12.284  16.910 -0.0638  0.2222 -0.2621
69497POPC   GL225938  31.726  12.198  16.782 -0.3977 -0.1789 -0.1549
69497POPC   C1A25939  32.166  12.293  17.348 -0.0775 -0.0994 -0.0527
69497POPC   D2A25940  32.268  12.269  17.788 -0.1225  0.1136 -0.1178
69497POPC   C3A25941  32.190  12.646  18.046  0.0972 -0.0912  0.2689
69497POPC   C4A25942  32.546  12.826  18.333 -0.2974 -0.1401  0.0269
69497POPC   C1B25943  31.659  12.096  17.198  0.2973  0.2479 -0.0962
69497POPC   C2B25944  31.611  12.115  17.671 -0.0936  0.1568  0.0224
69497POPC   C3B25945  31.593  11.974  18.093  0.1859  0.2508  0.1685
69497POPC   C4B25946  31.555  12.074  18.557 -0.0667  0.0360 -0.3898
69498POPC   NC325947  31.753   2.674  15.220  0.1694 -0.2180  0.3573
69498POPC   PO425948  31.728   2.997  15.469 -0.0985  0.0448 -0.1393
69498POPC   GL125949  31.390   2.884  15.750  0.0010  0.0155 -0.2968
69498POPC   GL225950  31.179   2.899  15.592  0.0847 -0.2931 -0.0051
69498POPC   C1A25951  31.070   2.807  16.071  0.2093 -0.0358 -0.0456
69498POPC   D2A25952  30.823   2.597  16.369 -0.1003  0.3277  0.1299
69498POPC   C3A25953  30.458   2.354  16.248  0.1713 -0.1339 -0.1923
69498POPC   C4A25954  30.469   2.153  15.816  0.2971 -0.0404  0.0936
69498POPC   C1B25955  30.778   3.175  15.665  0.1108 -0.1725  0.2216
69498POPC   C2B25956  30.529   3.423  16.019  0.1579 -0.2869  0.0380
69498POPC   C3B25957  30.220   3.399  16.378 -0.0538  0.2229 -0.1528
69498POPC   C4B25958  30.216   3.460  16.839 -0.0334  0.0386 -0.2416
69499POPC   NC325959  22.564  31.400  15.103 -0.0313 -0.0318  0.0018
69499POPC   PO425960  22.556  31.428  15.512 -0.2737  0.0489 -0.0818
69499POPC   GL125961  22.540  31.780  15.644  0.0601  0.1140  0.0173
69499POPC   GL225962  22.273  31.838  15.572  0.1138  0.3904 -0.0594
69499POPC   C1A25963  22.687  32.162  15.816  0.0226  0.1160  0.2218
69499POPC   D2A25964  22.881  32.456  16.121  0.1085  0.0367 -0.5059
69499POPC   C3A25965  22.813  32.915  16.149 -0.1182 -0.1107 -0.1697
69499POPC   C4A25966  23.098  33.121  16.450 -0.0712 -0.0751 -0.0561
69499POPC   C1B25967  22.182  32.166  15.919 -0.1734 -0.0328  0.1672
69499POPC   C2B25968  22.456  32.186  16.254  0.0365  0.0491  0.0711
69499POPC   C3B25969  22.556  32.439  16.584 -0.0857  0.1678  0.0403
69499POPC   C4B25970  22.664  32.851  16.814  0.3591 -0.2980  0.0861
69500POPC   NC325971  19.406  13.986  16.544  0.2187 -0.0701  0.0853
69500POPC   PO425972  19.490  14.383  16.458 -0.0851  0.2670 -0.1898
69500POPC   GL125973  19.555  14.576  16.825  0.3777  0.3220 -0.1806
69500POPC   GL225974  19.524  14.806  16.915  0.1346  0.1190 -0.1279
69500POPC   C1A25975  19.850  14.530  17.218 -0.0830  0.0837 -0.2922
69500POPC   D2A25976  19.975  14.627  17.593  0.1415  0.0060 -0.1138
69500POPC   C3A25977  20.261  14.473  17.989  0.3872 -0.2046  0.2594
69500POPC   C4A25978  20.213  14.233  18.366 -0.0103 -0.1357 -0.0332
69500POPC   C1B25979  19.645  14.980  17.326  0.3052 -0.1391  0.2161
69500POPC   C2B25980  19.320  15.148  17.663 -0.3527 -0.0452  0.1126
69500POPC   C3B25981  19.507  15.421  18.043  0.1823 -0.4504 -0.2480
69500POPC   C4B25982  19.310  15.563  18.397  0.0654  0.0844  0.1469
69501POPC   NC325983  30.196  13.750  16.633 -0.1498  0.3503  0.0767
69501POPC   PO425984  29.907  13.452  16.724  0.2259  0.1868  0.0285
69501POPC   GL125985  29.603  13.443  16.944  0.2706  0.2629 -0.1524
69501POPC   GL225986  29.468  13.180  16.856  0.1782 -0.0250 -0.3708
69501POPC   C1A25987  29.648  13.552  17.387  0.0852  0.1034  0.0700
69501POPC   D2A25988  29.784  13.711  17.790 -0.1608  0.0454 -0.0864
69501POPC   C3A25989  29.643  13.690  18.218 -0.2133  0.0748  0.1141
69501POPC   C4A25990  29.306  13.639  18.485 -0.2915 -0.0347 -0.0436
69501POPC   C1B25991  29.115  12.923  17.091 -0.0794 -0.0228  0.0854
69501POPC   C2B25992  29.097  13.029  17.526 -0.1014  0.1589 -0.2697
69501POPC   C3B25993  29.232  12.793  17.880  0.0357  0.0687 -0.3399
69501POPC   C4B25994  29.352  12.733  18.313  0.1897  0.0423  0.2359
69502POPC   NC325995  26.804  11.693   9.849 -0.1872 -0.1276  0.1886
69502POPC   PO425996  26.892  11.500  10.186  0.1606 -0.0832 -0.0947
69502POPC   GL125997  26.976  11.047  10.142 -0.2050  0.2804  0.0129
69502POPC   GL225998  26.794  10.856  10.111  0.0255  0.1125 -0.2907
69502POPC   C1A25999  27.204  10.685   9.923 -0.1425  0.1951 -0.0770
69502POPC   D2A26000  27.183  10.490   9.494  0.2700  0.2718 -0.0295
69502POPC   C3A26001  26.905  10.390   9.111  0.3119 -0.2724 -0.1727
69502POPC   C4A26002  26.578  10.625   8.827  0.0554 -0.0399  0.1477
69502POPC   C1B26003  26.783  10.559   9.776 -0.4391 -0.0630 -0.0519
69502POPC   C2B26004  26.780  10.199   9.580  0.4392 -0.0415 -0.1120
69502POPC   C3B26005  26.485   9.808   9.504 -0.3339  0.0370  0.1100
69502POPC   C4B26006  26.202   9.507   9.302  0.0053 -0.1169 -0.0869
69503POPC   NC326007  21.664   0.512  14.817  0.1076 -0.2343  0.0118
69503POPC   PO426008  22.065   0.652  14.800 -0.0111  0.0544 -0.0307
69503POPC   GL126009  22.361   0.967  14.849  0.2268 -0.2383  0.0627
69503POPC   GL226010  22.270   1.042  15.084  0.3331 -0.1831 -0.2031
69503POPC   C1A26011  22.788   0.911  15.012  0.0215 -0.1783  0.3726
69503POPC   D2A26012  23.118   1.073  15.253  0.1268  0.1571  0.1717
69503POPC   C3A26013  23.421   1.456  15.295  0.3119  0.0030  0.0693
69503POPC   C4A26014  23.877   1.542  15.336  0.1447 -0.0328  0.4831
69503POPC   C1B26015  22.106   1.367  15.344  0.0186 -0.1365  0.2713
69503POPC   C2B26016  22.292   1.477  15.744 -0.2649 -0.1591  0.2176
69503POPC   C3B26017  22.681   1.434  15.988  0.1154 -0.2302  0.2084
69503POPC   C4B26018  22.808   1.494  16.386 -0.0691  0.1024  0.0947
69504POPC   NC326019  18.541   3.964  15.855  0.0440 -0.2428 -0.0001
69504POPC   PO426020  18.400   4.297  15.700  0.1952 -0.1225  0.1255
69504POPC   GL126021  18.055   4.275  16.044 -0.2389  0.0345 -0.4071
69504POPC   GL226022  18.047   4.492  16.199  0.0331 -0.0303 -0.0454
69504POPC   C1A26023  18.135   3.959  16.348 -0.2172 -0.2749 -0.0142
69504POPC   D2A26024  18.172   4.012  16.827 -0.1040 -0.1482  0.2217
69504POPC   C3A26025  18.264   4.381  17.113  0.2006 -0.1476  0.2025
69504POPC   C4A26026  18.556   4.589  17.446 -0.2154 -0.2427  0.1835
69504POPC   C1B26027  17.936   4.547  16.642 -0.7091 -0.2188 -0.2805
69504POPC   C2B26028  17.934   4.731  17.085 -0.3522  0.0107 -0.1866
69504POPC   C3B26029  17.960   4.703  17.542 -0.2152 -0.0893 -0.2646
69504POPC   C4B26030  17.937   4.805  18.026 -0.1740 -0.0959 -0.1135
69505POPC   NC326031  20.119  10.213   8.570 -0.1652  0.3619 -0.0031
69505POPC   PO426032  20.001   9.915   8.826  0.1526 -0.3165  0.1596
69505POPC   GL126033  20.209   9.674   8.579  0.1233 -0.0010 -0.2974
69505POPC   GL226034  20.408   9.658   8.355  0.3292  0.1163 -0.0199
69505POPC   C1A26035  20.234   9.216   8.704  0.1465  0.1912 -0.0476
69505POPC   D2A26036  20.371   8.901   8.428  0.0141 -0.1627 -0.1381
69505POPC   C3A26037  20.751   8.847   8.146  0.2372 -0.1037  0.2032
69505POPC   C4A26038  20.959   8.593   7.818  0.0642 -0.0599  0.3751
69505POPC   C1B26039  20.493   9.250   8.081  0.3341 -0.1676 -0.0473
69505POPC   C2B26040  20.319   9.004   7.674 -0.0239 -0.1220 -0.0592
69505POPC   C3B26041  20.219   8.659   7.368 -0.2908 -0.1381 -0.0424
69505POPC   C4B26042  20.014   8.267   7.429  0.0236  0.2171  0.0300
69506POPC   NC326043  31.526   7.729  15.575 -0.0629 -0.0076  0.0689
69506POPC   PO426044  31.419   7.643  15.214  0.2699 -0.0656 -0.1320
69506POPC   GL126045  31.321   7.272  15.159 -0.2146  0.1856 -0.4960
69506POPC   GL226046  31.059   7.310  15.353 -0.2302 -0.2387  0.0093
69506POPC   C1A26047  31.263   6.844  15.327  0.1555 -0.3232  0.0109
69506POPC   D2A26048  31.026   6.524  15.174  0.1375  0.1651  0.1006
69506POPC   C3A26049  30.639   6.468  15.426 -0.1229  0.0925  0.0490
69506POPC   C4A26050  30.245   6.469  15.601  0.2169  0.1831 -0.1644
69506POPC   C1B26051  30.882   7.322  15.814  0.1879  0.0882 -0.1981
69506POPC   C2B26052  30.761   7.033  16.191  0.0241  0.0823 -0.1131
69506POPC   C3B26053  30.674   6.695  16.542 -0.1047 -0.2245 -0.1721
69506POPC   C4B26054  30.500   6.537  16.916  0.0174 -0.1409  0.0990
69507POPC   NC326055  27.782  10.715  10.643  0.1816 -0.1514 -0.0054
69507POPC   PO426056  28.048  10.599  10.861 -0.1593  0.0224 -0.2571
69507POPC   GL126057  28.169  10.231  10.877 -0.0564  0.0268 -0.1541
69507POPC   GL226058  28.360  10.149  11.115  0.3280 -0.0610 -0.2153
69507POPC   C1A26059  28.056   9.962  10.539 -0.0690  0.2869  0.2010
69507POPC   D2A26060  28.182   9.592  10.250  0.3329 -0.0391  0.2016
69507POPC   C3A26061  27.748   9.788  10.159 -0.0281  0.2370 -0.0131
69507POPC   C4A26062  27.320   9.881  10.323  0.0995 -0.1219  0.0098
69507POPC   C1B26063  28.233   9.775  10.955  0.0091  0.1961  0.1451
69507POPC   C2B26064  28.219   9.361  10.725 -0.0744  0.0202  0.0776
69507POPC   C3B26065  28.105   9.106  10.367 -0.0404 -0.0763  0.1005
69507POPC   C4B26066  27.828   8.721  10.298 -0.2175  0.0650 -0.0986
69508POPC   NC326067  17.666  12.805  16.521  0.0507  0.0236  0.0971
69508POPC   PO426068  17.620  13.196  16.616 -0.1778  0.0716 -0.1016
69508POPC   GL126069  17.621  12.997  16.983  0.2514 -0.4079 -0.0080
69508POPC   GL226070  17.856  13.055  17.160  0.2168  0.1600 -0.0281
69508POPC   C1A26071  17.506  12.777  17.338  0.1807 -0.2116  0.0774
69508POPC   D2A26072  17.128  12.581  17.475 -0.0865  0.0508 -0.0850
69508POPC   C3A26073  17.107  12.271  17.791  0.0840  0.0219 -0.0481
69508POPC   C4A26074  17.353  11.941  18.005  0.4950  0.1256 -0.2524
69508POPC   C1B26075  18.048  12.910  17.583  0.0025  0.1901 -0.4073
69508POPC   C2B26076  18.148  12.765  17.987 -0.1248 -0.1809 -0.0590
69508POPC   C3B26077  18.270  12.599  18.428 -0.1161  0.1845 -0.0244
69508POPC   C4B26078  17.966  12.459  18.791 -0.2005  0.1000 -0.0049
69509POPC   NC326079  25.465  12.445  16.240 -0.1316  0.0451 -0.1237
69509POPC   PO426080  25.525  12.189  16.524 -0.0302  0.0766 -0.1742
69509POPC   GL126081  25.375  12.176  16.908 -0.1204 -0.0850 -0.0907
69509POPC   GL226082  25.579  12.132  17.099  0.0195  0.0275  0.0978
69509POPC   C1A26083  25.091  12.099  17.291  0.0364  0.2707 -0.0259
69509POPC   D2A26084  24.813  12.239  17.613  0.4220 -0.0864 -0.3235
69509POPC   C3A26085  25.046  12.472  17.932 -0.2548 -0.2405  0.3393
69509POPC   C4A26086  25.426  12.666  18.023  0.1744  0.2920 -0.0312
69509POPC   C1B26087  25.531  11.791  17.418  0.0713 -0.1125 -0.0907
69509POPC   C2B26088  25.689  11.459  17.654 -0.1103  0.0257  0.1091
69509POPC   C3B26089  25.707  11.037  17.897 -0.0678  0.0626  0.2903
69509POPC   C4B26090  25.990  10.893  18.257  0.3026  0.3625 -0.0102
69510POPC   NC326091  30.498  12.502  16.309  0.0866  0.3349  0.2845
69510POPC   PO426092  30.449  12.137  16.181  0.0508 -0.1008 -0.2665
69510POPC   GL126093  30.347  12.000  16.536  0.2674 -0.0737 -0.2331
69510POPC   GL226094  30.511  11.822  16.592 -0.1905 -0.0812 -0.0491
69510POPC   C1A26095  30.067  11.768  16.844 -0.0543  0.0457  0.0200
69510POPC   D2A26096  29.839  11.682  17.257  0.0427  0.0096 -0.2831
69510POPC   C3A26097  29.543  11.656  17.598  0.0735  0.0795 -0.0653
69510POPC   C4A26098  29.619  11.818  18.056 -0.0906  0.0579 -0.1558
69510POPC   C1B26099  30.523  11.514  16.959  0.1930  0.0542 -0.0523
69510POPC   C2B26100  30.607  11.402  17.415  0.1018 -0.2033 -0.3873
69510POPC   C3B26101  30.671  11.667  17.725 -0.1004 -0.5973  0.2027
69510POPC   C4B26102  30.510  11.665  18.150 -0.1158  0.2629 -0.3278
69511POPC   NC326103  17.320  14.931  16.354 -0.1620 -0.0605 -0.1334
69511POPC   PO426104  17.159  14.597  16.427 -0.0277 -0.0778  0.2945
69511POPC   GL126105  17.099  14.716  16.812  0.3742  0.2851  0.0263
69511POPC   GL226106  17.429  14.691  16.834  0.1915  0.0624 -0.0632
69511POPC   C1A26107  16.989  14.432  17.179 -0.0438  0.0788  0.0783
69511POPC   D2A26108  16.867  14.312  17.604  0.3245 -0.1543  0.3531
69511POPC   C3A26109  17.092  14.616  17.886  0.2133  0.1379 -0.0433
69511POPC   C4A26110  17.299  15.014  17.844  0.2643  0.0091 -0.2427
69511POPC   C1B26111  17.250  14.817  17.273 -0.1784  0.0408  0.1363
69511POPC   C2B26112  16.972  15.096  17.497  0.0294  0.0567  0.0167
69511POPC   C3B26113  16.790  15.270  17.881 -0.0124 -0.0951 -0.0368
69511POPC   C4B26114  16.324  15.314  18.032 -0.1699 -0.0043 -0.2946
69512POPC   NC326115  30.231   0.776  15.694 -0.1265 -0.3407  0.2380
69512POPC   PO426116  30.400   0.671  16.020 -0.2924 -0.0680 -0.0182
69512POPC   GL126117  30.222   0.656  16.400 -0.3398  0.1929  0.0557
69512POPC   GL226118  29.986   0.658  16.279 -0.0439  0.1584  0.1470
69512POPC   C1A26119  30.262   0.794  16.844  0.2635 -0.1381  0.0992
69512POPC   D2A26120  30.535   0.968  17.194  0.1138 -0.1496 -0.1189
69512POPC   C3A26121  30.354   1.357  17.488  0.2125 -0.0784  0.2150
69512POPC   C4A26122  30.436   1.397  17.969  0.2181 -0.2874 -0.0468
69512POPC   C1B26123  29.830   0.972  16.565  0.2009  0.0772  0.0357
69512POPC   C2B26124  29.665   1.370  16.822  0.4447 -0.0516  0.2720
69512POPC   C3B26125  29.449   1.687  17.096 -0.3863  0.3699  0.2583
69512POPC   C4B26126  29.080   1.637  17.344 -0.0117  0.0342  0.0956
69513POPC   NC326127  25.502  10.742  13.123  0.3484 -0.0481  0.2655
69513POPC   PO426128  25.272  10.438  12.982 -0.3014 -0.2890 -0.1019
69513POPC   GL126129  25.414   9.951  12.961 -0.0688 -0.0118 -0.3609
69513POPC   GL226130  25.659   9.949  12.747  0.0406  0.2999 -0.1986
69513POPC   C1A26131  25.557   9.482  12.962 -0.0495 -0.4344  0.1315
69513POPC   D2A26132  25.474   9.039  12.974  0.0548 -0.0867 -0.1168
69513POPC   C3A26133  25.358   8.686  12.706  0.0761 -0.1408 -0.0722
69513POPC   C4A26134  25.241   8.224  12.811 -0.1952  0.0377  0.1170
69513POPC   C1B26135  25.441   9.602  12.525 -0.1404  0.1753 -0.0475
69513POPC   C2B26136  25.605   9.134  12.480 -0.0177  0.0909  0.2406
69513POPC   C3B26137  25.867   8.720  12.339 -0.0400  0.4259 -0.1558
69513POPC   C4B26138  26.076   8.543  12.088 -0.1017  0.0106  0.1493
69514POPC   NC326139  16.895   7.742  15.674  0.0418  0.0600 -0.2038
69514POPC   PO426140  16.715   7.970  15.950  0.1616  0.0852  0.0764
69514POPC   GL126141  16.787   8.131  16.392  0.3523 -0.1179 -0.0568
69514POPC   GL226142  17.039   8.202  16.357  0.3370 -0.0535  0.0074
69514POPC   C1A26143  16.598   8.149  16.861 -0.3615  0.1270  0.0163
69514POPC   D2A26144  16.149   8.128  17.044 -0.0102 -0.3114 -0.1378
69514POPC   C3A26145  16.014   8.146  17.463 -0.0658  0.0780 -0.0924
69514POPC   C4A26146  16.232   8.110  17.816  0.1343  0.4157  0.0058
69514POPC   C1B26147  17.000   7.908  16.727 -0.4124  0.0368 -0.0443
69514POPC   C2B26148  17.073   7.937  17.180  0.1947 -0.1349 -0.1735
69514POPC   C3B26149  17.112   7.972  17.653 -0.1449 -0.1797  0.0172
69514POPC   C4B26150  17.264   8.131  18.076 -0.3374  0.2827  0.3462
69515POPC   NC326151  24.728  10.840  11.329 -0.0359 -0.1253  0.0065
69515POPC   PO426152  24.874  10.873  10.979 -0.0106  0.0203  0.0020
69515POPC   GL126153  24.996  10.523  11.075  0.0363  0.0583  0.1694
69515POPC   GL226154  24.857  10.291  10.907  0.0091  0.1170  0.1350
69515POPC   C1A26155  25.316  10.195  11.132 -0.1708 -0.2748 -0.2105
69515POPC   D2A26156  25.591   9.971  10.821 -0.1249  0.1427  0.1207
69515POPC   C3A26157  25.561   9.561  10.768 -0.1771 -0.2978 -0.1978
69515POPC   C4A26158  25.613   9.161  10.823  0.3017 -0.0055 -0.2597
69515POPC   C1B26159  24.941   9.844  10.858  0.1796  0.1195  0.0592
69515POPC   C2B26160  25.092   9.437  10.762 -0.2500  0.2866  0.2299
69515POPC   C3B26161  25.193   8.958  10.597  0.1993  0.0566 -0.1790
69515POPC   C4B26162  25.125   8.609  10.372 -0.2084  0.2622 -0.0747
69516POPC   NC326163   0.014   1.976  16.115  0.0415  0.0799 -0.0154
69516POPC   PO426164  -0.280   1.699  16.088 -0.2418  0.0370 -0.2000
69516POPC   GL126165  -0.475   1.704  16.477 -0.0210 -0.3596 -0.3526
69516POPC   GL226166  -0.637   1.945  16.538  0.1610  0.0872  0.0583
69516POPC   C1A26167  -0.323   1.839  16.868  0.0944  0.1407 -0.2809
69516POPC   D2A26168  -0.232   2.148  17.178  0.2977 -0.1565  0.1851
69516POPC   C3A26169  -0.309   2.561  17.153  0.0648  0.2280  0.0406
69516POPC   C4A26170  -0.428   2.928  17.449  0.1426  0.1615  0.1448
69516POPC   C1B26171  -0.785   1.686  16.914 -0.4220  0.1376  0.2889
69516POPC   C2B26172  -1.075   1.618  17.273  0.0263  0.3014  0.3823
69516POPC   C3B26173  -1.218   1.431  17.689 -0.0248  0.0463 -0.0574
69516POPC   C4B26174  -1.286   1.001  17.778  0.2784 -0.0986  0.1249
69517POPC   NC326175  19.280   3.840  15.310  0.1484 -0.0966 -0.0091
69517POPC   PO426176  19.561   3.595  15.169  0.1563  0.0517  0.1474
69517POPC   GL126177  19.718   3.547  15.542  0.2314 -0.4720  0.0956
69517POPC   GL226178  19.765   3.828  15.656  0.0050  0.0079 -0.5287
69517POPC   C1A26179  19.806   3.348  15.927  0.0418 -0.2192 -0.1253
69517POPC   D2A26180  19.866   3.413  16.365 -0.2309  0.0413 -0.0426
69517POPC   C3A26181  19.857   3.742  16.659  0.3746  0.0125  0.0684
69517POPC   C4A26182  20.012   4.043  16.929 -0.0491 -0.0824 -0.1821
69517POPC   C1B26183  19.982   3.829  16.082 -0.2730 -0.0931 -0.0085
69517POPC   C2B26184  20.281   3.749  16.467 -0.0016 -0.1581 -0.0749
69517POPC   C3B26185  20.419   3.756  16.913 -0.0052  0.2715 -0.1827
69517POPC   C4B26186  20.389   3.858  17.402  0.0547  0.2342 -0.0440
69518POPC   NC326187  30.365   1.621  13.802 -0.0402  0.1097  0.1829
69518POPC   PO426188  30.032   1.790  13.716  0.0069 -0.2373  0.0931
69518POPC   GL126189  29.908   2.123  13.913 -0.1737  0.0093 -0.1302
69518POPC   GL226190  29.621   2.070  13.847 -0.1077 -0.4283  0.2179
69518POPC   C1A26191  29.841   2.259  14.343  0.2933 -0.0560 -0.1609
69518POPC   D2A26192  29.487   2.202  14.660 -0.0824  0.0346 -0.0262
69518POPC   C3A26193  29.239   2.334  14.978 -0.1315  0.1435 -0.1050
69518POPC   C4A26194  29.015   2.067  15.292 -0.0997  0.0962  0.0984
69518POPC   C1B26195  29.368   2.351  14.136  0.1731  0.0129  0.1175
69518POPC   C2B26196  29.033   2.479  14.448  0.1674 -0.0011  0.1025
69518POPC   C3B26197  28.786   2.759  14.744  0.1188  0.2195 -0.2171
69518POPC   C4B26198  28.347   2.754  14.783 -0.4911 -0.1278  0.0982
69519POPC   NC326199  24.550  14.309  15.486 -0.0900  0.2329 -0.1565
69519POPC   PO426200  24.313  14.269  15.843  0.0652  0.0075  0.0763
69519POPC   GL126201  24.235  14.632  16.174 -0.2672 -0.3474 -0.1552
69519POPC   GL226202  24.338  14.887  16.027 -0.1401 -0.1785  0.2696
69519POPC   C1A26203  24.229  14.493  16.632  0.3942  0.0350 -0.3190
69519POPC   D2A26204  24.052  14.508  17.065  0.0303  0.1375  0.1586
69519POPC   C3A26205  23.934  14.885  17.344  0.0968 -0.0803  0.0418
69519POPC   C4A26206  24.029  15.298  17.496 -0.0275 -0.0117  0.2692
69519POPC   C1B26207  24.579  14.933  16.394 -0.2550 -0.2294  0.1381
69519POPC   C2B26208  24.795  15.102  16.757  0.2100 -0.2492  0.0656
69519POPC   C3B26209  25.037  15.445  16.977 -0.1453  0.0850 -0.1426
69519POPC   C4B26210  25.149  15.790  17.138  0.3609  0.1801  0.1178
69520POPC   NC326211  23.151   9.170  13.900  0.0629  0.2354 -0.1872
69520POPC   PO426212  23.032   9.295  14.266  0.0098  0.0524 -0.0101
69520POPC   GL126213  23.174   8.907  14.263  0.0962 -0.2771 -0.1028
69520POPC   GL226214  23.013   8.714  14.069 -0.4046 -0.1991 -0.1366
69520POPC   C1A26215  23.194   8.556  14.575  0.1819  0.4386 -0.0946
69520POPC   D2A26216  23.167   8.120  14.737 -0.5048 -0.5054 -0.2059
69520POPC   C3A26217  23.461   7.839  14.984 -0.0182 -0.0169  0.0612
69520POPC   C4A26218  23.836   7.726  15.167  0.0561 -0.4640 -0.0598
69520POPC   C1B26219  22.947   8.284  13.881 -0.1018  0.1044  0.3033
69520POPC   C2B26220  23.075   7.890  13.720 -0.1150 -0.2369  0.1379
69520POPC   C3B26221  23.023   7.440  13.549 -0.0727  0.0073  0.0444
69520POPC   C4B26222  23.131   7.243  13.138 -0.1979 -0.1766  0.0768
69521POPC   NC326223  21.828  15.624  16.338  0.2652 -0.0138 -0.0143
69521POPC   PO426224  21.441  15.612  16.349  0.1469  0.0308  0.0226
69521POPC   GL126225  21.174  15.673  16.631 -0.1388 -0.0166 -0.0079
69521POPC   GL226226  21.355  15.609  16.892  0.3402  0.0638  0.0183
69521POPC   C1A26227  20.903  15.605  17.034  0.0656 -0.1950 -0.1610
69521POPC   D2A26228  20.558  15.376  17.346 -0.1307  0.0019  0.0218
69521POPC   C3A26229  20.816  15.152  17.663 -0.1032 -0.1282 -0.0750
69521POPC   C4A26230  20.535  14.902  18.005 -0.2371  0.2026  0.0340
69521POPC   C1B26231  21.248  15.855  17.247 -0.0868 -0.3168 -0.1266
69521POPC   C2B26232  21.282  16.168  17.613 -0.0450  0.1527  0.4376
69521POPC   C3B26233  21.222  15.941  18.017 -0.1613  0.1841 -0.1255
69521POPC   C4B26234  21.181  15.782  18.430  0.1327 -0.0063 -0.1399
69522POPC   NC326235  30.191   7.925  15.048  0.2479  0.0352 -0.1778
69522POPC   PO426236  30.139   8.336  15.076 -0.1711  0.0604  0.0690
69522POPC   GL126237  29.841   8.155  15.295 -0.1906 -0.5724  0.0863
69522POPC   GL226238  29.756   8.109  15.626 -0.0923 -0.0307 -0.0246
69522POPC   C1A26239  29.370   8.020  15.300 -0.1496 -0.0250  0.0099
69522POPC   D2A26240  29.102   7.679  15.139  0.0680  0.0818 -0.1450
69522POPC   C3A26241  29.042   7.292  15.347  0.0811  0.1743 -0.3153
69522POPC   C4A26242  28.767   6.930  15.485 -0.0079 -0.1297 -0.1836
69522POPC   C1B26243  29.638   7.963  16.026 -0.1846 -0.0914 -0.4329
69522POPC   C2B26244  29.551   7.948  16.497 -0.0290 -0.0589  0.2277
69522POPC   C3B26245  29.439   7.884  16.908 -0.2234 -0.2193  0.1389
69522POPC   C4B26246  29.097   7.640  17.156 -0.0571  0.2111 -0.1844
69523POPC   NC326247  23.062   9.348  11.556  0.1901  0.0600 -0.1343
69523POPC   PO426248  23.161   9.540  11.874 -0.3325  0.1827  0.4470
69523POPC   GL126249  23.504   9.324  11.841 -0.2265  0.2381  0.0226
69523POPC   GL226250  23.671   9.378  12.061  0.3275 -0.3749  0.0558
69523POPC   C1A26251  23.839   8.923  11.861  0.5442  0.0871 -0.0937
69523POPC   D2A26252  24.251   8.795  11.798  0.3434 -0.1998  0.0912
69523POPC   C3A26253  24.463   8.589  12.136  0.0518  0.0944 -0.0569
69523POPC   C4A26254  24.856   8.650  12.480 -0.0934 -0.1616 -0.1575
69523POPC   C1B26255  24.101   9.432  11.970  0.0171 -0.0164 -0.2945
69523POPC   C2B26256  24.467   9.516  12.191  0.0798  0.1201 -0.2853
69523POPC   C3B26257  24.847   9.734  12.289  0.0060  0.4423 -0.0915
69523POPC   C4B26258  25.179  10.075  12.360  0.0649  0.0610  0.0264
69524POPC   NC326259  21.302   5.672  12.406 -0.0807 -0.1016  0.2850
69524POPC   PO426260  21.281   6.024  12.181 -0.0550  0.1750  0.2203
69524POPC   GL126261  21.645   6.026  12.132 -0.3275 -0.1618 -0.0757
69524POPC   GL226262  21.784   5.774  12.236  0.1796 -0.0261 -0.0562
69524POPC   C1A26263  22.097   6.118  12.253 -0.2436 -0.1716  0.0982
69524POPC   D2A26264  22.473   6.160  12.492  0.2021 -0.1236  0.1457
69524POPC   C3A26265  22.851   5.952  12.598  0.0956  0.1058 -0.0694
69524POPC   C4A26266  23.284   5.867  12.786 -0.1965 -0.0168  0.1310
69524POPC   C1B26267  22.101   5.794  11.846 -0.0705 -0.0961 -0.0568
69524POPC   C2B26268  22.553   5.981  11.876 -0.0326  0.1358 -0.1981
69524POPC   C3B26269  22.974   5.963  12.008  0.1459 -0.1040 -0.0100
69524POPC   C4B26270  23.306   5.770  12.288  0.0222 -0.0028 -0.1118
69525POPC   NC326271  21.647  14.640  16.053 -0.1206  0.1602  0.2602
69525POPC   PO426272  21.557  14.650  16.426 -0.0242  0.0527 -0.0381
69525POPC   GL126273  21.476  14.690  16.880 -0.0164  0.2556 -0.0345
69525POPC   GL226274  21.173  14.547  17.031  0.0969 -0.2123  0.1574
69525POPC   C1A26275  21.388  14.900  17.296  0.1200 -0.0288 -0.0001
69525POPC   D2A26276  21.281  14.982  17.759  0.1971 -0.1735  0.2196
69525POPC   C3A26277  21.042  14.703  18.028 -0.0193 -0.0668 -0.4985
69525POPC   C4A26278  20.783  14.741  18.389  0.2370 -0.1649 -0.0145
69525POPC   C1B26279  21.358  14.422  17.414 -0.1398  0.1700  0.1523
69525POPC   C2B26280  21.436  14.394  17.842 -0.1243  0.1436  0.0336
69525POPC   C3B26281  21.630  14.546  18.199 -0.3001 -0.2441  0.0765
69525POPC   C4B26282  21.708  14.936  18.478  0.1288 -0.0041 -0.3074
69526POPC   NC326283  28.674   0.369  15.254  0.2851 -0.1524  0.0235
69526POPC   PO426284  28.509   0.009  15.397 -0.2617 -0.0850 -0.0017
69526POPC   GL126285  28.254  -0.080  15.637  0.0027 -0.0998  0.0227
69526POPC   GL226286  28.218  -0.282  15.852  0.1139  0.1016  0.4003
69526POPC   C1A26287  27.988   0.271  15.844 -0.0123  0.0484  0.1872
69526POPC   D2A26288  27.631   0.625  15.907 -0.3234 -0.1319 -0.3490
69526POPC   C3A26289  27.519   0.629  16.396 -0.0100  0.0203  0.2411
69526POPC   C4A26290  27.271   0.498  16.783  0.0029  0.0129 -0.0307
69526POPC   C1B26291  27.812  -0.153  15.966 -0.3347  0.0612  0.0191
69526POPC   C2B26292  27.513   0.173  16.056 -0.0219 -0.0670  0.0487
69526POPC   C3B26293  27.081   0.421  16.261 -0.0479 -0.0354 -0.0929
69526POPC   C4B26294  27.020   0.847  16.441  0.0561  0.1037  0.0001
69527POPC   NC326295  17.489  32.586  16.022  0.0886 -0.0637 -0.1745
69527POPC   PO426296  17.724  32.854  16.215  0.1621 -0.1429 -0.0110
69527POPC   GL126297  17.469  32.793  16.532 -0.0511  0.0136  0.2183
69527POPC   GL226298  17.207  32.630  16.518 -0.0482 -0.1914  0.0768
69527POPC   C1A26299  17.429  33.009  16.945 -0.0312  0.1006  0.2320
69527POPC   D2A26300  17.433  33.213  17.414 -0.0742  0.0912  0.0885
69527POPC   C3A26301  17.835  33.332  17.552  0.0502  0.0362  0.5084
69527POPC   C4A26302  18.277  33.307  17.514 -0.3503  0.0847  0.2056
69527POPC   C1B26303  17.084  32.689  16.954  0.0239 -0.0360 -0.1202
69527POPC   C2B26304  17.007  33.069  17.267 -0.4189 -0.0996  0.1492
69527POPC   C3B26305  16.844  33.468  17.503  0.2684  0.0088  0.0601
69527POPC   C4B26306  16.865  33.711  17.882 -0.0928  0.2942 -0.2456
69528POPC   NC326307  21.179   3.607  13.961 -0.3776 -0.0476 -0.3871
69528POPC   PO426308  21.238   3.381  13.686  0.0638  0.1003  0.1492
69528POPC   GL126309  21.610   3.515  13.835  0.0185  0.4201 -0.0841
69528POPC   GL226310  21.645   3.290  13.985  0.2289  0.2122  0.1392
69528POPC   C1A26311  21.999   3.757  13.819 -0.1235  0.1879  0.0724
69528POPC   D2A26312  22.370   3.868  14.108  0.0012  0.2647  0.1911
69528POPC   C3A26313  22.215   4.073  14.499 -0.0124 -0.4252 -0.1404
69528POPC   C4A26314  22.403   4.463  14.653  0.1458  0.0255  0.2657
69528POPC   C1B26315  21.999   3.389  14.272  0.0971  0.2119  0.3818
69528POPC   C2B26316  22.317   3.570  14.570  0.0419  0.1117 -0.1611
69528POPC   C3B26317  22.653   3.455  14.855  0.2631 -0.1798  0.0997
69528POPC   C4B26318  23.128   3.315  14.941  0.0021  0.0943  0.1142
69529POPC   NC326319  26.213  12.918  16.314 -0.1466 -0.1601  0.2248
69529POPC   PO426320  25.924  12.614  16.340  0.2891 -0.3366  0.1500
69529POPC   GL126321  25.890  12.459  16.677 -0.1481  0.2949 -0.1671
69529POPC   GL226322  26.047  12.540  16.838  0.3212  0.2084 -0.2062
69529POPC   C1A26323  25.620  12.642  17.060 -0.2856 -0.0083  0.0055
69529POPC   D2A26324  25.482  12.927  17.344 -0.0340 -0.0596 -0.0979
69529POPC   C3A26325  25.723  12.935  17.714  0.2739 -0.0127  0.1356
69529POPC   C4A26326  25.907  12.689  18.074 -0.1053  0.0967 -0.0466
69529POPC   C1B26327  26.091  12.133  17.067 -0.0283 -0.2455 -0.0979
69529POPC   C2B26328  26.082  11.922  17.502 -0.2164 -0.2032  0.1362
69529POPC   C3B26329  26.035  11.794  17.949  0.0209  0.0772 -0.0523
69529POPC   C4B26330  25.862  11.376  18.187 -0.0753  0.3269  0.0618
69530POPC   NC326331  22.708   0.793  14.523 -0.0698  0.0685 -0.1460
69530POPC   PO426332  22.961   0.461  14.447  0.2113 -0.0544 -0.5705
69530POPC   GL126333  23.146   0.334  14.796  0.0928 -0.0295 -0.0719
69530POPC   GL226334  23.327   0.128  14.888 -0.0669 -0.0199 -0.3878
69530POPC   C1A26335  23.382   0.593  15.141 -0.0145  0.0532  0.0476
69530POPC   D2A26336  23.667   0.827  15.388 -0.0852  0.2698 -0.2617
69530POPC   C3A26337  23.862   1.199  15.674 -0.1697 -0.0377 -0.0978
69530POPC   C4A26338  24.060   1.629  15.780  0.0339  0.0286 -0.0410
69530POPC   C1B26339  23.439   0.162  15.378  0.0809 -0.0415 -0.1592
69530POPC   C2B26340  23.549   0.391  15.785 -0.3869 -0.0691  0.0636
69530POPC   C3B26341  23.739   0.486  16.157 -0.1034 -0.1527 -0.0383
69530POPC   C4B26342  24.147   0.577  16.172 -0.0605  0.2041  0.1731
69531POPC   NC326343  19.220  10.926  15.835  0.0259 -0.1724  0.1548
69531POPC   PO426344  19.255  10.754  16.193  0.0628  0.2754 -0.1326
69531POPC   GL126345  19.399  10.685  16.571 -0.1392  0.2464 -0.1977
69531POPC   GL226346  19.243  10.525  16.676 -0.1057 -0.1574 -0.3157
69531POPC   C1A26347  19.260  10.960  16.940 -0.1981 -0.1502  0.0996
69531POPC   D2A26348  19.174  10.762  17.287  0.2826  0.0256 -0.2037
69531POPC   C3A26349  18.762  10.504  17.359  0.1106  0.1736  0.0693
69531POPC   C4A26350  18.367  10.215  17.391 -0.2209 -0.1751  0.0845
69531POPC   C1B26351  19.131  10.301  17.058  0.2728 -0.5137 -0.0877
69531POPC   C2B26352  19.067  10.037  17.409 -0.0356 -0.0041 -0.0966
69531POPC   C3B26353  19.176   9.922  17.819 -0.2778  0.0773 -0.1636
69531POPC   C4B26354  19.250   9.616  18.088 -0.1615  0.0867 -0.0082
69532POPC   NC326355  25.800  10.271  13.298 -0.1499 -0.0342 -0.1300
69532POPC   PO426356  25.597  10.471  13.648 -0.2091 -0.0538 -0.3179
69532POPC   GL126357  25.605  10.074  13.658  0.2650  0.1371 -0.1486
69532POPC   GL226358  25.758   9.848  13.824 -0.0716 -0.0420  0.0673
69532POPC   C1A26359  25.449   9.728  13.391 -0.1880 -0.0326 -0.0022
69532POPC   D2A26360  25.113   9.459  13.351  0.1885 -0.0503  0.5179
69532POPC   C3A26361  25.079   8.967  13.454 -0.1335 -0.0785  0.1064
69532POPC   C4A26362  25.061   8.553  13.427 -0.1122 -0.0272  0.0525
69532POPC   C1B26363  26.075   9.506  13.807 -0.1343  0.0477  0.0880
69532POPC   C2B26364  26.060   9.041  13.880  0.2089 -0.0762  0.0367
69532POPC   C3B26365  25.976   8.584  13.826  0.2134 -0.5731  0.0547
69532POPC   C4B26366  25.796   8.242  13.575 -0.2169  0.0032  0.0244
69533POPC   NC326367  19.965   3.845  15.090  0.2765 -0.1142 -0.1633
69533POPC   PO426368  19.633   4.093  15.075 -0.0784  0.1666 -0.0201
69533POPC   GL126369  19.876   4.213  15.329 -0.3542  0.2658  0.0192
69533POPC   GL226370  19.890   4.346  15.516  0.0490 -0.0891  0.1154
69533POPC   C1A26371  20.248   3.973  15.496 -0.3841 -0.0498  0.0845
69533POPC   D2A26372  20.371   4.164  15.927  0.1743 -0.0207  0.1714
69533POPC   C3A26373  20.688   4.091  16.243  0.0655  0.0094  0.3533
69533POPC   C4A26374  20.918   4.058  16.621 -0.1991  0.1312 -0.2901
69533POPC   C1B26375  19.830   4.296  16.010 -0.0561 -0.0436  0.0697
69533POPC   C2B26376  20.097   4.210  16.386 -0.2273  0.0556 -0.0704
69533POPC   C3B26377  20.471   4.232  16.679  0.0677 -0.0726 -0.1750
69533POPC   C4B26378  20.872   4.525  16.793  0.0586 -0.0226  0.0624
69534POPC   NC326379  21.356  31.826  16.344 -0.3072  0.1454  0.2348
69534POPC   PO426380  21.319  31.943  15.976 -0.5402  0.0484  0.2311
69534POPC   GL126381  21.419  32.326  15.881 -0.3680 -0.0980 -0.3013
69534POPC   GL226382  21.217  32.495  16.004 -0.0430  0.0588 -0.1902
69534POPC   C1A26383  21.841  32.510  16.040 -0.0022 -0.0198  0.3185
69534POPC   D2A26384  22.065  32.645  16.414  0.3022  0.4305  0.1732
69534POPC   C3A26385  22.119  32.648  16.867 -0.0938 -0.0527  0.0971
69534POPC   C4A26386  22.254  32.792  17.266  0.1056  0.3091 -0.1353
69534POPC   C1B26387  21.449  32.373  16.412  0.4049  0.0921  0.1597
69534POPC   C2B26388  21.699  32.415  16.801  0.1145  0.0396 -0.2318
69534POPC   C3B26389  21.850  32.371  17.262  0.0020 -0.2733  0.1283
69534POPC   C4B26390  22.146  32.332  17.592  0.0940 -0.1333  0.2594
69535POPC   NC326391  29.578   8.317  14.129 -0.1099 -0.2233 -0.4050
69535POPC   PO426392  29.258   8.554  14.031  0.2084  0.0664  0.0568
69535POPC   GL126393  28.990   8.458  14.081  0.2016  0.2240 -0.0049
69535POPC   GL226394  28.765   8.656  14.105  0.3064  0.0621 -0.0592
69535POPC   C1A26395  28.889   8.012  14.216 -0.0039  0.1799 -0.1653
69535POPC   D2A26396  28.838   7.517  14.270  0.2218  0.0674 -0.1295
69535POPC   C3A26397  28.592   7.156  14.449 -0.0196  0.3743  0.0926
69535POPC   C4A26398  28.417   6.869  14.787  0.1756  0.0868 -0.5894
69535POPC   C1B26399  28.586   8.360  13.853 -0.1329 -0.2022  0.0192
69535POPC   C2B26400  28.351   7.955  13.649 -0.3501  0.1347  0.2124
69535POPC   C3B26401  28.078   7.592  13.559  0.0501  0.1232  0.4231
69535POPC   C4B26402  27.736   7.291  13.379  0.0156 -0.3676  0.0851
69536POPC   NC326403  28.463  10.369  10.495 -0.0875  0.2017  0.1671
69536POPC   PO426404  28.838  10.308  10.676  0.0144  0.0627 -0.0688
69536POPC   GL126405  28.823  10.028  10.353  0.0678 -0.2269  0.1917
69536POPC   GL226406  28.705  10.251  10.110 -0.3080 -0.1269 -0.0971
69536POPC   C1A26407  28.977   9.553  10.253 -0.2537  0.0378 -0.1203
69536POPC   D2A26408  28.957   9.215   9.968 -0.3486 -0.0547 -0.0655
69536POPC   C3A26409  29.228   8.847   9.848 -0.0262 -0.2633 -0.2117
69536POPC   C4A26410  29.268   8.376   9.737 -0.3264 -0.1800 -0.4033
69536POPC   C1B26411  28.689  10.121   9.691 -0.1151 -0.0650  0.1115
69536POPC   C2B26412  28.509   9.767   9.453 -0.3612 -0.1655  0.2198
69536POPC   C3B26413  28.189   9.561   9.163 -0.1441 -0.2301  0.0095
69536POPC   C4B26414  27.833   9.304   9.314  0.0047  0.0594  0.0957
69537POPC   NC326415  29.602   1.952   9.825 -0.1515  0.0178 -0.3382
69537POPC   PO426416  29.875   2.209   9.663 -0.3115 -0.1070  0.0111
69537POPC   GL126417  29.785   2.533   9.263 -0.2380 -0.1636  0.0111
69537POPC   GL226418  30.007   2.509   9.152  0.2210 -0.0620  0.1702
69537POPC   C1A26419  29.460   2.872   9.398  0.1879  0.0579 -0.2419
69537POPC   D2A26420  29.397   3.334   9.437  0.2637  0.2474 -0.0055
69537POPC   C3A26421  29.475   3.596   9.088 -0.0420  0.1497 -0.0170
69537POPC   C4A26422  29.191   3.662   8.689  0.0412  0.0266  0.1807
69537POPC   C1B26423  29.730   2.859   8.952 -0.0673  0.1767 -0.1483
69537POPC   C2B26424  29.340   3.117   8.914  0.3141  0.2051  0.2494
69537POPC   C3B26425  28.940   2.975   8.693 -0.2237 -0.0924  0.0340
69537POPC   C4B26426  28.572   3.175   8.453  0.1736 -0.0042  0.0661
69538POPC   NC326427  17.712   8.921  16.004  0.2719  0.1829 -0.1085
69538POPC   PO426428  17.376   9.116  16.124 -0.0826  0.2904  0.0370
69538POPC   GL126429  17.546   9.046  16.489  0.1484 -0.0549 -0.1261
69538POPC   GL226430  17.736   8.846  16.481  0.0355  0.1065 -0.2290
69538POPC   C1A26431  17.383   9.224  16.862 -0.2476 -0.0986 -0.4108
69538POPC   D2A26432  17.407   9.642  16.990  0.2558 -0.4584 -0.0829
69538POPC   C3A26433  17.143   9.555  17.353 -0.1393 -0.0098 -0.0035
69538POPC   C4A26434  17.302   9.607  17.731 -0.0805  0.1258  0.1975
69538POPC   C1B26435  17.925   8.870  16.924  0.1396 -0.1207  0.3468
69538POPC   C2B26436  18.059   9.047  17.350  0.1528 -0.2352 -0.0220
69538POPC   C3B26437  18.201   9.039  17.807  0.1238  0.0846 -0.0432
69538POPC   C4B26438  17.936   9.097  18.253  0.1029  0.0957  0.1208
69539POPC   NC326439  20.280   6.073  14.267 -0.1008  0.1539 -0.5260
69539POPC   PO426440  20.350   5.828  14.553 -0.0873  0.0064  0.1038
69539POPC   GL126441  20.597   5.636  14.766 -0.0595 -0.1190 -0.0234
69539POPC   GL226442  20.839   5.520  14.602  0.0219 -0.0421 -0.1226
69539POPC   C1A26443  20.963   5.764  15.056  0.1148 -0.1315  0.0498
69539POPC   D2A26444  21.033   5.693  15.496 -0.2216  0.0398  0.1391
69539POPC   C3A26445  21.393   5.601  15.696 -0.2093 -0.1526 -0.0031
69539POPC   C4A26446  21.809   5.707  15.898  0.1000 -0.0533  0.1429
69539POPC   C1B26447  21.304   5.579  14.748 -0.0220 -0.0906  0.0690
69539POPC   C2B26448  21.790   5.554  14.883 -0.2315 -0.2356  0.0758
69539POPC   C3B26449  22.194   5.480  15.028 -0.1619  0.1606 -0.1172
69539POPC   C4B26450  22.432   5.159  15.213 -0.0354  0.1482 -0.2685
69540POPC   NC326451  26.066  10.658  14.844 -0.1078 -0.0681  0.1476
69540POPC   PO426452  26.004  10.822  15.212  0.0269 -0.2101  0.1881
69540POPC   GL126453  25.927  10.659  15.614 -0.0470 -0.3443 -0.0675
69540POPC   GL226454  25.643  10.667  15.532 -0.0649  0.1949 -0.0779
69540POPC   C1A26455  25.735  10.464  16.024 -0.2474  0.0273  0.2126
69540POPC   D2A26456  25.679  10.112  16.341  0.0078  0.0464  0.2344
69540POPC   C3A26457  25.829   9.723  16.573  0.0925 -0.2310  0.0274
69540POPC   C4A26458  26.075   9.368  16.614  0.1913 -0.0614 -0.2654
69540POPC   C1B26459  25.574  10.231  15.611 -0.3226 -0.2318  0.0459
69540POPC   C2B26460  25.344   9.919  15.885  0.1008  0.2533  0.2147
69540POPC   C3B26461  25.369   9.716  16.260  0.1015 -0.0984  0.1518
69540POPC   C4B26462  25.468   9.443  16.559  0.1361  0.0936 -0.0693
69541POPC   NC326463  23.583  13.643  15.886 -0.1187  0.2841 -0.0257
69541POPC   PO426464  23.289  13.879  15.923 -0.2048 -0.3308  0.2692
69541POPC   GL126465  23.463  14.015  16.277  0.2388  0.3996 -0.2274
69541POPC   GL226466  23.219  14.218  16.328 -0.0911 -0.3447 -0.1255
69541POPC   C1A26467  23.788  13.899  16.626 -0.1902  0.1332  0.0475
69541POPC   D2A26468  24.025  14.023  16.999 -0.4192 -0.0585 -0.1651
69541POPC   C3A26469  24.069  13.709  17.313  0.1767  0.2449 -0.1569
69541POPC   C4A26470  23.930  13.324  17.498 -0.1624  0.0043  0.0803
69541POPC   C1B26471  23.282  14.005  16.747 -0.1089 -0.4197  0.1245
69541POPC   C2B26472  23.561  13.851  17.095  0.0751  0.0275 -0.0921
69541POPC   C3B26473  23.627  13.720  17.539  0.1195  0.1793 -0.1624
69541POPC   C4B26474  23.889  13.744  17.955 -0.1732 -0.2526 -0.0271
69542POPC   NC326475   0.953   6.416  15.423  0.4254  0.1683  0.2690
69542POPC   PO426476   0.790   6.756  15.514  0.1138  0.2760 -0.2474
69542POPC   GL126477   0.675   6.565  15.860 -0.3487  0.3773  0.0299
69542POPC   GL226478   0.815   6.630  16.096  0.1000  0.0448 -0.1305
69542POPC   C1A26479   0.339   6.795  16.060  0.0434  0.1446 -0.2171
69542POPC   D2A26480  -0.011   6.712  16.324  0.0522 -0.1250 -0.0914
69542POPC   C3A26481   0.017   6.489  16.721  0.1382 -0.0422  0.0283
69542POPC   C4A26482   0.033   6.242  17.134  0.0493  0.2063  0.0193
69542POPC   C1B26483   0.662   6.945  16.435 -0.1303  0.0160 -0.0297
69542POPC   C2B26484   0.323   6.890  16.792 -0.0248 -0.0814 -0.0949
69542POPC   C3B26485   0.100   6.754  17.152 -0.1966  0.1014 -0.0105
69542POPC   C4B26486  -0.000   6.745  17.628 -0.1047  0.1666 -0.1237
69543POPC   NC326487  31.830   7.480  14.953 -0.3794 -0.0225 -0.2254
69543POPC   PO426488  31.804   7.099  14.931  0.1126 -0.1422 -0.1658
69543POPC   GL126489  31.691   7.116  15.339  0.0091 -0.1437  0.0815
69543POPC   GL226490  31.819   6.874  15.471  0.0830 -0.1065  0.0342
69543POPC   C1A26491  31.366   7.123  15.703  0.0909 -0.2070 -0.0740
69543POPC   D2A26492  31.246   7.013  16.155 -0.0474  0.0472  0.1069
69543POPC   C3A26493  31.182   6.943  16.619  0.0271  0.0514 -0.0614
69543POPC   C4A26494  30.999   6.688  16.944  0.1301 -0.0616 -0.0875
69543POPC   C1B26495  31.631   6.688  15.877  0.0170 -0.1625 -0.1781
69543POPC   C2B26496  31.314   6.466  16.145  0.0246  0.1017  0.2519
69543POPC   C3B26497  31.086   6.310  16.542 -0.2994  0.1472 -0.0544
69543POPC   C4B26498  30.852   6.180  16.876 -0.0467 -0.1587  0.0273
69544POPC   NC326499  25.016  16.209  14.813 -0.1199 -0.2480  0.1280
69544POPC   PO426500  25.195  15.949  15.023 -0.2803  0.0666 -0.1538
69544POPC   GL126501  25.150  16.100  15.344  0.1441 -0.3245  0.0800
69544POPC   GL226502  25.201  15.955  15.554  0.1463  0.1628 -0.0341
69544POPC   C1A26503  25.245  16.457  15.608 -0.0274 -0.1429 -0.0433
69544POPC   D2A26504  25.143  16.626  16.042  0.2975  0.0036 -0.3012
69544POPC   C3A26505  24.778  16.862  16.156  0.0052 -0.3729 -0.0379
69544POPC   C4A26506  24.537  17.244  16.285  0.1107 -0.4459  0.1451
69544POPC   C1B26507  24.940  16.091  15.902  0.1162  0.0382 -0.0588
69544POPC   C2B26508  24.956  16.187  16.358 -0.0005  0.3165 -0.2389
69544POPC   C3B26509  24.768  16.315  16.758 -0.1460 -0.2346 -0.0562
69544POPC   C4B26510  24.615  16.288  17.222  0.0704 -0.2832 -0.4140
69545POPC   NC326511  21.116  10.937  16.897  0.1090 -0.1526 -0.2778
69545POPC   PO426512  20.919  11.204  16.681 -0.2017 -0.2150 -0.0246
69545POPC   GL126513  20.737  11.543  16.910  0.2238 -0.0777 -0.0880
69545POPC   GL226514  20.923  11.690  16.974 -0.0602 -0.0872 -0.4434
69545POPC   C1A26515  20.485  11.583  17.306 -0.0553 -0.0129  0.1494
69545POPC   D2A26516  20.201  11.764  17.580  0.1400  0.1352  0.1605
69545POPC   C3A26517  20.229  11.527  18.016 -0.0338 -0.3517  0.2428
69545POPC   C4A26518  20.432  11.462  18.403  0.0369 -0.1842 -0.2097
69545POPC   C1B26519  20.959  11.564  17.384 -0.3601 -0.2149 -0.5621
69545POPC   C2B26520  20.646  11.549  17.746 -0.2980 -0.4063 -0.2660
69545POPC   C3B26521  20.891  11.495  18.216  0.0492  0.2369  0.2151
69545POPC   C4B26522  20.813  11.640  18.685 -0.2186 -0.2752  0.2588
69546POPC   NC326523  23.778  13.429   9.028 -0.0351  0.0702 -0.0070
69546POPC   PO426524  23.954  13.090   9.037  0.1147  0.1441  0.1441
69546POPC   GL126525  24.063  13.026   8.649  0.2578 -0.4427 -0.1994
69546POPC   GL226526  24.007  13.359   8.588  0.2328  0.0172  0.0234
69546POPC   C1A26527  23.937  12.664   8.412  0.4005 -0.1549 -0.3036
69546POPC   D2A26528  24.102  12.346   8.117  0.2720 -0.0578  0.1295
69546POPC   C3A26529  23.662  12.182   8.023  0.1180  0.0300 -0.0941
69546POPC   C4A26530  23.603  11.803   7.750  0.0838 -0.0065 -0.0359
69546POPC   C1B26531  24.244  13.194   8.160  0.1613 -0.1901  0.1796
69546POPC   C2B26532  24.383  13.175   7.666  0.0097 -0.2127  0.0029
69546POPC   C3B26533  24.542  13.085   7.277 -0.0715  0.0147  0.0032
69546POPC   C4B26534  24.427  12.949   6.879 -0.1183 -0.0541 -0.0241
69547POPC   NC326535  20.371   9.455  16.298 -0.0665  0.1000  0.1713
69547POPC   PO426536  20.716   9.406  16.115  0.0058 -0.0320  0.0587
69547POPC   GL126537  21.094   9.378  16.325  0.0114 -0.1503 -0.1005
69547POPC   GL226538  20.999   9.585  16.521  0.1821  0.0701  0.1324
69547POPC   C1A26539  21.286   9.100  16.671  0.3619 -0.0286 -0.1104
69547POPC   D2A26540  21.488   8.702  16.800  0.2283  0.0569 -0.4904
69547POPC   C3A26541  21.258   8.437  17.143 -0.0028  0.0831  0.1967
69547POPC   C4A26542  20.859   8.235  17.261 -0.2484  0.3539 -0.0532
69547POPC   C1B26543  21.019   9.698  16.995 -0.3515  0.1981 -0.1382
69547POPC   C2B26544  21.049   9.606  17.449  0.1747 -0.4474 -0.0930
69547POPC   C3B26545  21.280   9.256  17.613 -0.1467  0.4519  0.0231
69547POPC   C4B26546  21.475   8.892  17.777 -0.4045  0.0020  0.1124
69548POPC   NC326547  21.561   8.846  14.714 -0.3447 -0.1054  0.0188
69548POPC   PO426548  21.577   8.456  14.716 -0.2418  0.2064 -0.1940
69548POPC   GL126549  21.733   8.355  15.075  0.0592 -0.4427 -0.0379
69548POPC   GL226550  21.687   8.312  15.379  0.2488 -0.0892 -0.2824
69548POPC   C1A26551  22.134   8.145  14.974  0.1032  0.0807 -0.1168
69548POPC   D2A26552  22.127   7.729  15.183 -0.3164 -0.0978  0.2327
69548POPC   C3A26553  21.914   7.388  15.381 -0.1865 -0.3314  0.1740
69548POPC   C4A26554  21.585   7.424  15.724  0.1486 -0.1522 -0.1175
69548POPC   C1B26555  21.561   8.131  15.757  0.0777  0.2595  0.0124
69548POPC   C2B26556  21.667   7.872  16.105 -0.0460  0.1783 -0.1440
69548POPC   C3B26557  21.729   7.844  16.544  0.0801 -0.2231 -0.3589
69548POPC   C4B26558  22.115   7.782  16.832  0.1161  0.2859 -0.1133
69549POPC   NC326559  27.626  11.758  16.103 -0.2354  0.4246 -0.0415
69549POPC   PO426560  27.659  11.937  16.430  0.0798 -0.1630  0.1246
69549POPC   GL126561  27.638  11.842  16.802  0.1803 -0.2718 -0.7248
69549POPC   GL226562  27.845  11.802  16.917  0.0331 -0.1708  0.1213
69549POPC   C1A26563  27.326  11.793  17.232 -0.3129  0.3928 -0.1054
69549POPC   D2A26564  27.201  11.827  17.658  0.1583 -0.0313  0.0226
69549POPC   C3A26565  27.442  11.749  18.097  0.1239 -0.1001  0.0705
69549POPC   C4A26566  27.516  11.877  18.534 -0.2554 -0.1014  0.3927
69549POPC   C1B26567  27.902  11.676  17.345  0.1404 -0.0988  0.2110
69549POPC   C2B26568  27.807  11.551  17.750 -0.1314  0.2085  0.1006
69549POPC   C3B26569  27.709  11.296  18.135  0.0144  0.2460  0.2602
69549POPC   C4B26570  27.645  11.004  18.472 -0.0475 -0.0309  0.0822
69550POPC   NC326571  24.162  32.739  14.642 -0.0395 -0.2362 -0.0920
69550POPC   PO426572  24.500  32.817  14.421 -0.0137  0.1216  0.0813
69550POPC   GL126573  24.606  33.135  14.690 -0.0258 -0.1918  0.0509
69550POPC   GL226574  24.693  33.326  14.436  0.1299  0.1000 -0.0767
69550POPC   C1A26575  24.511  33.567  14.901  0.0094 -0.0193  0.3259
69550POPC   D2A26576  24.714  33.781  15.327  0.2252 -0.0438 -0.0106
69550POPC   C3A26577  25.001  34.085  15.499  0.2820  0.2033  0.4065
69550POPC   C4A26578  25.200  34.487  15.627  0.2927  0.3223 -0.0912
69550POPC   C1B26579  24.772  33.771  14.501  0.4071  0.1449 -0.3543
69550POPC   C2B26580  24.512  34.064  14.761  0.1502 -0.1468 -0.1387
69550POPC   C3B26581  24.064  34.086  14.833  0.2004 -0.1094 -0.0903
69550POPC   C4B26582  23.611  33.992  14.962 -0.0862 -0.0363  0.3557
69551POPC   NC326583  21.653  11.878  16.118  0.1355 -0.1533 -0.4144
69551POPC   PO426584  21.370  12.126  16.214 -0.0602  0.0226 -0.0566
69551POPC   GL126585  21.405  12.055  16.651  0.0296  0.2759 -0.0022
69551POPC   GL226586  21.693  11.983  16.680  0.0556 -0.2615  0.1864
69551POPC   C1A26587  21.371  11.929  17.113  0.0282  0.1146 -0.0686
69551POPC   D2A26588  21.386  11.960  17.584 -0.0818  0.0271 -0.0119
69551POPC   C3A26589  21.421  11.515  17.706  0.3255 -0.1103 -0.1142
69551POPC   C4A26590  21.363  11.357  18.072 -0.1461  0.1419 -0.3448
69551POPC   C1B26591  21.725  11.626  16.960 -0.2049 -0.0902  0.4683
69551POPC   C2B26592  21.808  11.350  17.290  0.1018  0.2317 -0.2068
69551POPC   C3B26593  21.928  11.190  17.692 -0.1139 -0.1160  0.0653
69551POPC   C4B26594  22.050  10.967  18.095  0.2743  0.3501  0.2976
69552POPC   NC326595  25.623  15.113  15.682 -0.0255 -0.2605  0.0273
69552POPC   PO426596  25.617  14.819  15.953 -0.4313  0.1002  0.0689
69552POPC   GL126597  25.891  14.867  16.069 -0.1324  0.6490 -0.4772
69552POPC   GL226598  25.893  15.138  16.195 -0.2336 -0.2285 -0.2709
69552POPC   C1A26599  26.274  14.722  16.270  0.1919  0.1361 -0.0602
69552POPC   D2A26600  26.539  14.982  16.564 -0.2128 -0.1198  0.0061
69552POPC   C3A26601  26.362  14.908  16.989 -0.0927  0.0643 -0.0680
69552POPC   C4A26602  26.243  14.806  17.415 -0.0961  0.1794  0.2215
69552POPC   C1B26603  26.035  15.006  16.608  0.1164  0.1103  0.0177
69552POPC   C2B26604  25.870  14.999  17.012  0.2989 -0.0377  0.0975
69552POPC   C3B26605  25.779  15.052  17.452 -0.3458 -0.0162  0.1654
69552POPC   C4B26606  25.917  14.903  17.871 -0.3946  0.1542 -0.0975
69553POPC   NC326607  20.150  10.833  16.523 -0.0134  0.0703  0.1129
69553POPC   PO426608  20.529  10.948  16.629 -0.3471 -0.2480 -0.1001
69553POPC   GL126609  20.669  10.966  16.981  0.1172 -0.1076 -0.1858
69553POPC   GL226610  20.467  11.118  17.206 -0.3237  0.1097 -0.1543
69553POPC   C1A26611  20.941  11.105  17.343  0.3162 -0.0141  0.3248
69553POPC   D2A26612  20.981  11.210  17.783  0.0912  0.2446  0.1209
69553POPC   C3A26613  20.575  11.102  18.053  0.0321 -0.0110 -0.0018
69553POPC   C4A26614  20.244  10.992  18.358 -0.1065 -0.2930  0.0900
69553POPC   C1B26615  20.498  10.872  17.581  0.3677  0.5432  0.2117
69553POPC   C2B26616  20.585  10.609  17.938 -0.0362  0.0455 -0.1083
69553POPC   C3B26617  20.539  10.429  18.352 -0.0034  0.3107  0.2432
69553POPC   C4B26618  20.457  10.045  18.671  0.0846  0.2904  0.3862
69554POPC   NC326619  28.683   9.050  12.994 -0.0675  0.0746  0.1666
69554POPC   PO426620  29.078   9.017  12.919  0.0861  0.0761  0.0294
69554POPC   GL126621  28.899   8.678  12.778 -0.2816  0.4257 -0.1116
69554POPC   GL226622  28.893   8.519  12.493 -0.0244  0.0092  0.0888
69554POPC   C1A26623  28.521   8.362  12.757  0.1693  0.1470 -0.0146
69554POPC   D2A26624  28.080   8.316  12.742 -0.0023  0.3490 -0.1635
69554POPC   C3A26625  27.760   8.623  12.978 -0.0315  0.1601  0.4068
69554POPC   C4A26626  27.860   8.889  13.336 -0.2505 -0.0635  0.0787
69554POPC   C1B26627  28.805   8.094  12.476 -0.0776  0.2244 -0.0838
69554POPC   C2B26628  28.333   7.928  12.439 -0.0889  0.0025 -0.0643
69554POPC   C3B26629  27.902   7.872  12.516  0.0592  0.1935 -0.2710
69554POPC   C4B26630  27.600   7.893  12.856  0.2257 -0.3157 -0.0475
69555POPC   NC326631  16.258  13.587  17.140 -0.2558 -0.1266  0.0292
69555POPC   PO426632  16.043  13.512  16.800 -0.0659  0.1615  0.1615
69555POPC   GL126633  15.781  13.616  17.158  0.1484 -0.3986 -0.1026
69555POPC   GL226634  15.712  13.855  17.095  0.1645 -0.1095 -0.1210
69555POPC   C1A26635  15.627  13.363  17.505  0.3754  0.2910  0.0081
69555POPC   D2A26636  15.840  13.554  17.896  0.1377 -0.3956 -0.3005
69555POPC   C3A26637  15.883  13.453  18.365  0.2603  0.0954 -0.0813
69555POPC   C4A26638  15.928  13.629  18.804 -0.2414  0.0030 -0.0282
69555POPC   C1B26639  15.974  13.901  17.470 -0.2468  0.0253 -0.1402
69555POPC   C2B26640  16.220  13.854  17.795 -0.0592  0.2382 -0.1536
69555POPC   C3B26641  16.245  13.903  18.251  0.0265 -0.1052  0.3580
69555POPC   C4B26642  16.411  13.532  18.524 -0.0753  0.2318 -0.0185
69556POPC   NC326643  21.691  10.099  16.414 -0.1723 -0.0844  0.2975
69556POPC   PO426644  21.958   9.907  16.238  0.4402  0.0708  0.0865
69556POPC   GL126645  21.985   9.668  16.601  0.0817  0.1161 -0.0286
69556POPC   GL226646  22.255   9.823  16.620 -0.0037  0.0823 -0.1223
69556POPC   C1A26647  21.950   9.677  17.042  0.0619  0.2070  0.1383
69556POPC   D2A26648  22.079   9.784  17.460 -0.0186  0.1328 -0.2137
69556POPC   C3A26649  22.117   9.639  17.884 -0.0460  0.4319 -0.0794
69556POPC   C4A26650  22.050   9.532  18.333  0.2733  0.1929 -0.1756
69556POPC   C1B26651  22.464   9.543  16.900  0.3013  0.1919 -0.0031
69556POPC   C2B26652  22.753   9.256  17.113  0.1680  0.1030 -0.0582
69556POPC   C3B26653  22.931   9.034  17.455  0.1167 -0.1918 -0.0776
69556POPC   C4B26654  23.324   8.827  17.456  0.0631  0.0264  0.0569
69557POPC   NC326655  23.312  14.306   8.717  0.2465  0.0773  0.1738
69557POPC   PO426656  23.220  13.892   8.631  0.1046 -0.1754  0.2297
69557POPC   GL126657  23.512  13.915   8.331  0.2862 -0.0762 -0.0148
69557POPC   GL226658  23.316  14.104   8.146 -0.0115  0.1116  0.0557
69557POPC   C1A26659  23.800  13.949   7.975  0.0914 -0.2130 -0.0997
69557POPC   D2A26660  24.021  13.927   7.535 -0.1642  0.4103 -0.1441
69557POPC   C3A26661  24.431  13.937   7.339  0.2424  0.0139 -0.1053
69557POPC   C4A26662  24.600  13.861   6.920  0.5369  0.0164 -0.0161
69557POPC   C1B26663  23.348  13.949   7.748 -0.0113  0.0563  0.2684
69557POPC   C2B26664  23.374  13.565   7.524 -0.1536 -0.1316 -0.0729
69557POPC   C3B26665  23.570  13.411   7.117  0.1386 -0.0744 -0.0354
69557POPC   C4B26666  23.982  13.280   6.845 -0.0786 -0.2887  0.2232
69558POPC   NC326667  23.361  10.876   9.654  0.1089 -0.0925  0.2017
69558POPC   PO426668  23.065  10.633   9.537  0.0716  0.0594  0.0467
69558POPC   GL126669  23.213  10.495   9.195  0.2083  0.3037 -0.2414
69558POPC   GL226670  23.068  10.556   8.966 -0.0746  0.0207 -0.4133
69558POPC   C1A26671  23.663  10.407   9.070  0.1379 -0.0621  0.2358
69558POPC   D2A26672  24.102  10.392   8.923  0.2936 -0.2635  0.2160
69558POPC   C3A26673  24.437  10.584   8.644  0.1741 -0.0010 -0.0827
69558POPC   C4A26674  24.413  10.837   8.259 -0.0420  0.3440 -0.4132
69558POPC   C1B26675  23.299  10.416   8.625 -0.2331 -0.1407  0.0023
69558POPC   C2B26676  23.511  10.294   8.238 -0.3241 -0.0869  0.2030
69558POPC   C3B26677  23.552  10.327   7.758 -0.0660 -0.0499 -0.1928
69558POPC   C4B26678  23.908  10.184   7.495 -0.3663  0.0547  0.1795
69559POPC   NC326679  28.664  14.092  16.388  0.0131  0.0202  0.0371
69559POPC   PO426680  29.063  14.014  16.392  0.0659  0.2933  0.4813
69559POPC   GL126681  29.085  14.064  16.758 -0.0051  0.2868 -0.3319
69559POPC   GL226682  29.319  14.296  16.742  0.1675 -0.0490  0.1131
69559POPC   C1A26683  29.240  13.709  17.052  0.0552  0.2792 -0.0884
69559POPC   D2A26684  29.085  13.577  17.487 -0.1459  0.3885  0.0065
69559POPC   C3A26685  29.140  13.987  17.696  0.0501  0.2705  0.1142
69559POPC   C4A26686  29.154  14.393  17.748  0.0769  0.2101  0.1895
69559POPC   C1B26687  29.392  14.549  17.126  0.0587  0.0434 -0.1084
69559POPC   C2B26688  29.503  14.949  17.366 -0.3104  0.2084 -0.0376
69559POPC   C3B26689  29.580  14.935  17.792 -0.4952 -0.0412 -0.0241
69559POPC   C4B26690  29.378  15.134  18.137 -0.1651  0.0491  0.2206
69560POPC   NC326691  19.670  11.998  16.352  0.0387  0.0905 -0.0957
69560POPC   PO426692  19.596  11.589  16.396  0.0060 -0.0760 -0.1158
69560POPC   GL126693  19.722  11.482  16.872 -0.2252 -0.0817 -0.2145
69560POPC   GL226694  19.489  11.393  16.949 -0.0046 -0.1392 -0.2246
69560POPC   C1A26695  19.976  11.373  17.248  0.1576 -0.1501 -0.0400
69560POPC   D2A26696  20.192  11.208  17.621 -0.0463 -0.2299  0.2285
69560POPC   C3A26697  20.112  10.880  17.890 -0.1668 -0.0017  0.3299
69560POPC   C4A26698  20.070  10.558  18.242 -0.1743 -0.0769 -0.0473
69560POPC   C1B26699  19.535  11.156  17.297 -0.2621 -0.0932 -0.0317
69560POPC   C2B26700  19.578  10.933  17.707 -0.1347 -0.0500 -0.1121
69560POPC   C3B26701  19.392  10.610  18.000 -0.0073 -0.3091  0.2307
69560POPC   C4B26702  19.078  10.384  18.313 -0.3250 -0.2985 -0.1594
69561POPC   NC326703  32.437   4.884  15.383 -0.1374 -0.0238  0.1510
69561POPC   PO426704  32.163   5.138  15.533  0.0749  0.0135  0.3024
69561POPC   GL126705  31.790   5.157  15.633  0.1065 -0.1819 -0.0792
69561POPC   GL226706  31.812   5.461  15.772  0.1787  0.3038  0.0165
69561POPC   C1A26707  31.666   5.096  16.059 -0.1325  0.2434  0.0494
69561POPC   D2A26708  31.374   5.273  16.396  0.0752 -0.1249  0.0128
69561POPC   C3A26709  31.114   4.918  16.492 -0.1076  0.1890  0.0159
69561POPC   C4A26710  31.150   4.600  16.804 -0.0620  0.1999 -0.0941
69561POPC   C1B26711  31.726   5.593  16.237 -0.0741 -0.1125  0.1779
69561POPC   C2B26712  31.812   5.383  16.662 -0.0408  0.0376 -0.0083
69561POPC   C3B26713  32.031   5.573  17.082  0.2264  0.2067 -0.1691
69561POPC   C4B26714  32.082   5.907  17.436 -0.2138  0.1636  0.0671
69562POPC   NC326715  29.391  12.543   9.275 -0.1736 -0.0762  0.0959
69562POPC   PO426716  29.666  12.338   9.159 -0.2254  0.0950  0.0514
69562POPC   GL126717  29.390  12.161   9.009  0.0349  0.1003  0.2719
69562POPC   GL226718  29.558  11.878   9.002 -0.0179  0.0686  0.4222
69562POPC   C1A26719  29.136  11.864   8.726 -0.1319 -0.0340  0.0136
69562POPC   D2A26720  28.886  11.537   8.556  0.1094  0.2124 -0.1914
69562POPC   C3A26721  28.890  11.368   8.135  0.2250 -0.1047 -0.0875
69562POPC   C4A26722  28.763  11.267   7.689 -0.0041  0.2425 -0.2919
69562POPC   C1B26723  29.522  11.561   8.636  0.2805 -0.4374 -0.3372
69562POPC   C2B26724  29.389  11.330   8.283 -0.3500 -0.0180 -0.0294
69562POPC   C3B26725  29.474  11.043   7.924  0.2031  0.0578 -0.0407
69562POPC   C4B26726  29.712  10.695   7.693 -0.0504 -0.0005 -0.0028
69563POPC   NC326727  20.082   7.000  15.219  0.1694 -0.2171 -0.2633
69563POPC   PO426728  19.702   7.042  15.126 -0.1756  0.1932  0.0376
69563POPC   GL126729  19.809   7.030  15.593  0.1077  0.1810 -0.2323
69563POPC   GL226730  19.706   7.287  15.747 -0.0573  0.0528  0.0030
69563POPC   C1A26731  20.015   6.719  15.873 -0.2695  0.1299  0.3121
69563POPC   D2A26732  20.246   6.699  16.268 -0.1338  0.1197  0.2153
69563POPC   C3A26733  20.553   6.525  16.514  0.2047  0.1272  0.0997
69563POPC   C4A26734  20.799   6.254  16.891 -0.0287 -0.1202 -0.1367
69563POPC   C1B26735  19.952   7.163  16.106 -0.2174 -0.0775 -0.0226
69563POPC   C2B26736  20.206   7.122  16.465 -0.0156 -0.0063 -0.0595
69563POPC   C3B26737  20.254   6.893  16.834 -0.3070 -0.0866 -0.0303
69563POPC   C4B26738  20.448   6.562  17.153 -0.2785  0.3671  0.4230
69564POPC   NC326739  27.940  14.432  15.901 -0.1141 -0.4646  0.0550
69564POPC   PO426740  28.070  14.125  16.114  0.2154 -0.1704  0.2093
69564POPC   GL126741  28.181  14.315  16.416  0.3260  0.1695  0.4922
69564POPC   GL226742  28.370  14.581  16.288 -0.0416  0.1641  0.2268
69564POPC   C1A26743  28.068  14.676  16.694  0.0695 -0.2460  0.3328
69564POPC   D2A26744  28.161  15.069  16.941  0.0077  0.5056  0.1481
69564POPC   C3A26745  28.327  15.423  16.816  0.0259 -0.2538 -0.2560
69564POPC   C4A26746  28.134  15.837  16.677  0.0974  0.2481  0.2159
69564POPC   C1B26747  28.566  14.659  16.726 -0.3158 -0.5133  0.2440
69564POPC   C2B26748  28.842  14.467  17.051 -0.0636  0.0543  0.4474
69564POPC   C3B26749  28.935  14.694  17.447 -0.1178  0.0725 -0.0578
69564POPC   C4B26750  29.106  15.016  17.749  0.0205  0.1919  0.0982
69565POPC   NC326751  21.481   7.686  11.218  0.1102  0.0122  0.1189
69565POPC   PO426752  21.377   7.867  11.557  0.1415 -0.3589  0.2064
69565POPC   GL126753  21.818   7.919  11.419 -0.0589  0.1271  0.2625
69565POPC   GL226754  21.999   8.104  11.405  0.0348 -0.0500 -0.0364
69565POPC   C1A26755  22.123   7.621  11.393 -0.1290  0.1554 -0.2104
69565POPC   D2A26756  22.311   7.245  11.434  0.0114  0.2939  0.2048
69565POPC   C3A26757  22.641   7.058  11.147 -0.1026 -0.0913  0.0598
69565POPC   C4A26758  22.881   6.808  10.929  0.1991  0.1507 -0.0648
69565POPC   C1B26759  22.416   8.190  11.401  0.0468 -0.0592 -0.1704
69565POPC   C2B26760  22.746   8.511  11.398 -0.1987  0.2041 -0.1356
69565POPC   C3B26761  23.149   8.303  11.326  0.2026  0.0023  0.0019
69565POPC   C4B26762  23.454   7.984  11.181  0.0035 -0.1355  0.0142
69566POPC   NC326763  22.480   2.158  10.544 -0.0008 -0.0343  0.4392
69566POPC   PO426764  22.704   1.866  10.428  0.1326  0.2340 -0.3062
69566POPC   GL126765  23.059   2.013  10.214 -0.0160  0.0039  0.2518
69566POPC   GL226766  22.892   2.121  10.014 -0.3110 -0.1270  0.2674
69566POPC   C1A26767  23.240   2.436  10.246 -0.1761 -0.1133 -0.0599
69566POPC   D2A26768  23.271   2.759   9.934 -0.0123 -0.2584  0.1984
69566POPC   C3A26769  23.667   2.820   9.741 -0.0823 -0.1106 -0.0584
69566POPC   C4A26770  24.078   2.830   9.962 -0.1639  0.0071 -0.0608
69566POPC   C1B26771  23.158   2.310   9.695  0.1575  0.0166  0.1384
69566POPC   C2B26772  23.536   2.425   9.420 -0.1052 -0.0604  0.0571
69566POPC   C3B26773  23.656   2.637   9.040 -0.2932  0.0635 -0.2257
69566POPC   C4B26774  23.955   2.829   8.871 -0.0971 -0.2142  0.3279
69567POPC   NC326775  18.612  13.194  16.814 -0.0049 -0.1932  0.4231
69567POPC   PO426776  18.575  13.539  16.700  0.0007  0.0955  0.0780
69567POPC   GL126777  18.648  13.668  17.017 -0.0300  0.0123 -0.0101
69567POPC   GL226778  18.914  13.442  17.121 -0.0673  0.1091  0.0693
69567POPC   C1A26779  18.401  13.582  17.426 -0.2083  0.2002  0.1866
69567POPC   D2A26780  18.482  13.652  17.911 -0.1276 -0.1013  0.0861
69567POPC   C3A26781  18.470  13.567  18.347 -0.0005  0.1176  0.4575
69567POPC   C4A26782  18.437  13.485  18.809  0.1103  0.0849  0.0990
69567POPC   C1B26783  18.954  13.325  17.582  0.0600 -0.0381  0.0745
69567POPC   C2B26784  18.820  13.317  17.997 -0.0962  0.0655 -0.2457
69567POPC   C3B26785  18.868  13.228  18.468  0.2366 -0.1843  0.0533
69567POPC   C4B26786  18.958  13.517  18.859  0.0383  0.1849  0.0078
69568POPC   NC326787  30.307   8.039  10.959 -0.0042 -0.2139 -0.0532
69568POPC   PO426788  30.210   8.063  11.360  0.2186 -0.0137  0.1425
69568POPC   GL126789  29.829   7.981  11.188 -0.1306  0.4398  0.1938
69568POPC   GL226790  29.691   7.960  11.460  0.0439 -0.1854  0.1574
69568POPC   C1A26791  29.410   8.127  11.006  0.2320 -0.0733  0.1256
69568POPC   D2A26792  29.086   8.068  10.704 -0.0028  0.2508  0.0515
69568POPC   C3A26793  28.880   8.167  10.263 -0.1721 -0.1881 -0.2432
69568POPC   C4A26794  28.580   7.974   9.965 -0.1049 -0.0006 -0.1391
69568POPC   C1B26795  29.455   7.615  11.343 -0.0766  0.0964  0.1023
69568POPC   C2B26796  29.240   7.383  10.990  0.2493  0.4500 -0.1068
69568POPC   C3B26797  28.932   7.577  10.731 -0.1215  0.2432 -0.0481
69568POPC   C4B26798  28.573   7.829  10.521  0.0798 -0.0696  0.0488
69569POPC   NC326799  30.379   2.568  13.505  0.2353 -0.4509  0.0177
69569POPC   PO426800  30.138   2.466  13.812  0.1679 -0.1768  0.1300
69569POPC   GL126801  29.865   2.638  14.046 -0.1586  0.1222 -0.4076
69569POPC   GL226802  29.599   2.658  13.841  0.1997 -0.0685 -0.0757
69569POPC   C1A26803  29.641   2.719  14.469 -0.3588  0.0132 -0.1314
69569POPC   D2A26804  29.268   2.816  14.663 -0.1293  0.1320 -0.1582
69569POPC   C3A26805  29.142   2.993  15.052  0.3656 -0.0213 -0.2196
69569POPC   C4A26806  28.919   3.092  15.451 -0.1193  0.1476  0.0338
69569POPC   C1B26807  29.279   2.880  14.118 -0.1070 -0.0687 -0.0603
69569POPC   C2B26808  28.960   3.137  14.263 -0.1117  0.1594 -0.0145
69569POPC   C3B26809  28.617   3.169  14.587  0.0440 -0.2921  0.2400
69569POPC   C4B26810  28.260   3.429  14.805  0.2339  0.1610  0.1423
69570POPC   NC326811  21.893   8.768  14.339  0.1146 -0.0625  0.0195
69570POPC   PO426812  22.288   8.793  14.424 -0.0995  0.0237 -0.0922
69570POPC   GL126813  22.524   8.700  14.805  0.0595  0.0955  0.0060
69570POPC   GL226814  22.480   8.451  14.920 -0.3466  0.2001 -0.0715
69570POPC   C1A26815  22.933   8.634  14.976  0.0722  0.1395 -0.0611
69570POPC   D2A26816  23.246   8.361  15.155 -0.1105  0.0601  0.0328
69570POPC   C3A26817  23.671   8.185  15.261 -0.0077  0.0680  0.2334
69570POPC   C4A26818  24.091   8.274  15.128  0.3570  0.0501  0.1132
69570POPC   C1B26819  22.760   8.129  15.182 -0.1043  0.0764 -0.1402
69570POPC   C2B26820  23.055   7.840  15.217 -0.1856  0.3619 -0.0079
69570POPC   C3B26821  23.047   7.387  15.098 -0.1403 -0.1102 -0.1536
69570POPC   C4B26822  22.874   6.974  15.023 -0.3475 -0.0479 -0.1358
69571POPC   NC326823  15.645  13.398  16.463 -0.2780  0.3354  0.1584
69571POPC   PO426824  15.543  13.729  16.663 -0.0348 -0.0127  0.1296
69571POPC   GL126825  15.168  13.747  16.924 -0.0777  0.2632  0.0818
69571POPC   GL226826  14.956  13.644  16.893  0.0754 -0.1573  0.0085
69571POPC   C1A26827  15.241  13.823  17.333 -0.1512  0.1075 -0.1097
69571POPC   D2A26828  15.463  13.832  17.683 -0.1635 -0.1887  0.0056
69571POPC   C3A26829  15.761  14.103  17.937  0.0216 -0.0910  0.0162
69571POPC   C4A26830  16.037  14.352  18.261  0.1111  0.1371  0.1246
69571POPC   C1B26831  14.749  13.752  17.357  0.0371 -0.0611  0.0362
69571POPC   C2B26832  14.373  13.723  17.654  0.3039 -0.1372  0.0845
69571POPC   C3B26833  14.043  13.828  17.916 -0.0623 -0.0070  0.1704
69571POPC   C4B26834  13.665  14.105  18.048  0.1937 -0.0841  0.3097
69572POPC   NC326835  21.249   1.182  15.164  0.1123  0.0274 -0.1521
69572POPC   PO426836  21.201   1.379  14.835 -0.0032 -0.0731 -0.1412
69572POPC   GL126837  21.439   1.552  14.983  0.6215  0.2004 -0.1720
69572POPC   GL226838  21.515   1.760  15.009  0.0012  0.0937 -0.0467
69572POPC   C1A26839  21.594   1.478  15.400  0.1039  0.0996  0.0898
69572POPC   D2A26840  21.819   1.255  15.768 -0.0365 -0.1965  0.2340
69572POPC   C3A26841  21.790   1.508  16.132 -0.0433 -0.3209 -0.1681
69572POPC   C4A26842  21.479   1.717  16.412 -0.2408  0.1360 -0.0756
69572POPC   C1B26843  21.871   1.920  15.157  0.0456  0.0489  0.0796
69572POPC   C2B26844  22.337   1.818  15.346 -0.0231 -0.0410  0.0740
69572POPC   C3B26845  22.710   1.857  15.583 -0.0566 -0.4625  0.0298
69572POPC   C4B26846  23.149   1.899  15.812 -0.2644 -0.0280 -0.2284
69573POPC   NC326847  25.830   0.626  12.651 -0.2236  0.1029 -0.0457
69573POPC   PO426848  26.021   0.970  12.599 -0.0829 -0.3166 -0.1996
69573POPC   GL126849  25.928   1.334  12.644  0.0098 -0.3176  0.1727
69573POPC   GL226850  25.701   1.511  12.828  0.2189 -0.4610  0.1122
69573POPC   C1A26851  25.995   1.773  12.531 -0.0796 -0.1641  0.3935
69573POPC   D2A26852  25.937   2.152  12.190  0.2045  0.2756 -0.0610
69573POPC   C3A26853  26.180   2.510  12.025 -0.2230  0.1638  0.2443
69573POPC   C4A26854  26.395   2.898  12.176 -0.1070 -0.0717 -0.1258
69573POPC   C1B26855  25.528   1.878  13.031  0.3820 -0.1208 -0.1615
69573POPC   C2B26856  25.535   2.178  13.409 -0.1574 -0.3212  0.0510
69573POPC   C3B26857  25.309   2.641  13.356 -0.0129  0.2681  0.1952
69573POPC   C4B26858  25.071   3.005  13.537 -0.0718  0.2436  0.1607
69574POPC   NC326859  20.016  10.207  16.468  0.0728 -0.0444  0.1031
69574POPC   PO426860  19.746  10.460  16.386  0.0293 -0.2206 -0.3399
69574POPC   GL126861  19.729  10.391  16.817  0.0435  0.3253  0.2031
69574POPC   GL226862  19.576  10.147  16.756  0.0873 -0.0007 -0.1269
69574POPC   C1A26863  19.991  10.316  17.197 -0.0475 -0.0147  0.0747
69574POPC   D2A26864  20.292  10.351  17.548 -0.0438  0.0560 -0.5226
69574POPC   C3A26865  20.222  10.137  17.961  0.2615 -0.0365 -0.0279
69574POPC   C4A26866  20.019  10.049  18.420 -0.1442 -0.1794 -0.1782
69574POPC   C1B26867  19.538  10.058  17.232 -0.1765 -0.1951 -0.1481
69574POPC   C2B26868  19.682   9.970  17.646  0.2344 -0.1572  0.0554
69574POPC   C3B26869  19.815   9.748  18.024  0.1055  0.1592 -0.1899
69574POPC   C4B26870  19.737   9.574  18.435 -0.2477 -0.1235 -0.1219
69575POPC   NC326871  18.287   2.074  15.702 -0.2738  0.0922  0.0837
69575POPC   PO426872  18.606   2.242  15.719 -0.3341  0.3058 -0.0431
69575POPC   GL126873  18.634   2.390  16.012 -0.0655 -0.0186 -0.2889
69575POPC   GL226874  18.758   2.707  16.020 -0.0741 -0.0223  0.0050
69575POPC   C1A26875  18.844   2.339  16.455 -0.2450 -0.0585  0.0224
69575POPC   D2A26876  18.775   2.061  16.835 -0.3900  0.3773  0.0902
69575POPC   C3A26877  18.982   2.334  17.177 -0.0849 -0.2062  0.3261
69575POPC   C4A26878  19.130   2.430  17.596 -0.0645  0.0873  0.0038
69575POPC   C1B26879  19.152   2.729  16.329  0.2211  0.1266  0.1021
69575POPC   C2B26880  19.239   2.518  16.725  0.0898  0.0125  0.0082
69575POPC   C3B26881  19.405   2.542  17.170  0.0263  0.0737 -0.2755
69575POPC   C4B26882  19.693   2.521  17.490 -0.0146 -0.2040  0.2980
69576POPC   NC326883  29.970   8.717  14.881 -0.3856 -0.0480  0.1342
69576POPC   PO426884  29.880   8.474  14.578  0.1051  0.1057 -0.1672
69576POPC   GL126885  29.913   8.101  14.647  0.0672 -0.0473 -0.2612
69576POPC   GL226886  29.676   7.973  14.521  0.0076 -0.0767  0.3106
69576POPC   C1A26887  29.754   7.838  14.964  0.0636 -0.2169 -0.0049
69576POPC   D2A26888  29.599   7.594  15.317  0.1766 -0.0515 -0.0323
69576POPC   C3A26889  29.352   7.623  15.750  0.1543  0.3391  0.1389
69576POPC   C4A26890  29.144   7.674  16.184  0.2802 -0.0986 -0.0007
69576POPC   C1B26891  29.241   7.894  14.655  0.1540 -0.1834  0.1239
69576POPC   C2B26892  28.765   7.841  14.658 -0.2604  0.2937  0.0218
69576POPC   C3B26893  28.359   7.513  14.659 -0.0489 -0.2933  0.4111
69576POPC   C4B26894  28.065   7.316  14.823 -0.1725  0.1573  0.2721
69577POPC   NC326895  19.433   6.586  15.021  0.1180  0.0867  0.3453
69577POPC   PO426896  19.318   6.660  15.410  0.1674  0.0987 -0.0206
69577POPC   GL126897  19.481   6.526  15.758  0.0080  0.0691 -0.2674
69577POPC   GL226898  19.474   6.785  15.896  0.0197  0.0710  0.0693
69577POPC   C1A26899  19.709   6.264  16.122 -0.2294 -0.1097 -0.3792
69577POPC   D2A26900  19.787   5.794  16.241  0.2095 -0.0289  0.2835
69577POPC   C3A26901  19.978   5.700  16.620 -0.0447 -0.2691 -0.2027
69577POPC   C4A26902  20.234   5.523  17.008 -0.1036  0.0743 -0.3588
69577POPC   C1B26903  19.697   6.779  16.301 -0.1653  0.0269  0.2186
69577POPC   C2B26904  19.821   6.709  16.713  0.0552 -0.2239  0.1000
69577POPC   C3B26905  19.830   6.465  17.172 -0.3633 -0.1528 -0.0300
69577POPC   C4B26906  19.721   6.078  17.504 -0.0601 -0.1597  0.0871
69578POPC   NC326907  30.806   5.351  12.988 -0.3546 -0.2307 -0.4130
69578POPC   PO426908  30.792   4.989  12.933  0.3282 -0.1122  0.1126
69578POPC   GL126909  30.465   5.121  13.092  0.1044  0.0981 -0.0454
69578POPC   GL226910  30.172   5.073  12.950 -0.1031  0.2778  0.0294
69578POPC   C1A26911  30.182   5.426  13.275 -0.0369  0.2088  0.2001
69578POPC   D2A26912  29.972   5.816  13.411  0.0029 -0.4374 -0.2066
69578POPC   C3A26913  29.591   5.997  13.698  0.0013 -0.2719  0.0054
69578POPC   C4A26914  29.286   6.310  13.704 -0.1081  0.0764  0.2246
69578POPC   C1B26915  29.829   5.343  12.885  0.2253 -0.0594 -0.1866
69578POPC   C2B26916  29.538   5.527  12.574 -0.2512 -0.1953 -0.0329
69578POPC   C3B26917  29.188   5.780  12.582 -0.0060 -0.1228  0.0110
69578POPC   C4B26918  28.992   6.157  12.767  0.2454  0.1060 -0.0185
69579POPC   NC326919  18.595   9.769  16.511 -0.1045 -0.0687 -0.0575
69579POPC   PO426920  18.902   9.502  16.388  0.0929 -0.0748 -0.0832
69579POPC   GL126921  18.934   9.405  16.756  0.0035 -0.3462  0.2085
69579POPC   GL226922  18.755   9.191  16.741 -0.0297  0.1730  0.1586
69579POPC   C1A26923  18.959   9.276  17.208 -0.0843 -0.2937 -0.1619
69579POPC   D2A26924  19.081   9.210  17.681 -0.1164 -0.1391 -0.0736
69579POPC   C3A26925  18.821   9.025  18.054 -0.0399  0.2163  0.1336
69579POPC   C4A26926  18.503   8.805  18.273 -0.0059 -0.2312  0.3886
69579POPC   C1B26927  18.923   8.824  16.953  0.1978  0.0687 -0.1507
69579POPC   C2B26928  19.119   8.781  17.364 -0.0542  0.2673  0.1068
69579POPC   C3B26929  19.042   8.596  17.819  0.2150  0.2042  0.4299
69579POPC   C4B26930  18.858   8.185  18.017 -0.0339 -0.0170 -0.3262
69580POPC   NC326931  24.647  32.156  14.838  0.1722  0.2164  0.2991
69580POPC   PO426932  24.873  32.412  14.628  0.0519 -0.2881  0.0578
69580POPC   GL126933  24.863  32.595  14.961 -0.1404 -0.4703  0.2026
69580POPC   GL226934  24.513  32.608  14.971 -0.2276 -0.2181  0.0604
69580POPC   C1A26935  24.785  33.022  15.109  0.1030 -0.2932  0.0833
69580POPC   D2A26936  24.913  33.325  15.422  0.1153 -0.1175  0.1488
69580POPC   C3A26937  25.202  33.648  15.389 -0.4877 -0.1424 -0.0158
69580POPC   C4A26938  25.361  33.902  15.757 -0.5281 -0.1809 -0.0627
69580POPC   C1B26939  24.486  32.282  15.323  0.0324  0.0429  0.2139
69580POPC   C2B26940  24.412  31.939  15.633  0.0791 -0.0387  0.0431
69580POPC   C3B26941  24.448  32.030  16.092 -0.1048  0.0583 -0.0583
69580POPC   C4B26942  24.314  32.184  16.509  0.2750  0.1359  0.0065
69581POPC   NC326943  16.129   3.234  15.462 -0.0730  0.0215  0.3610
69581POPC   PO426944  16.276   3.596  15.547 -0.1915  0.2484 -0.0355
69581POPC   GL126945  16.024   3.492  15.818  0.2075  0.2932 -0.2216
69581POPC   GL226946  16.145   3.510  16.046 -0.2007  0.2341  0.0363
69581POPC   C1A26947  15.738   3.734  16.081 -0.3519 -0.1309  0.1262
69581POPC   D2A26948  15.524   3.918  16.504 -0.0466 -0.0570 -0.1437
69581POPC   C3A26949  15.270   4.282  16.414 -0.0708  0.1219 -0.2256
69581POPC   C4A26950  15.119   4.581  16.720  0.1361 -0.0236 -0.1484
69581POPC   C1B26951  16.150   3.786  16.413  0.1868 -0.2966 -0.2412
69581POPC   C2B26952  16.193   3.728  16.875  0.0595  0.1527 -0.0571
69581POPC   C3B26953  16.087   3.482  17.267  0.0041  0.1154 -0.3263
69581POPC   C4B26954  16.025   3.060  17.543 -0.0270 -0.0657 -0.2655
69582POPC   NC326955  21.316   9.651  15.633  0.1424 -0.0912 -0.0868
69582POPC   PO426956  21.147   9.393  15.851 -0.1761  0.0085 -0.2714
69582POPC   GL126957  21.270   9.075  15.933 -0.1233 -0.2353 -0.2117
69582POPC   GL226958  21.549   8.988  15.826  0.1425 -0.1086  0.0357
69582POPC   C1A26959  21.471   8.809  16.276  0.1891 -0.1991  0.2025
69582POPC   D2A26960  21.777   8.534  16.405 -0.0307  0.0417 -0.4003
69582POPC   C3A26961  21.993   8.643  16.773  0.2609 -0.0603 -0.1123
69582POPC   C4A26962  22.083   8.556  17.222 -0.0616 -0.2262  0.0337
69582POPC   C1B26963  21.917   8.941  16.091 -0.0123 -0.1176  0.3117
69582POPC   C2B26964  22.217   8.652  16.239  0.0557  0.1704 -0.1484
69582POPC   C3B26965  22.558   8.628  16.504 -0.0834  0.0361  0.1872
69582POPC   C4B26966  22.951   8.405  16.656 -0.0403 -0.0403 -0.0146
69583POPC   NC326967  20.917  10.529  16.587  0.1518 -0.2375 -0.1740
69583POPC   PO426968  21.223  10.492  16.304 -0.0844  0.0199  0.4291
69583POPC   GL126969  21.309  10.345  16.716 -0.2652 -0.2117 -0.6447
69583POPC   GL226970  21.502  10.555  16.790  0.1716  0.2923  0.0616
69583POPC   C1A26971  21.506  10.018  16.978  0.2271 -0.1603 -0.2869
69583POPC   D2A26972  21.510   9.894  17.376 -0.3559  0.0829  0.1893
69583POPC   C3A26973  21.710   9.863  17.780 -0.1335 -0.1159 -0.0317
69583POPC   C4A26974  21.700   9.920  18.262 -0.1826 -0.1358  0.1002
69583POPC   C1B26975  21.255  10.562  17.146  0.2307 -0.2646 -0.1474
69583POPC   C2B26976  21.441  10.407  17.588  0.1066  0.1965  0.1112
69583POPC   C3B26977  21.481  10.333  18.103 -0.0584 -0.0437  0.2368
69583POPC   C4B26978  21.441  10.275  18.573  0.0036  0.0779 -0.2209
69584POPC   NC326979  30.443   2.119   9.448  0.1192  0.0903  0.0145
69584POPC   PO426980  30.423   2.096   9.026 -0.2045 -0.0558 -0.3438
69584POPC   GL126981  30.207   2.279   8.748 -0.0742  0.0303 -0.0331
69584POPC   GL226982  30.301   2.521   8.741 -0.1566 -0.2451  0.3126
69584POPC   C1A26983  29.780   2.467   8.658  0.2716 -0.0511  0.0528
69584POPC   D2A26984  29.719   2.711   8.302  0.1326 -0.0358 -0.0760
69584POPC   C3A26985  29.609   2.610   7.877 -0.0709 -0.3121 -0.1226
69584POPC   C4A26986  29.380   2.536   7.542 -0.3114  0.3606 -0.0012
69584POPC   C1B26987  30.267   2.548   8.268 -0.3424  0.0654  0.2245
69584POPC   C2B26988  30.051   2.798   7.865 -0.1642  0.0590  0.0707
69584POPC   C3B26989  30.185   3.106   7.470  0.3729 -0.1951  0.0597
69584POPC   C4B26990  30.281   3.433   7.160 -0.1660  0.1435  0.0824
69585POPC   NC326991  26.803   1.236  10.974  0.0037  0.0249 -0.4041
69585POPC   PO426992  27.104   0.999  11.115  0.0719 -0.3308 -0.0582
69585POPC   GL126993  27.244   1.289  11.269  0.1516 -0.1125 -0.1918
69585POPC   GL226994  27.045   1.363  11.503 -0.0879  0.0508  0.0256
69585POPC   C1A26995  27.240   1.772  11.105 -0.3443 -0.2273  0.0479
69585POPC   D2A26996  27.031   2.087  11.397 -0.1741  0.2757  0.1810
69585POPC   C3A26997  26.873   2.508  11.270  0.0691 -0.0854  0.1437
69585POPC   C4A26998  26.787   2.959  11.108 -0.0976 -0.2653  0.1563
69585POPC   C1B26999  26.886   1.702  11.668 -0.3963  0.1404 -0.0162
69585POPC   C2B27000  26.809   2.188  11.796 -0.3679 -0.0340  0.2830
69585POPC   C3B27001  26.808   2.609  11.940  0.1330 -0.0662 -0.2103
69585POPC   C4B27002  26.657   2.880  11.562 -0.0273 -0.0403  0.0856
69586POPC   NC327003  21.747   9.547  15.869  0.2634 -0.0919 -0.0803
69586POPC   PO427004  21.465   9.744  16.110  0.0289  0.0770 -0.1053
69586POPC   GL127005  21.601   9.574  16.321 -0.0721  0.1219 -0.5988
69586POPC   GL227006  21.572   9.297  16.279  0.0890  0.0448  0.0645
69586POPC   C1A27007  21.496   9.571  16.777 -0.0171  0.0743  0.1157
69586POPC   D2A27008  21.562   9.357  17.168  0.1019 -0.0599  0.1711
69586POPC   C3A27009  21.591   8.887  17.293 -0.2302 -0.0345 -0.0121
69586POPC   C4A27010  21.628   8.483  17.540 -0.1731  0.1891  0.2160
69586POPC   C1B27011  21.791   9.089  16.584 -0.1292  0.0429 -0.0227
69586POPC   C2B27012  21.940   9.164  16.999  0.0216 -0.1754  0.0178
69586POPC   C3B27013  22.165   9.271  17.381  0.1374  0.1804  0.0826
69586POPC   C4B27014  22.409   9.195  17.737 -0.2472  0.1365  0.0996
69587POPC   NC327015  27.292  11.276  10.439 -0.2357  0.3064 -0.0095
69587POPC   PO427016  27.596  11.041  10.310  0.1160  0.2119 -0.2331
69587POPC   GL127017  27.656  11.021   9.951 -0.4592 -0.0760 -0.1814
69587POPC   GL227018  27.726  10.738   9.986  0.2543 -0.0188  0.2138
69587POPC   C1A27019  27.546  10.829   9.554 -0.1140  0.4766  0.0560
69587POPC   D2A27020  27.694  10.963   9.099  0.1192  0.1735  0.2403
69587POPC   C3A27021  27.910  10.871   8.700  0.3932  0.1451 -0.0275
69587POPC   C4A27022  28.000  10.973   8.237  0.0478  0.0039  0.1693
69587POPC   C1B27023  27.645  10.341   9.800 -0.1578 -0.1818  0.3049
69587POPC   C2B27024  27.564   9.917   9.707 -0.0266  0.1053 -0.0435
69587POPC   C3B27025  27.408   9.553   9.929  0.2585  0.1313 -0.1212
69587POPC   C4B27026  27.621   9.147  10.119 -0.2409  0.0166  0.0023
69588POPC   NC327027  18.487   9.172  16.273 -0.0839 -0.2920 -0.1133
69588POPC   PO427028  18.753   9.005  16.034  0.0918  0.0871 -0.1571
69588POPC   GL127029  18.625   8.688  16.323  0.2333 -0.0249  0.2637
69588POPC   GL227030  18.829   8.731  16.483  0.3958  0.3138  0.1631
69588POPC   C1A27031  18.372   8.893  16.660 -0.2573 -0.1552  0.1187
69588POPC   D2A27032  18.398   8.790  17.089  0.2220  0.0241 -0.2575
69588POPC   C3A27033  18.217   8.483  17.302  0.1254  0.1808 -0.0024
69588POPC   C4A27034  18.019   8.141  17.517 -0.0478  0.0878 -0.1270
69588POPC   C1B27035  19.057   8.363  16.670 -0.1686  0.0023 -0.1549
69588POPC   C2B27036  19.352   8.108  16.900  0.0823  0.1331  0.1398
69588POPC   C3B27037  19.600   7.917  17.250  0.0050 -0.1750  0.1979
69588POPC   C4B27038  19.555   7.846  17.711  0.0436  0.0490 -0.1199
69589POPC   NC327039   1.097  13.160  16.761 -0.0628  0.1866  0.0003
69589POPC   PO427040   1.062  13.560  16.839  0.2750  0.2633 -0.3502
69589POPC   GL127041   0.960  13.458  17.230 -0.2060 -0.1782  0.0990
69589POPC   GL227042   1.100  13.461  17.467 -0.1430 -0.0470 -0.0223
69589POPC   C1A27043   0.751  13.108  17.415  0.1326  0.1305  0.2451
69589POPC   D2A27044   0.431  13.081  17.712  0.1211 -0.1198  0.2118
69589POPC   C3A27045   0.648  13.050  18.124  0.1019 -0.0420  0.0945
69589POPC   C4A27046   0.689  13.295  18.511 -0.0005  0.1296  0.3696
69589POPC   C1B27047   0.785  13.525  17.735 -0.1213  0.0298 -0.1185
69589POPC   C2B27048   0.539  13.534  18.087  0.0359 -0.1347 -0.0632
69589POPC   C3B27049   0.160  13.575  18.407 -0.1977  0.0370 -0.0965
69589POPC   C4B27050  -0.219  13.325  18.597 -0.1581  0.3227 -0.0351
69590POPC   NC327051  21.119  14.838  16.632 -0.1570 -0.1813  0.0369
69590POPC   PO427052  21.359  15.139  16.484  0.2714  0.1931  0.2814
69590POPC   GL127053  21.666  15.239  16.608  0.2444 -0.1106 -0.1457
69590POPC   GL227054  21.784  15.022  16.689  0.0470  0.2003  0.1641
69590POPC   C1A27055  22.058  15.402  16.846  0.1100  0.2164 -0.2475
69590POPC   D2A27056  22.268  15.713  17.052  0.1711  0.0098  0.1073
69590POPC   C3A27057  22.150  16.108  17.154  0.0409 -0.2499  0.0903
69590POPC   C4A27058  22.502  16.332  17.323 -0.1228 -0.0588 -0.0240
69590POPC   C1B27059  21.613  15.243  17.041  0.1139 -0.1932  0.2160
69590POPC   C2B27060  21.869  15.248  17.362  0.0551  0.0372  0.2611
69590POPC   C3B27061  22.344  15.353  17.441 -0.0867  0.1714  0.2520
69590POPC   C4B27062  22.554  15.765  17.466 -0.2034  0.0634  0.0581
69591POPC   NC327063  26.493  32.739  14.422 -0.1038 -0.0716 -0.1983
69591POPC   PO427064  26.819  32.554  14.618 -0.3107 -0.1520 -0.0087
69591POPC   GL127065  27.018  32.926  14.714  0.2310 -0.1480 -0.0779
69591POPC   GL227066  26.822  33.044  14.612 -0.3291  0.2649 -0.1539
69591POPC   C1A27067  27.189  33.315  14.904  0.1564  0.2078 -0.2026
69591POPC   D2A27068  27.427  33.605  15.166  0.3293  0.2401  0.2400
69591POPC   C3A27069  27.154  33.924  15.350  0.2445  0.1784 -0.1610
69591POPC   C4A27070  26.946  34.315  15.408  0.1776  0.0857  0.0067
69591POPC   C1B27071  26.802  33.472  14.621 -0.1138 -0.1020  0.0175
69591POPC   C2B27072  26.511  33.781  14.819  0.0251 -0.0832 -0.1989
69591POPC   C3B27073  26.587  33.925  15.217 -0.0401  0.1650  0.1076
69591POPC   C4B27074  26.667  33.983  15.655  0.1556  0.0060 -0.3643
69592POPC   NC327075  19.575   1.469  15.611  0.3686  0.1817 -0.0606
69592POPC   PO427076  19.689   1.101  15.570 -0.1006  0.3020  0.3254
69592POPC   GL127077  19.728   1.272  15.973  0.2096  0.0154 -0.0103
69592POPC   GL227078  20.045   1.231  15.977 -0.0758  0.0806 -0.0683
69592POPC   C1A27079  19.826   1.365  16.450  0.0079  0.0733  0.0092
69592POPC   D2A27080  20.018   1.185  16.834  0.0631 -0.0543  0.0700
69592POPC   C3A27081  20.368   1.212  17.199  0.1501 -0.1590  0.1348
69592POPC   C4A27082  20.819   1.264  17.393  0.1380 -0.1551  0.1290
69592POPC   C1B27083  20.301   1.268  16.273 -0.0013  0.1931 -0.1553
69592POPC   C2B27084  20.385   1.543  16.619  0.0724 -0.3308  0.1178
69592POPC   C3B27085  20.526   1.783  16.945  0.1520 -0.0240  0.0712
69592POPC   C4B27086  20.688   2.122  17.195  0.2892  0.0323 -0.0451
69593POPC   NC327087  20.947  11.693  16.513  0.1151 -0.1909 -0.1819
69593POPC   PO427088  21.341  11.644  16.455 -0.0014  0.2020  0.0336
69593POPC   GL127089  21.319  11.504  16.778  0.0356  0.1292 -0.2462
69593POPC   GL227090  21.447  11.244  16.712  0.0212  0.0399  0.1554
69593POPC   C1A27091  21.330  11.334  17.156 -0.3605  0.1543  0.0285
69593POPC   D2A27092  21.434  10.942  17.417  0.2968  0.0513 -0.2217
69593POPC   C3A27093  21.556  10.862  17.869 -0.0468  0.3157  0.0825
69593POPC   C4A27094  21.383  10.860  18.293 -0.3727 -0.1485  0.0122
69593POPC   C1B27095  21.710  10.990  16.997 -0.2084 -0.3654  0.1533
69593POPC   C2B27096  21.933  10.779  17.425  0.2365  0.0618  0.1245
69593POPC   C3B27097  21.904  10.559  17.883 -0.0854 -0.0438  0.1015
69593POPC   C4B27098  22.106  10.252  18.164  0.0905  0.0347 -0.1077
69594POPC   NC327099  27.293  31.459  15.334  0.1200 -0.1886 -0.1239
69594POPC   PO427100  27.296  31.712  15.045 -0.1012  0.1254 -0.0076
69594POPC   GL127101  27.097  31.883  15.424 -0.0134  0.2137  0.0925
69594POPC   GL227102  26.833  31.984  15.336 -0.2018  0.0707  0.0395
69594POPC   C1A27103  27.175  32.305  15.580  0.3119  0.0001 -0.2242
69594POPC   D2A27104  27.362  32.661  15.716  0.2304  0.1582 -0.1565
69594POPC   C3A27105  26.975  32.921  15.753 -0.0614 -0.2217 -0.1186
69594POPC   C4A27106  26.616  33.190  15.800 -0.0283 -0.0044 -0.4123
69594POPC   C1B27107  26.671  32.294  15.591 -0.0461 -0.0072  0.4316
69594POPC   C2B27108  26.420  32.624  15.759 -0.1822 -0.2251 -0.0815
69594POPC   C3B27109  26.248  32.930  16.069 -0.0334  0.1721  0.1965
69594POPC   C4B27110  26.112  33.311  16.214 -0.0624  0.2257 -0.2443
69595POPC   NC327111  18.183   8.288  16.242  0.2976 -0.1167  0.6282
69595POPC   PO427112  18.351   7.966  16.118  0.0400  0.0011 -0.1070
69595POPC   GL127113  18.356   7.579  16.084 -0.2453  0.3330  0.2655
69595POPC   GL227114  18.145   7.427  16.217 -0.0161 -0.0147 -0.0586
69595POPC   C1A27115  18.650   7.180  16.289 -0.1883 -0.0810  0.2107
69595POPC   D2A27116  18.772   6.963  16.697  0.1551  0.0785 -0.2550
69595POPC   C3A27117  18.932   7.239  17.023  0.1882 -0.0876  0.0926
69595POPC   C4A27118  19.018   7.114  17.502 -0.2256 -0.0108 -0.3250
69595POPC   C1B27119  18.318   7.462  16.587 -0.0654  0.3158 -0.1667
69595POPC   C2B27120  18.412   7.561  17.020 -0.0295  0.1085 -0.2617
69595POPC   C3B27121  18.624   7.548  17.415  0.2301 -0.2114  0.1179
69595POPC   C4B27122  18.692   7.305  17.806 -0.1162  0.1319  0.0442
69596POPC   NC327123  20.196   8.252  15.780 -0.1356  0.2632  0.0597
69596POPC   PO427124  20.483   8.339  15.526  0.2047  0.0573 -0.1048
69596POPC   GL127125  20.831   8.247  15.714 -0.0029  0.3530 -0.2768
69596POPC   GL227126  20.736   8.357  15.937 -0.1570  0.2349  0.1247
69596POPC   C1A27127  21.049   7.970  15.996  0.0413  0.0661  0.0891
69596POPC   D2A27128  21.250   7.727  16.351 -0.0601 -0.1285  0.0623
69596POPC   C3A27129  21.582   7.417  16.281 -0.3522 -0.0155  0.1617
69596POPC   C4A27130  22.059   7.292  16.386 -0.0532  0.1122 -0.1391
69596POPC   C1B27131  20.511   8.494  16.276  0.0394  0.0435  0.3624
69596POPC   C2B27132  20.495   8.375  16.725 -0.0955  0.0531  0.1450
69596POPC   C3B27133  20.373   8.363  17.160  0.0424  0.0093  0.0947
69596POPC   C4B27134  20.509   8.642  17.535 -0.1040  0.2406  0.1694
69597POPC   NC327135  25.045  12.255  16.496 -0.0215  0.0026  0.1689
69597POPC   PO427136  24.781  12.302  16.158  0.1184 -0.2631 -0.1034
69597POPC   GL127137  24.575  12.211  16.459  0.1252 -0.0466  0.3486
69597POPC   GL227138  24.389  12.025  16.378  0.1316  0.2218 -0.1198
69597POPC   C1A27139  24.700  12.045  16.887 -0.3602  0.1453 -0.1250
69597POPC   D2A27140  24.656  11.807  17.252  0.3198  0.1944 -0.1230
69597POPC   C3A27141  24.649  11.782  17.735  0.0880  0.0663  0.0101
69597POPC   C4A27142  24.676  12.082  18.084  0.0852 -0.0432  0.1750
69597POPC   C1B27143  24.387  11.651  16.635  0.1355 -0.4079  0.3460
69597POPC   C2B27144  24.568  11.300  16.920  0.0060  0.0002 -0.2038
69597POPC   C3B27145  24.478  11.211  17.399 -0.1912  0.0778 -0.0075
69597POPC   C4B27146  24.742  11.284  17.761 -0.1885 -0.0915 -0.0139
69598POPC   NC327147  24.556  10.211  14.492 -0.1447 -0.3121  0.2983
69598POPC   PO427148  24.444  10.245  14.862 -0.2640  0.0885 -0.1148
69598POPC   GL127149  24.257  10.140  15.246  0.1776  0.2915  0.3861
69598POPC   GL227150  24.375  10.132  15.516  0.0681  0.0199 -0.2027
69598POPC   C1A27151  24.155   9.721  15.244  0.1607  0.0534 -0.1219
69598POPC   D2A27152  24.239   9.290  15.147 -0.1154 -0.1437 -0.0269
69598POPC   C3A27153  24.687   9.195  15.259  0.2586  0.3100 -0.0531
69598POPC   C4A27154  25.150   9.099  15.370 -0.0091  0.1503 -0.0702
69598POPC   C1B27155  24.608   9.680  15.428  0.2236 -0.0857 -0.2891
69598POPC   C2B27156  24.377   9.369  15.679  0.1633  0.0343 -0.0967
69598POPC   C3B27157  24.064   9.348  16.031  0.1158 -0.1713 -0.0369
69598POPC   C4B27158  23.760   9.117  16.264  0.1525 -0.0323  0.0757
69599POPC   NC327159  26.489  14.867  15.741  0.0013  0.0862  0.0864
69599POPC   PO427160  26.179  15.127  15.705 -0.0978  0.1012 -0.0409
69599POPC   GL127161  26.190  15.350  16.014 -0.3105 -0.1661 -0.0936
69599POPC   GL227162  26.410  15.158  16.145  0.3709 -0.0794  0.0492
69599POPC   C1A27163  26.402  15.759  16.166  0.1360 -0.0564 -0.2131
69599POPC   D2A27164  26.763  16.044  16.311  0.0307  0.2759  0.2236
69599POPC   C3A27165  26.809  16.314  16.636 -0.0464 -0.3450 -0.2795
69599POPC   C4A27166  26.798  16.649  16.946 -0.0691 -0.0490 -0.2352
69599POPC   C1B27167  26.311  15.426  16.485 -0.2373 -0.0277  0.0642
69599POPC   C2B27168  26.498  15.796  16.707 -0.1950 -0.1518  0.0613
69599POPC   C3B27169  26.747  15.978  17.052  0.0340 -0.0657 -0.1403
69599POPC   C4B27170  27.192  16.175  17.054 -0.0498 -0.1173 -0.0859
69600POPC   NC327171  21.950   1.249  14.818  0.1408 -0.0285 -0.1915
69600POPC   PO427172  21.638   0.996  14.947  0.1035  0.1886 -0.2100
69600POPC   GL127173  21.808   0.768  15.184  0.0331 -0.3432  0.1001
69600POPC   GL227174  21.896   0.494  15.254 -0.0264  0.2510 -0.2057
69600POPC   C1A27175  21.642   0.864  15.619 -0.1100  0.1196  0.0026
69600POPC   D2A27176  21.928   0.816  16.015 -0.1087  0.2904 -0.0741
69600POPC   C3A27177  22.152   1.167  16.136 -0.2407 -0.0882 -0.0653
69600POPC   C4A27178  22.251   1.573  16.401 -0.0100  0.0363  0.0561
69600POPC   C1B27179  22.119   0.769  15.550 -0.0464 -0.0653  0.0664
69600POPC   C2B27180  22.400   0.757  15.935 -0.3924 -0.1570  0.3112
69600POPC   C3B27181  22.719   0.605  16.270  0.3418 -0.3568 -0.0655
69600POPC   C4B27182  22.749   0.486  16.746  0.3517 -0.1844 -0.2906
69601POPC   NC327183  31.349   9.983  15.695 -0.0715 -0.1274 -0.0733
69601POPC   PO427184  31.723   9.918  15.784  0.1933 -0.1269  0.3961
69601POPC   GL127185  31.807  10.060  16.194 -0.3053  0.2982 -0.1027
69601POPC   GL227186  31.676   9.899  16.403 -0.0797 -0.2081  0.0454
69601POPC   C1A27187  31.737  10.456  16.483  0.0724  0.2529  0.0694
69601POPC   D2A27188  31.545  10.696  16.802  0.1497  0.0643 -0.3512
69601POPC   C3A27189  31.470  10.738  17.250 -0.0749  0.0971 -0.3234
69601POPC   C4A27190  31.499  10.490  17.608 -0.1272  0.0482 -0.0234
69601POPC   C1B27191  31.889   9.952  16.800 -0.1532 -0.1359 -0.0707
69601POPC   C2B27192  31.934   9.934  17.237  0.1276 -0.1563  0.1160
69601POPC   C3B27193  31.877  10.198  17.569 -0.2529  0.0362  0.0419
69601POPC   C4B27194  31.989  10.640  17.646 -0.0084  0.2252  0.0495
69602POPC   NC327195  22.475  12.564  16.511  0.0331 -0.1829 -0.0399
69602POPC   PO427196  22.414  12.378  16.170  0.1459  0.2084  0.0880
69602POPC   GL127197  22.503  12.040  16.514  0.2462 -0.0150 -0.1591
69602POPC   GL227198  22.771  12.173  16.661 -0.0239 -0.0364  0.1101
69602POPC   C1A27199  22.684  11.685  16.709  0.2186  0.2044  0.0781
69602POPC   D2A27200  22.778  11.399  17.072 -0.1408 -0.1454 -0.0373
69602POPC   C3A27201  22.752  11.224  17.529 -0.1316 -0.0884 -0.0583
69602POPC   C4A27202  22.930  11.101  17.873 -0.1051  0.0135 -0.0273
69602POPC   C1B27203  22.656  12.064  17.089 -0.0509 -0.1536  0.1676
69602POPC   C2B27204  22.529  11.960  17.545 -0.0801  0.0721  0.1332
69602POPC   C3B27205  22.785  11.630  17.791 -0.0482 -0.1453 -0.1669
69602POPC   C4B27206  22.719  11.545  18.256  0.1281  0.4391 -0.1621
69603POPC   NC327207  16.400  13.122  16.789  0.3920  0.0699 -0.0788
69603POPC   PO427208  16.621  13.266  17.071  0.0548  0.0563  0.0570
69603POPC   GL127209  16.852  13.341  17.263 -0.1915 -0.0085  0.1869
69603POPC   GL227210  16.670  13.533  17.531 -0.1950 -0.3281  0.1621
69603POPC   C1A27211  16.985  13.081  17.584  0.0029  0.1955  0.1316
69603POPC   D2A27212  17.084  12.715  17.912 -0.0178 -0.3044  0.2000
69603POPC   C3A27213  16.786  12.545  18.196 -0.3623  0.3406  0.2769
69603POPC   C4A27214  16.450  12.582  18.515  0.0195  0.2401  0.3477
69603POPC   C1B27215  16.764  13.885  17.840  0.0173 -0.0888 -0.3045
69603POPC   C2B27216  16.972  14.143  18.153  0.0221  0.0262 -0.0252
69603POPC   C3B27217  17.026  14.555  18.358  0.2262  0.1941 -0.0795
69603POPC   C4B27218  17.025  15.002  18.327  0.1633 -0.4329  0.2143
69604POPC   NC327219  29.038  11.093  16.269 -0.0828  0.0497 -0.3594
69604POPC   PO427220  29.373  11.316  16.198  0.0060  0.1544 -0.0796
69604POPC   GL127221  29.290  11.248  16.618  0.0979 -0.0293 -0.0752
69604POPC   GL227222  29.380  10.942  16.675 -0.2217  0.2761 -0.0708
69604POPC   C1A27223  28.854  11.161  16.819  0.1355 -0.1057  0.2112
69604POPC   D2A27224  28.526  10.985  17.057 -0.0189 -0.0144 -0.2311
69604POPC   C3A27225  28.369  10.652  17.356 -0.0042 -0.1815 -0.4460
69604POPC   C4A27226  27.949  10.609  17.590  0.0047  0.3107 -0.0780
69604POPC   C1B27227  29.234  10.983  17.073  0.0331 -0.1590 -0.0053
69604POPC   C2B27228  29.341  11.006  17.489 -0.4041  0.0190  0.1294
69604POPC   C3B27229  29.237  10.764  17.897 -0.1106  0.0942  0.0391
69604POPC   C4B27230  29.129  10.784  18.357  0.0165 -0.1709  0.3083
69605POPC   NC327231  22.414  13.681  16.139  0.2125  0.0310 -0.0039
69605POPC   PO427232  22.621  13.460  16.385  0.2252 -0.3621 -0.0741
69605POPC   GL127233  22.661  13.757  16.631 -0.2340 -0.1420 -0.1670
69605POPC   GL227234  22.853  13.688  16.805 -0.0680 -0.2629 -0.0450
69605POPC   C1A27235  22.454  13.904  17.024 -0.0717  0.1271  0.0061
69605POPC   D2A27236  22.242  13.868  17.477 -0.0104  0.2377  0.0860
69605POPC   C3A27237  22.126  14.307  17.729 -0.0480 -0.1825 -0.1291
69605POPC   C4A27238  22.166  14.455  18.152  0.0929 -0.1347  0.1226
69605POPC   C1B27239  23.077  13.805  17.150  0.1041 -0.0665 -0.1232
69605POPC   C2B27240  23.229  14.014  17.571 -0.1917  0.1807 -0.0244
69605POPC   C3B27241  23.537  14.093  17.967  0.0234  0.2825 -0.2434
69605POPC   C4B27242  23.491  13.857  18.398 -0.0747 -0.0542  0.2852
69606POPC   NC327243  18.260   7.028  15.930  0.0648 -0.2188  0.0701
69606POPC   PO427244  17.938   6.918  15.764  0.0155 -0.0176  0.0472
69606POPC   GL127245  17.804   6.851  16.204  0.0283  0.0195 -0.0661
69606POPC   GL227246  17.897   6.590  16.375 -0.0773 -0.1162 -0.1467
69606POPC   C1A27247  17.804   7.202  16.509 -0.3262 -0.1859  0.3627
69606POPC   D2A27248  17.794   7.519  16.818 -0.0019 -0.1373  0.1349
69606POPC   C3A27249  17.713   7.240  17.191  0.0725 -0.1948  0.2997
69606POPC   C4A27250  17.811   7.267  17.651 -0.1214  0.0084  0.0110
69606POPC   C1B27251  17.793   6.691  16.801  0.0755  0.1704 -0.1714
69606POPC   C2B27252  17.765   6.677  17.259  0.1241 -0.0996 -0.1471
69606POPC   C3B27253  18.018   6.771  17.602 -0.2278  0.1541  0.1887
69606POPC   C4B27254  18.284   7.108  17.509 -0.3001 -0.4978 -0.0182
69607POPC   NC327255  28.792  10.731   9.856  0.3505 -0.0909 -0.1917
69607POPC   PO427256  28.773  10.771  10.235 -0.2158 -0.2730  0.2781
69607POPC   GL127257  29.089  10.451  10.181 -0.1459  0.0343  0.0172
69607POPC   GL227258  29.251  10.526  10.029  0.1708  0.2905  0.0129
69607POPC   C1A27259  29.123  10.031   9.971  0.1698  0.0290  0.3131
69607POPC   D2A27260  29.239   9.716   9.670 -0.3858 -0.2648 -0.0060
69607POPC   C3A27261  29.016   9.658   9.277  0.2380  0.0351  0.2083
69607POPC   C4A27262  28.689   9.410   8.976  0.1877 -0.1382  0.0174
69607POPC   C1B27263  29.089  10.505   9.584 -0.0217  0.0027 -0.0826
69607POPC   C2B27264  28.974  10.185   9.271 -0.1910 -0.0092  0.0507
69607POPC   C3B27265  28.585  10.005   9.049 -0.4054 -0.3181  0.1673
69607POPC   C4B27266  28.144   9.985   8.848 -0.2873 -0.2057  0.0912
69608POPC   NC327267  32.586   6.619  15.004 -0.1552  0.2228  0.0028
69608POPC   PO427268  32.877   6.684  15.243  0.0833 -0.0692  0.1265
69608POPC   GL127269  32.771   6.613  15.664 -0.0511 -0.3527 -0.1224
69608POPC   GL227270  32.623   6.456  15.844 -0.2334 -0.0822 -0.2374
69608POPC   C1A27271  33.098   6.341  15.907 -0.0646  0.1606 -0.0054
69608POPC   D2A27272  33.289   6.363  16.321 -0.1186  0.2394 -0.1715
69608POPC   C3A27273  33.327   6.299  16.782 -0.1205 -0.0905 -0.0409
69608POPC   C4A27274  33.225   5.894  16.981 -0.0304  0.2776 -0.0275
69608POPC   C1B27275  32.177   6.467  15.978 -0.0881 -0.0126 -0.1600
69608POPC   C2B27276  31.868   6.402  16.276  0.2953 -0.0574 -0.1303
69608POPC   C3B27277  31.584   6.251  16.614 -0.1229 -0.1157  0.3174
69608POPC   C4B27278  31.321   6.122  16.940  0.2285 -0.0696 -0.3404
69609POPC   NC327279  27.741  13.444   9.483 -0.3546 -0.0825 -0.0001
69609POPC   PO427280  27.907  13.076   9.498  0.0001 -0.4501 -0.0623
69609POPC   GL127281  27.793  12.956   9.019  0.1124 -0.2736 -0.2354
69609POPC   GL227282  27.953  12.700   8.991 -0.0557 -0.3817  0.1016
69609POPC   C1A27283  27.435  12.694   8.931  0.1271  0.1988 -0.1057
69609POPC   D2A27284  27.390  12.331   8.617 -0.4159 -0.2125  0.2206
69609POPC   C3A27285  27.295  12.350   8.155  0.1471 -0.0652  0.2953
69609POPC   C4A27286  27.056  12.264   7.743  0.1569 -0.0858 -0.3150
69609POPC   C1B27287  27.863  12.726   8.566  0.2734 -0.4469  0.1390
69609POPC   C2B27288  27.535  12.823   8.285  0.1362  0.2996  0.1840
69609POPC   C3B27289  27.372  12.748   7.920 -0.3233 -0.0133 -0.0559
69609POPC   C4B27290  27.410  12.582   7.487  0.0349  0.3198 -0.3982
69610POPC   NC327291  32.168   1.868  15.794  0.1524 -0.0086 -0.2440
69610POPC   PO427292  31.994   1.787  16.113 -0.2288 -0.1683 -0.0199
69610POPC   GL127293  32.016   1.458  16.360  0.0015 -0.0026  0.0944
69610POPC   GL227294  31.717   1.599  16.454 -0.1743 -0.3708 -0.0259
69610POPC   C1A27295  31.936   1.218  16.807 -0.1292  0.1678 -0.1731
69610POPC   D2A27296  32.140   1.241  17.202  0.0608 -0.1213 -0.3026
69610POPC   C3A27297  31.983   1.150  17.647  0.0742 -0.3531  0.0577
69610POPC   C4A27298  32.083   1.484  17.950 -0.1080  0.2991 -0.0690
69610POPC   C1B27299  31.356   1.886  16.593  0.1838  0.1251  0.2036
69610POPC   C2B27300  31.064   1.967  16.972 -0.2447 -0.1122 -0.1566
69610POPC   C3B27301  30.726   2.087  17.190  0.2720 -0.2578 -0.2508
69610POPC   C4B27302  30.629   2.374  17.544  0.0439 -0.2999 -0.1764
69611POPC   NC327303  23.087  15.927  15.159 -0.1653  0.1332 -0.0051
69611POPC   PO427304  22.711  15.880  15.324 -0.0635 -0.0976  0.3520
69611POPC   GL127305  22.750  16.069  15.671  0.3341  0.3097  0.1817
69611POPC   GL227306  22.448  16.030  15.795 -0.0434 -0.0972  0.4172
69611POPC   C1A27307  22.726  16.424  15.947  0.1794 -0.2155  0.0760
69611POPC   D2A27308  22.704  16.372  16.404 -0.0704 -0.0886  0.0410
69611POPC   C3A27309  22.988  16.584  16.748  0.1151 -0.3604 -0.0453
69611POPC   C4A27310  23.330  16.637  16.946  0.0178  0.1791  0.0235
69611POPC   C1B27311  22.330  16.015  16.237 -0.1325 -0.2128  0.1584
69611POPC   C2B27312  22.270  16.263  16.613 -0.1344  0.0823  0.1649
69611POPC   C3B27313  22.492  16.562  16.859  0.0356 -0.0222 -0.3129
69611POPC   C4B27314  22.708  16.950  16.909  0.3610 -0.0920 -0.0760
69612POPC   NC327315  30.680   7.951  13.213 -0.0888 -0.1068 -0.1614
69612POPC   PO427316  30.799   7.675  13.411  0.1929  0.3390 -0.2260
69612POPC   GL127317  30.331   7.628  13.372 -0.0665 -0.1954  0.0953
69612POPC   GL227318  30.256   7.394  13.255  0.2078  0.1397  0.0925
69612POPC   C1A27319  29.826   7.646  13.440  0.0925  0.0449 -0.1375
69612POPC   D2A27320  29.409   7.548  13.653  0.1310 -0.0264 -0.2175
69612POPC   C3A27321  29.035   7.291  13.623 -0.2890 -0.1749 -0.1195
69612POPC   C4A27322  28.654   7.186  13.843  0.2105  0.0737 -0.0947
69612POPC   C1B27323  29.894   7.116  13.237 -0.0974  0.2171 -0.2368
69612POPC   C2B27324  29.440   7.030  13.412 -0.1916  0.1808  0.1334
69612POPC   C3B27325  29.086   6.777  13.655 -0.1000 -0.3218  0.1696
69612POPC   C4B27326  28.732   6.472  13.672  0.0248  0.1629  0.2443
69613POPC   NC327327  28.930   9.341  12.468  0.2686 -0.3601  0.1681
69613POPC   PO427328  29.228   9.042  12.433  0.3738 -0.2008  0.3322
69613POPC   GL127329  29.117   8.836  12.098 -0.0345 -0.1459  0.0830
69613POPC   GL227330  28.866   8.914  12.032 -0.3793 -0.0606  0.0340
69613POPC   C1A27331  29.025   8.441  11.938 -0.2169  0.0662 -0.0986
69613POPC   D2A27332  28.727   8.120  12.009  0.0310 -0.1543 -0.0821
69613POPC   C3A27333  28.292   8.039  11.950 -0.0783  0.1607  0.0541
69613POPC   C4A27334  27.865   8.094  11.686  0.0156  0.2110  0.1747
69613POPC   C1B27335  28.575   8.576  11.879 -0.2380 -0.0936 -0.1291
69613POPC   C2B27336  28.589   8.301  11.602  0.1005 -0.2030  0.1324
69613POPC   C3B27337  28.262   8.089  11.404 -0.0214  0.3809  0.5142
69613POPC   C4B27338  27.888   7.937  11.153  0.2105 -0.1777 -0.3083
69614POPC   NC327339  25.484  31.846  15.535 -0.1245 -0.1435 -0.3258
69614POPC   PO427340  25.658  31.933  15.194 -0.3049  0.1274  0.2627
69614POPC   GL127341  25.632  32.265  15.475  0.1965  0.0166  0.0353
69614POPC   GL227342  25.628  32.519  15.323 -0.2158  0.0503  0.1277
69614POPC   C1A27343  25.808  32.513  15.893  0.1326  0.1434 -0.2624
69614POPC   D2A27344  25.973  32.551  16.309  0.0132 -0.0687  0.0477
69614POPC   C3A27345  25.918  32.870  16.644 -0.0415  0.0953 -0.1235
69614POPC   C4A27346  25.769  33.166  16.974 -0.0881  0.2395 -0.2560
69614POPC   C1B27347  25.381  32.793  15.644  0.0619 -0.3625 -0.1430
69614POPC   C2B27348  25.220  33.111  15.920 -0.0225  0.2233 -0.0499
69614POPC   C3B27349  25.113  33.168  16.349  0.1488 -0.1250 -0.1538
69614POPC   C4B27350  25.159  33.465  16.713 -0.0612 -0.1639  0.0609
69615POPC   NC327351  16.994   3.074  15.763  0.1801 -0.1341  0.2166
69615POPC   PO427352  17.356   2.926  15.705 -0.0346 -0.1436  0.0827
69615POPC   GL127353  17.487   3.092  16.025  0.2984 -0.3942 -0.0463
69615POPC   GL227354  17.668   3.285  15.953  0.1589  0.1925  0.0091
69615POPC   C1A27355  17.550   3.117  16.460  0.0697  0.2152  0.4830
69615POPC   D2A27356  17.686   2.931  16.871  0.0144  0.0938  0.3334
69615POPC   C3A27357  17.626   2.840  17.309 -0.2156 -0.4795 -0.1012
69615POPC   C4A27358  17.718   2.869  17.736 -0.2436  0.3046  0.2950
69615POPC   C1B27359  18.007   3.383  16.276  0.0242 -0.1202 -0.0973
69615POPC   C2B27360  18.290   3.536  16.660 -0.0667  0.2093  0.0156
69615POPC   C3B27361  18.268   3.646  17.069  0.0390 -0.3386  0.1260
69615POPC   C4B27362  18.025   3.923  17.380 -0.0821  0.3424 -0.2907
69616POPC   NC327363  32.259   5.709  14.806 -0.1715  0.0256  0.0916
69616POPC   PO427364  32.474   5.754  15.122  0.2635  0.1925  0.1397
69616POPC   GL127365  32.528   5.740  15.546  0.2833 -0.1704  0.3274
69616POPC   GL227366  32.318   5.645  15.654  0.1791 -0.0780 -0.2573
69616POPC   C1A27367  32.708   5.882  15.907  0.1930 -0.3540  0.0279
69616POPC   D2A27368  32.822   6.094  16.316 -0.1975 -0.2877 -0.1036
69616POPC   C3A27369  32.710   5.959  16.752  0.0746  0.0683 -0.0040
69616POPC   C4A27370  32.302   6.101  16.940 -0.0396  0.0376 -0.0147
69616POPC   C1B27371  32.214   5.946  15.948  0.1083 -0.0802 -0.4092
69616POPC   C2B27372  32.132   5.934  16.389 -0.0304  0.1329 -0.1883
69616POPC   C3B27373  31.878   5.896  16.783  0.2089 -0.0452  0.0661
69616POPC   C4B27374  31.593   5.716  17.073  0.0625 -0.1124 -0.0669
69617POPC   NC327375  22.446   8.508  13.999  0.0318 -0.1548  0.4973
69617POPC   PO427376  22.040   8.461  13.992  0.0525  0.1073 -0.0874
69617POPC   GL127377  22.205   8.192  14.222  0.0094 -0.0322 -0.4464
69617POPC   GL227378  22.278   8.314  14.454 -0.2682  0.2544  0.2419
69617POPC   C1A27379  22.500   7.847  14.239 -0.0253  0.4645  0.0790
69617POPC   D2A27380  22.724   7.504  14.401  0.0593  0.0192 -0.0306
69617POPC   C3A27381  22.489   7.376  14.723  0.0119 -0.0812 -0.0078
69617POPC   C4A27382  22.428   7.219  15.188  0.1900  0.0521  0.2931
69617POPC   C1B27383  22.751   8.257  14.423  0.0873 -0.0601 -0.0975
69617POPC   C2B27384  23.152   8.007  14.221 -0.0327 -0.4444 -0.0889
69617POPC   C3B27385  23.259   7.594  14.021 -0.2400  0.3995 -0.3043
69617POPC   C4B27386  23.592   7.305  13.790  0.3155 -0.0201 -0.3333
69618POPC   NC327387  22.937  32.830  14.270 -0.2885  0.1311  0.2605
69618POPC   PO427388  22.831  32.791  14.632 -0.2305  0.0210 -0.1148
69618POPC   GL127389  22.980  32.721  14.974  0.1510  0.3164 -0.2348
69618POPC   GL227390  22.784  32.790  15.148 -0.1764  0.0611  0.3267
69618POPC   C1A27391  23.395  32.536  15.089 -0.0662 -0.0380  0.0237
69618POPC   D2A27392  23.669  32.461  15.454 -0.1419  0.0567  0.0083
69618POPC   C3A27393  23.865  32.803  15.691  0.1402  0.0564 -0.0979
69618POPC   C4A27394  24.167  33.026  15.893 -0.2437  0.1383 -0.0082
69618POPC   C1B27395  22.946  33.172  15.278 -0.2644 -0.0097  0.1000
69618POPC   C2B27396  23.124  33.512  15.537 -0.1400 -0.2441  0.2826
69618POPC   C3B27397  23.414  33.763  15.822 -0.1947  0.2142 -0.0837
69618POPC   C4B27398  23.762  33.926  16.127 -0.1549  0.1402  0.0560
69619POPC   NC327399   0.475  10.299  16.369 -0.0479  0.0387  0.2736
69619POPC   PO427400   0.193  10.393  16.067 -0.1390 -0.0963 -0.0254
69619POPC   GL127401   0.030  10.229  16.428 -0.0665 -0.1407  0.1363
69619POPC   GL227402   0.117   9.926  16.552  0.0979 -0.0335 -0.2205
69619POPC   C1A27403   0.014  10.304  16.867  0.1672 -0.0378 -0.0275
69619POPC   D2A27404   0.009  10.168  17.313  0.1216  0.0630 -0.0747
69619POPC   C3A27405  -0.020  10.274  17.780 -0.0178  0.0030 -0.0016
69619POPC   C4A27406   0.023  10.378  18.228  0.1757 -0.0299 -0.1383
69619POPC   C1B27407  -0.041   9.738  16.933 -0.2670 -0.2496  0.0271
69619POPC   C2B27408   0.004   9.625  17.372 -0.0677 -0.1944 -0.3408
69619POPC   C3B27409   0.339   9.507  17.688  0.1505 -0.1416  0.2573
69619POPC   C4B27410   0.278   9.297  18.138  0.1883 -0.3744  0.0248
69620POPC   NC327411  29.972  10.025  16.281  0.0210  0.0572  0.0869
69620POPC   PO427412  29.639  10.125  16.145  0.4294  0.2611 -0.1401
69620POPC   GL127413  29.505   9.828  16.372 -0.0171 -0.0756  0.1565
69620POPC   GL227414  29.562   9.950  16.622  0.1832  0.0410  0.2500
69620POPC   C1A27415  29.156   9.567  16.303 -0.0063  0.1149  0.0512
69620POPC   D2A27416  28.920   9.194  16.182 -0.2086  0.1187 -0.2435
69620POPC   C3A27417  28.600   9.073  16.533 -0.0296  0.2330  0.2879
69620POPC   C4A27418  28.275   8.837  16.763  0.0871 -0.1679 -0.1266
69620POPC   C1B27419  29.347   9.778  16.998 -0.1759  0.0215  0.2571
69620POPC   C2B27420  29.211   9.524  17.312  0.2795  0.1289  0.1595
69620POPC   C3B27421  29.369   9.139  17.450 -0.0700 -0.1860 -0.0067
69620POPC   C4B27422  29.345   8.685  17.273 -0.0591 -0.0321  0.1448
69621POPC   NC327423  17.170  12.055  16.626 -0.0443  0.0316 -0.0349
69621POPC   PO427424  17.070  12.426  16.706  0.0754  0.3081 -0.0088
69621POPC   GL127425  16.990  12.429  17.099  0.0574  0.2812  0.0873
69621POPC   GL227426  16.929  12.160  17.084  0.0219 -0.1299  0.0429
69621POPC   C1A27427  16.612  12.347  17.405 -0.1078 -0.1873 -0.3025
69621POPC   D2A27428  16.517  12.275  17.876  0.2111  0.2084  0.0569
69621POPC   C3A27429  16.257  12.593  18.030 -0.3136  0.1546 -0.0299
69621POPC   C4A27430  15.997  12.953  18.089  0.1012 -0.0618  0.1314
69621POPC   C1B27431  17.228  12.001  17.325  0.2161 -0.0161 -0.1394
69621POPC   C2B27432  17.231  11.591  17.582  0.1749 -0.0981 -0.0656
69621POPC   C3B27433  17.283  11.406  17.989  0.0770 -0.1458 -0.0869
69621POPC   C4B27434  17.702  11.227  18.177 -0.1657 -0.2495 -0.2560
69622POPC   NC327435  24.204  12.929  16.278 -0.2388  0.0523  0.0947
69622POPC   PO427436  23.977  13.239  16.348 -0.0661  0.3142  0.0229
69622POPC   GL127437  24.203  13.277  16.667  0.1257 -0.3139  0.4034
69622POPC   GL227438  24.102  13.546  16.798  0.1162  0.0890  0.5219
69622POPC   C1A27439  24.200  13.192  17.135  0.2408  0.1984  0.1248
69622POPC   D2A27440  24.396  13.012  17.512  0.2075  0.1436  0.2551
69622POPC   C3A27441  24.231  13.197  17.930  0.0280 -0.1542  0.0162
69622POPC   C4A27442  24.225  13.445  18.294  0.0589 -0.1317  0.1234
69622POPC   C1B27443  23.716  13.401  16.911  0.0045  0.1888 -0.2823
69622POPC   C2B27444  23.354  13.377  17.167 -0.0004 -0.2081  0.0238
69622POPC   C3B27445  23.198  13.451  17.550 -0.0217 -0.2320 -0.2554
69622POPC   C4B27446  23.357  13.571  17.929  0.0207 -0.2721  0.0332
69623POPC   NC327447  18.767   4.418  15.316 -0.4152  0.1605  0.1447
69623POPC   PO427448  18.853   4.068  15.502 -0.0338  0.0430  0.1574
69623POPC   GL127449  18.931   4.247  15.853  0.3268  0.0926 -0.2897
69623POPC   GL227450  18.944   4.494  15.750 -0.0946  0.0423  0.0902
69623POPC   C1A27451  19.329   4.170  16.083 -0.1122 -0.0426  0.0354
69623POPC   D2A27452  19.594   4.230  16.445  0.0296  0.0403  0.0556
69623POPC   C3A27453  19.837   4.471  16.714  0.2026 -0.2094 -0.0144
69623POPC   C4A27454  19.686   4.897  16.819 -0.2297  0.1187  0.0045
69623POPC   C1B27455  18.924   4.668  16.164  0.0896  0.1931 -0.0024
69623POPC   C2B27456  18.852   4.804  16.585  0.0936 -0.0252  0.0717
69623POPC   C3B27457  18.783   4.690  17.022  0.1177 -0.0944 -0.3423
69623POPC   C4B27458  19.064   4.612  17.366  0.0157  0.1539 -0.2098
69624POPC   NC327459  20.345  15.251   8.063  0.0720  0.1255  0.0913
69624POPC   PO427460  20.189  14.926   8.140 -0.0081 -0.2041  0.2755
69624POPC   GL127461  20.152  14.673   7.844  0.1127  0.3654  0.0254
69624POPC   GL227462  20.382  14.797   7.685 -0.0910  0.1332 -0.0583
69624POPC   C1A27463  19.973  14.634   7.414 -0.0681  0.0713 -0.1159
69624POPC   D2A27464  19.734  14.730   7.001  0.0344 -0.2837  0.1166
69624POPC   C3A27465  19.305  14.580   6.857 -0.1015 -0.0031 -0.0651
69624POPC   C4A27466  18.977  14.407   6.561  0.1550 -0.0500  0.2543
69624POPC   C1B27467  20.470  15.059   7.336  0.2142 -0.2375 -0.4384
69624POPC   C2B27468  20.398  14.933   6.875  0.1172  0.0436 -0.0614
69624POPC   C3B27469  20.232  15.128   6.452 -0.2949  0.2158 -0.2702
69624POPC   C4B27470  20.430  15.006   6.044  0.1373 -0.0638 -0.0028
69625POPC   NC327471  29.508   0.649  15.067 -0.0733 -0.1678 -0.1725
69625POPC   PO427472  29.813   0.761  15.300 -0.2202 -0.0026 -0.1773
69625POPC   GL127473  29.490   0.904  15.567  0.3206 -0.1203 -0.5057
69625POPC   GL227474  29.358   0.660  15.756  0.0429  0.1247  0.0177
69625POPC   C1A27475  29.203   1.232  15.776  0.1754  0.2196 -0.1234
69625POPC   D2A27476  29.237   1.708  15.732  0.1552  0.1291 -0.0384
69625POPC   C3A27477  29.470   1.953  16.123 -0.2174 -0.3013 -0.2350
69625POPC   C4A27478  29.500   2.072  16.571  0.1032 -0.2487 -0.0673
69625POPC   C1B27479  28.924   0.841  15.875 -0.0365 -0.1100 -0.1156
69625POPC   C2B27480  28.837   1.229  16.095 -0.1755  0.2921 -0.0087
69625POPC   C3B27481  28.574   1.451  16.434 -0.1388  0.1213 -0.0832
69625POPC   C4B27482  28.316   1.639  16.792  0.0515 -0.0459 -0.0650
69626POPC   NC327483  19.123  15.157  16.154 -0.0158 -0.1249  0.0268
69626POPC   PO427484  19.479  15.190  16.350  0.0994  0.2680  0.1320
69626POPC   GL127485  19.451  15.242  16.715  0.0139 -0.1915  0.0241
69626POPC   GL227486  19.723  15.352  16.779  0.3214  0.1364  0.4923
69626POPC   C1A27487  19.180  15.134  17.119 -0.2900  0.1487  0.3037
69626POPC   D2A27488  19.002  14.883  17.384  0.0617 -0.2081 -0.0605
69626POPC   C3A27489  18.709  15.071  17.679 -0.0049 -0.0567 -0.1395
69626POPC   C4A27490  18.484  15.254  18.052 -0.0595  0.0532 -0.0814
69626POPC   C1B27491  19.518  15.490  17.199  0.0378 -0.1218 -0.3173
69626POPC   C2B27492  19.422  15.702  17.614 -0.1639 -0.2276  0.1679
69626POPC   C3B27493  19.457  15.999  17.974 -0.2342 -0.1477 -0.0778
69626POPC   C4B27494  19.689  16.338  18.180 -0.0751  0.1772 -0.0553
69627POPC   NC327495  20.466  12.398  16.819  0.0533 -0.0114 -0.4048
69627POPC   PO427496  20.857  12.260  16.795  0.1470  0.0108 -0.0930
69627POPC   GL127497  21.019  12.442  17.158  0.2416  0.1242  0.1151
69627POPC   GL227498  21.047  12.265  17.337 -0.3059 -0.2326 -0.1086
69627POPC   C1A27499  20.958  12.817  17.412  0.1162  0.0092 -0.0354
69627POPC   D2A27500  20.987  13.270  17.496 -0.2408  0.0272  0.1751
69627POPC   C3A27501  21.150  13.439  17.912 -0.1259  0.1167 -0.0497
69627POPC   C4A27502  20.987  13.328  18.334 -0.2668  0.3583 -0.0138
69627POPC   C1B27503  21.215  12.412  17.855 -0.0447 -0.0002  0.0722
69627POPC   C2B27504  21.393  12.256  18.256 -0.2041 -0.0410 -0.1797
69627POPC   C3B27505  21.695  12.048  18.532 -0.3283  0.1204  0.1082
69627POPC   C4B27506  21.698  11.876  19.006 -0.2280 -0.0286  0.1412
69628POPC   NC327507  17.433  12.359  17.038  0.0571 -0.2697 -0.0225
69628POPC   PO427508  17.573  12.357  16.686 -0.0356  0.0795  0.1994
69628POPC   GL127509  17.529  11.951  16.839  0.0286  0.1403  0.3836
69628POPC   GL227510  17.687  11.943  17.137  0.1100 -0.1547 -0.1141
69628POPC   C1A27511  17.289  11.611  17.047  0.0134  0.3634  0.0534
69628POPC   D2A27512  17.229  11.180  17.237 -0.3855 -0.1243 -0.2070
69628POPC   C3A27513  17.236  11.083  17.643  0.2418  0.3200 -0.0493
69628POPC   C4A27514  17.164  10.933  18.075  0.1340  0.1942 -0.1201
69628POPC   C1B27515  17.699  11.842  17.619 -0.3983 -0.1533  0.0871
69628POPC   C2B27516  17.861  11.798  18.032  0.2512  0.2564 -0.1499
69628POPC   C3B27517  17.895  11.624  18.412  0.5074  0.0817 -0.1240
69628POPC   C4B27518  17.843  11.386  18.839  0.0563 -0.0001 -0.1639
69629POPC   NC327519  30.859   4.687  12.546 -0.2558 -0.1050 -0.0604
69629POPC   PO427520  30.906   4.939  12.231  0.2282 -0.1745  0.0986
69629POPC   GL127521  30.545   4.936  12.043  0.1154 -0.1691 -0.1459
69629POPC   GL227522  30.467   4.684  12.015 -0.0011  0.4365  0.0460
69629POPC   C1A27523  30.110   5.116  11.990 -0.0613 -0.0643  0.1218
69629POPC   D2A27524  29.720   5.380  11.988  0.1060  0.3666 -0.3050
69629POPC   C3A27525  29.693   5.775  12.217  0.0723 -0.1125 -0.1022
69629POPC   C4A27526  29.873   6.078  12.546  0.3787  0.1060  0.4160
69629POPC   C1B27527  29.984   4.690  11.816 -0.0481 -0.1248 -0.1380
69629POPC   C2B27528  29.595   4.801  12.008 -0.2666  0.0993 -0.0122
69629POPC   C3B27529  29.341   5.119  12.156 -0.1686 -0.1475 -0.0033
69629POPC   C4B27530  29.206   5.557  12.135 -0.0395  0.0482  0.0004
69630POPC   NC327531  22.140   2.598  12.586 -0.3763  0.1379 -0.1348
69630POPC   PO427532  22.471   2.530  12.378 -0.1357  0.3416  0.0606
69630POPC   GL127533  22.811   2.657  12.459  0.1842 -0.0595 -0.0217
69630POPC   GL227534  23.020   2.802  12.278 -0.0112  0.0391  0.0044
69630POPC   C1A27535  23.079   2.979  12.696 -0.0056  0.0400 -0.0176
69630POPC   D2A27536  23.489   3.052  12.903 -0.2513 -0.2848 -0.3141
69630POPC   C3A27537  23.562   3.479  13.052  0.0681 -0.0574 -0.0940
69630POPC   C4A27538  23.350   3.884  13.162 -0.1560 -0.0840 -0.0655
69630POPC   C1B27539  23.296   3.089  12.031  0.0412  0.2139  0.0373
69630POPC   C2B27540  23.579   3.293  11.832  0.3615  0.0320 -0.1618
69630POPC   C3B27541  23.925   3.574  11.728  0.5025 -0.1966  0.1857
69630POPC   C4B27542  24.059   4.010  11.946  0.0621  0.5732 -0.2389
69631POPC   NC327543  29.425   8.868  15.281  0.0916 -0.0736 -0.2120
69631POPC   PO427544  29.317   8.829  14.913 -0.1363  0.0686  0.3073
69631POPC   GL127545  29.113   8.600  15.060 -0.4518 -0.1464 -0.1614
69631POPC   GL227546  28.916   8.745  15.323 -0.2499 -0.1457 -0.2026
69631POPC   C1A27547  28.908   8.264  15.184  0.2739  0.2449  0.1935
69631POPC   D2A27548  28.871   7.917  15.510 -0.1135 -0.2642  0.0881
69631POPC   C3A27549  29.163   8.093  15.865  0.1204 -0.3033 -0.0877
69631POPC   C4A27550  29.136   8.155  16.316 -0.3808 -0.2067 -0.2213
69631POPC   C1B27551  28.873   8.425  15.645 -0.2916 -0.1095 -0.1159
69631POPC   C2B27552  28.662   8.159  16.031 -0.0567  0.0552  0.1359
69631POPC   C3B27553  28.666   7.807  16.400  0.0791  0.2068 -0.1626
69631POPC   C4B27554  28.950   7.609  16.655 -0.1591 -0.1484  0.0845
69632POPC   NC327555  25.333  13.237  16.414  0.1233  0.4477 -0.1258
69632POPC   PO427556  24.962  13.361  16.457  0.1406 -0.0694 -0.0051
69632POPC   GL127557  24.782  13.649  16.604 -0.2922 -0.1730  0.1434
69632POPC   GL227558  24.617  13.461  16.766 -0.3668 -0.0955  0.2067
69632POPC   C1A27559  24.912  13.932  16.918 -0.2704  0.1498 -0.1665
69632POPC   D2A27560  24.986  14.157  17.312 -0.0122 -0.0004  0.2324
69632POPC   C3A27561  24.686  14.108  17.682  0.0496 -0.0371 -0.1405
69632POPC   C4A27562  24.441  14.379  17.961 -0.1507 -0.1239 -0.2228
69632POPC   C1B27563  24.532  13.613  17.200 -0.1076 -0.0574  0.1874
69632POPC   C2B27564  24.405  13.627  17.671 -0.1979 -0.1155  0.2210
69632POPC   C3B27565  24.433  13.847  18.109  0.2990 -0.0275 -0.0499
69632POPC   C4B27566  24.390  14.136  18.488  0.0179 -0.3665 -0.0396
69633POPC   NC327567  29.524   9.279  15.986  0.2175  0.3335  0.1194
69633POPC   PO427568  29.691   9.016  15.707 -0.0080 -0.1898  0.1808
69633POPC   GL127569  29.766   8.955  16.091  0.2470  0.0975  0.0289
69633POPC   GL227570  30.074   9.027  16.123  0.3635  0.0733 -0.3878
69633POPC   C1A27571  29.405   8.909  16.349  0.1939 -0.0242  0.2134
69633POPC   D2A27572  29.251   8.856  16.770 -0.3926  0.2056  0.1451
69633POPC   C3A27573  29.027   9.036  17.108  0.2242  0.2302  0.0777
69633POPC   C4A27574  28.576   9.110  17.028  0.0697 -0.1334 -0.0337
69633POPC   C1B27575  29.856   8.902  16.525 -0.1418 -0.1731 -0.2458
69633POPC   C2B27576  29.747   8.580  16.913  0.2002  0.0710 -0.2795
69633POPC   C3B27577  29.697   8.253  17.198 -0.0359  0.0485  0.1388
69633POPC   C4B27578  29.753   7.896  17.441  0.0627 -0.0963 -0.0021
69634POPC   NC327579  25.588   0.683  12.096 -0.3436 -0.4298 -0.1655
69634POPC   PO427580  25.931   0.796  12.149  0.1786 -0.0059  0.0316
69634POPC   GL127581  25.849   1.174  11.988  0.2288  0.3879 -0.2442
69634POPC   GL227582  26.000   1.291  11.728  0.1395 -0.2527  0.0540
69634POPC   C1A27583  25.722   1.544  12.228  0.1353  0.1300 -0.1223
69634POPC   D2A27584  25.555   1.915  12.478  0.2463  0.1926 -0.2208
69634POPC   C3A27585  25.695   2.261  12.724 -0.3642 -0.0135  0.0559
69634POPC   C4A27586  25.582   2.686  12.921  0.0796 -0.0478  0.3793
69634POPC   C1B27587  26.040   1.777  11.662 -0.0239  0.1691 -0.2712
69634POPC   C2B27588  26.010   2.171  11.688 -0.0951  0.0961 -0.2047
69634POPC   C3B27589  25.848   2.540  11.492 -0.3995  0.5027  0.2290
69634POPC   C4B27590  25.748   3.019  11.515 -0.3079  0.0139  0.0742
69635POPC   NC327591  32.641   8.608  15.440  0.2661 -0.1244  0.2232
69635POPC   PO427592  32.453   8.568  15.800  0.0182 -0.1214 -0.0946
69635POPC   GL127593  32.358   8.447  16.143 -0.7025 -0.0080  0.0847
69635POPC   GL227594  32.542   8.475  16.349 -0.0040 -0.0179  0.0049
69635POPC   C1A27595  32.411   7.974  16.344  0.0313 -0.0993 -0.2223
69635POPC   D2A27596  32.183   7.740  16.700  0.0705  0.1392 -0.1072
69635POPC   C3A27597  32.439   7.453  16.993  0.1838  0.1985  0.0458
69635POPC   C4A27598  32.411   7.082  17.269  0.2412  0.5239  0.3339
69635POPC   C1B27599  32.387   8.246  16.780  0.1239  0.0916 -0.1129
69635POPC   C2B27600  32.335   7.980  17.177  0.1660  0.3807  0.0402
69635POPC   C3B27601  32.314   7.575  17.437 -0.0253 -0.0212  0.0249
69635POPC   C4B27602  32.054   7.283  17.634  0.0847  0.0021  0.0406
69636POPC   NC327603  18.837   6.872  15.433 -0.1713  0.0108 -0.1588
69636POPC   PO427604  18.503   6.760  15.592  0.3487  0.1868 -0.1375
69636POPC   GL127605  18.672   6.682  15.910 -0.0564 -0.0397 -0.1728
69636POPC   GL227606  18.931   6.780  15.930  0.2373  0.2063  0.0679
69636POPC   C1A27607  18.782   6.623  16.350 -0.1391  0.0324  0.2825
69636POPC   D2A27608  18.874   6.489  16.784 -0.1309 -0.2331  0.0462
69636POPC   C3A27609  18.717   6.346  17.174  0.0493  0.0964 -0.0995
69636POPC   C4A27610  18.573   6.648  17.548 -0.0706  0.0607 -0.1523
69636POPC   C1B27611  19.118   6.953  16.300  0.2843 -0.1403 -0.1022
69636POPC   C2B27612  19.278   7.053  16.757  0.1781  0.2201  0.1978
69636POPC   C3B27613  19.346   6.918  17.173  0.0696  0.2592  0.0920
69636POPC   C4B27614  19.629   6.851  17.548  0.1286 -0.1464 -0.0381
69637POPC   NC327615  26.579  13.531   8.899  0.0065  0.1991  0.0224
69637POPC   PO427616  26.521  13.913   8.857  0.5450 -0.0136  0.2908
69637POPC   GL127617  26.672  13.863   8.547 -0.1714 -0.0322  0.2680
69637POPC   GL227618  26.636  13.688   8.324  0.0122 -0.1111  0.0301
69637POPC   C1A27619  27.058  13.581   8.527  0.1448 -0.2332 -0.0886
69637POPC   D2A27620  27.258  13.393   8.156  0.1109 -0.0122  0.0029
69637POPC   C3A27621  27.062  13.204   7.779  0.2317 -0.5786  0.2486
69637POPC   C4A27622  26.976  12.856   7.527  0.1535  0.3911  0.3743
69637POPC   C1B27623  26.616  13.406   7.917 -0.1048  0.0745  0.3017
69637POPC   C2B27624  26.627  13.412   7.466  0.0801  0.0255  0.1086
69637POPC   C3B27625  26.321  13.592   7.067 -0.0935  0.1048  0.2008
69637POPC   C4B27626  25.943  13.790   6.825 -0.1233 -0.1522  0.3000
69638POPC   NC327627  28.405   9.016  15.069  0.2089 -0.0089  0.0901
69638POPC   PO427628  28.084   9.080  14.923  0.2838 -0.1902  0.0980
69638POPC   GL127629  27.903   8.762  14.831  0.2872 -0.0163  0.1158
69638POPC   GL227630  28.169   8.609  14.719  0.4788  0.0270 -0.2778
69638POPC   C1A27631  27.518   8.488  14.765  0.0025  0.3537 -0.2534
69638POPC   D2A27632  27.380   8.089  14.822 -0.0176  0.1886  0.0826
69638POPC   C3A27633  27.173   7.919  15.215  0.4408  0.2975 -0.0965
69638POPC   C4A27634  26.782   7.795  15.373  0.0092 -0.0978 -0.2959
69638POPC   C1B27635  27.936   8.196  14.786 -0.0948  0.3651 -0.3059
69638POPC   C2B27636  27.977   7.793  15.080  0.0841 -0.0858 -0.3597
69638POPC   C3B27637  28.008   7.462  15.387  0.0646 -0.1928  0.2126
69638POPC   C4B27638  27.701   7.333  15.689  0.0483  0.1341  0.1787
69639POPC   NC327639  29.959  10.341  15.745  0.1643 -0.2892  0.2402
69639POPC   PO427640  29.937   9.959  15.802 -0.0190 -0.0326 -0.0084
69639POPC   GL127641  29.818   9.634  16.015  0.0608  0.2236  0.1076
69639POPC   GL227642  30.119   9.540  15.994 -0.0028  0.3012  0.0073
69639POPC   C1A27643  29.779   9.473  16.407 -0.0611 -0.2737  0.0948
69639POPC   D2A27644  29.443   9.344  16.732 -0.2721  0.4372 -0.2885
69639POPC   C3A27645  29.715   9.105  17.049 -0.2745  0.0895 -0.1923
69639POPC   C4A27646  29.820   8.787  17.398 -0.1191 -0.0619  0.0514
69639POPC   C1B27647  30.294   9.374  16.385 -0.2398 -0.1304 -0.3127
69639POPC   C2B27648  30.383   9.272  16.811 -0.1488  0.1629 -0.0665
69639POPC   C3B27649  30.215   9.250  17.212  0.1345  0.2962 -0.0308
69639POPC   C4B27650  29.839   9.271  17.528 -0.2434 -0.1801 -0.1917
69640POPC   NC327651  28.147   9.797  15.446  0.0760  0.0496  0.0945
69640POPC   PO427652  28.344   9.491  15.354 -0.1623  0.0215 -0.0832
69640POPC   GL127653  28.397   9.197  15.590 -0.5824 -0.3473  0.1917
69640POPC   GL227654  28.380   9.422  15.850  0.2266 -0.0337 -0.0317
69640POPC   C1A27655  28.207   8.804  15.615  0.1256  0.0258 -0.0116
69640POPC   D2A27656  27.944   8.491  15.800  0.2762 -0.1366  0.0597
69640POPC   C3A27657  28.182   8.139  16.004  0.1607 -0.0968 -0.1969
69640POPC   C4A27658  28.113   7.635  15.925 -0.3027  0.0135 -0.2544
69640POPC   C1B27659  28.193   9.034  16.073  0.1180  0.0394  0.1529
69640POPC   C2B27660  28.049   8.664  16.325  0.1421  0.0461  0.2470
69640POPC   C3B27661  27.696   8.373  16.284  0.0659  0.4080 -0.1556
69640POPC   C4B27662  27.259   8.389  16.120  0.1720 -0.0603  0.1372
69641POPC   NC327663  29.370  15.467  16.481 -0.1518  0.0322 -0.1125
69641POPC   PO427664  29.247  15.655  16.149 -0.0665 -0.3441  0.1566
69641POPC   GL127665  28.958  15.423  16.373 -0.4397 -0.1453  0.1286
69641POPC   GL227666  28.834  15.661  16.443 -0.0478  0.0266  0.3973
69641POPC   C1A27667  28.943  15.384  16.884 -0.1659  0.0336 -0.1841
69641POPC   D2A27668  29.112  15.250  17.299  0.0004  0.3865 -0.0517
69641POPC   C3A27669  29.441  15.421  17.586  0.0642  0.2050  0.2860
69641POPC   C4A27670  29.515  15.636  18.013  0.0147 -0.0612  0.1578
69641POPC   C1B27671  29.175  15.828  16.776 -0.0504 -0.0616  0.2396
69641POPC   C2B27672  29.089  15.763  17.215 -0.3363  0.2471 -0.0426
69641POPC   C3B27673  28.871  15.577  17.610 -0.2674 -0.1180  0.2013
69641POPC   C4B27674  28.437  15.590  17.757 -0.1795  0.2208 -0.1085
69642POPC   NC327675  17.911   4.004  15.299  0.0680  0.0990  0.0360
69642POPC   PO427676  17.932   4.014  15.700  0.0786 -0.1614  0.0502
69642POPC   GL127677  17.711   4.084  16.111 -0.1486 -0.0379 -0.2737
69642POPC   GL227678  17.675   3.814  16.169 -0.1743  0.2908  0.0535
69642POPC   C1A27679  17.550   4.048  16.541  0.0712  0.0707 -0.1263
69642POPC   D2A27680  17.101   4.091  16.758 -0.0220  0.1227 -0.1759
69642POPC   C3A27681  16.995   3.775  17.116 -0.1464 -0.1788  0.2085
69642POPC   C4A27682  16.961   3.675  17.530 -0.2557 -0.0087 -0.0460
69642POPC   C1B27683  17.827   3.652  16.659 -0.0161  0.2418 -0.0863
69642POPC   C2B27684  17.844   3.422  17.018 -0.1856 -0.1112 -0.0995
69642POPC   C3B27685  17.887   3.408  17.516  0.0739 -0.1506  0.1697
69642POPC   C4B27686  18.028   3.338  17.939 -0.1245  0.0976 -0.0459
69643POPC   NC327687  21.672  10.536  16.136 -0.2638  0.1856 -0.3074
69643POPC   PO427688  21.884  10.831  16.241 -0.0248  0.1345  0.3895
69643POPC   GL127689  21.886  10.566  16.554 -0.0768 -0.0406  0.3300
69643POPC   GL227690  22.114  10.410  16.367  0.0363 -0.2376  0.1367
69643POPC   C1A27691  21.912  10.221  16.869 -0.1292 -0.0808  0.0858
69643POPC   D2A27692  21.852  10.254  17.300  0.1078 -0.2822 -0.0119
69643POPC   C3A27693  22.182  10.292  17.563  0.0195  0.1303 -0.0272
69643POPC   C4A27694  22.509  10.076  17.862  0.2697  0.1400  0.0987
69643POPC   C1B27695  22.381  10.272  16.665  0.2452 -0.0121  0.3161
69643POPC   C2B27696  22.496  10.023  17.037 -0.3165 -0.3008 -0.1163
69643POPC   C3B27697  22.564   9.813  17.434  0.2371  0.0575  0.1944
69643POPC   C4B27698  22.663   9.602  17.824  0.0971  0.2879  0.2597
69644POPC   NC327699  27.698  11.180  15.757  0.3394 -0.3638 -0.1850
69644POPC   PO427700  27.417  11.177  16.057  0.2256  0.0673 -0.1917
69644POPC   GL127701  27.485  10.952  16.332  0.0373  0.1478 -0.0964
69644POPC   GL227702  27.307  10.956  16.542 -0.1814 -0.1444 -0.3213
69644POPC   C1A27703  27.673  10.714  16.710 -0.2941 -0.2142  0.1170
69644POPC   D2A27704  27.700  10.253  16.898 -0.2179 -0.3655  0.1325
69644POPC   C3A27705  27.463   9.867  16.805  0.0123  0.2467 -0.5371
69644POPC   C4A27706  27.145   9.640  17.105 -0.1200 -0.0974  0.3022
69644POPC   C1B27707  27.289  10.922  16.992  0.0950  0.1546 -0.1019
69644POPC   C2B27708  27.153  10.840  17.435  0.3461 -0.1602 -0.1583
69644POPC   C3B27709  27.098  10.749  17.855  0.0431  0.3836 -0.0580
69644POPC   C4B27710  27.247  10.523  18.248  0.2756  0.0097  0.0745
69645POPC   NC327711  19.152   8.548  16.223 -0.3508  0.1978  0.0049
69645POPC   PO427712  19.431   8.693  15.968 -0.2438  0.0509 -0.3809
69645POPC   GL127713  19.662   8.662  16.257 -0.1171 -0.2976  0.1826
69645POPC   GL227714  19.872   8.430  16.139 -0.0135  0.1018  0.3968
69645POPC   C1A27715  20.121   8.818  16.395 -0.1980  0.1873  0.0634
69645POPC   D2A27716  20.504   8.960  16.562  0.3846  0.0593  0.3140
69645POPC   C3A27717  20.768   9.211  16.808 -0.0670 -0.0933  0.0863
69645POPC   C4A27718  21.111   9.114  17.147 -0.1060 -0.3271 -0.1633
69645POPC   C1B27719  20.084   8.282  16.467 -0.2492  0.1177  0.1582
69645POPC   C2B27720  19.944   8.060  16.902  0.0073  0.2490 -0.0491
69645POPC   C3B27721  19.953   7.557  16.978  0.3261 -0.0966 -0.1849
69645POPC   C4B27722  20.407   7.300  17.114 -0.3042 -0.0904  0.0339
69646POPC   NC327723  26.813  12.326  16.272 -0.2118 -0.1397  0.3820
69646POPC   PO427724  26.659  11.984  16.435 -0.1951  0.0315  0.0100
69646POPC   GL127725  26.733  11.718  16.781 -0.2137  0.2175 -0.1771
69646POPC   GL227726  26.448  11.610  16.757 -0.1017  0.0185 -0.2924
69646POPC   C1A27727  26.787  11.850  17.280  0.1309  0.3622  0.3449
69646POPC   D2A27728  26.669  11.882  17.691 -0.1631  0.1602  0.2959
69646POPC   C3A27729  26.757  11.474  17.977  0.1641  0.1330 -0.0898
69646POPC   C4A27730  26.928  11.376  18.397 -0.4800 -0.1245  0.1323
69646POPC   C1B27731  26.425  11.436  17.224 -0.1351 -0.0034 -0.3042
69646POPC   C2B27732  26.288  11.454  17.691  0.2830  0.4295  0.0733
69646POPC   C3B27733  26.309  11.333  18.145  0.0383 -0.1005 -0.2005
69646POPC   C4B27734  26.413  11.015  18.510 -0.3234 -0.0065 -0.2611
69647POPC   NC327735  17.594   1.460  15.801  0.3283 -0.1579  0.0689
69647POPC   PO427736  17.804   1.648  16.057 -0.4512  0.1292  0.2050
69647POPC   GL127737  17.653   1.681  16.404 -0.2180  0.0813  0.1132
69647POPC   GL227738  17.498   1.435  16.444 -0.0515  0.0337 -0.1090
69647POPC   C1A27739  17.714   2.060  16.670  0.0984  0.0622 -0.0421
69647POPC   D2A27740  18.118   2.175  16.899  0.0249  0.1906 -0.2255
69647POPC   C3A27741  18.344   2.517  16.971 -0.0524  0.2515  0.2539
69647POPC   C4A27742  18.519   2.791  17.274 -0.2451  0.4659 -0.1571
69647POPC   C1B27743  17.344   1.614  16.879 -0.1726 -0.0992  0.0168
69647POPC   C2B27744  17.313   1.824  17.300  0.0257 -0.1514 -0.2288
69647POPC   C3B27745  17.290   1.605  17.731  0.1548  0.0587 -0.0688
69647POPC   C4B27746  17.265   1.171  17.848  0.3731  0.0337 -0.3858
69648POPC   NC327747  24.348  10.185  13.136 -0.2544  0.0154 -0.1062
69648POPC   PO427748  24.177  10.015  13.441  0.0378 -0.2273  0.1249
69648POPC   GL127749  24.322   9.634  13.548  0.2664 -0.2480 -0.0751
69648POPC   GL227750  24.569   9.660  13.740 -0.0311  0.1628 -0.0018
69648POPC   C1A27751  24.184   9.182  13.660 -0.1345  0.3837  0.1864
69648POPC   D2A27752  23.893   9.061  14.023 -0.0881  0.0002  0.4635
69648POPC   C3A27753  24.100   8.715  14.243  0.2948  0.0859  0.3651
69648POPC   C4A27754  24.151   8.431  14.580 -0.0920  0.0408  0.1033
69648POPC   C1B27755  24.712   9.226  13.754 -0.1537  0.1612 -0.0663
69648POPC   C2B27756  25.000   8.881  13.920 -0.2690 -0.0047  0.1433
69648POPC   C3B27757  25.248   8.477  13.994  0.0696  0.0933  0.1941
69648POPC   C4B27758  25.085   8.018  14.000 -0.1230 -0.1493 -0.1024
69649POPC   NC327759  20.324  32.780  15.198  0.4025  0.2669  0.1799
69649POPC   PO427760  20.377  32.957  15.558  0.0900  0.0878  0.0127
69649POPC   GL127761  20.471  33.203  15.783  0.0090  0.1208  0.0890
69649POPC   GL227762  20.424  33.449  15.822  0.0156  0.0080 -0.0193
69649POPC   C1A27763  20.491  33.131  16.242 -0.2124 -0.1062 -0.2015
69649POPC   D2A27764  20.645  33.087  16.681 -0.0532 -0.0127 -0.1527
69649POPC   C3A27765  20.671  33.172  17.156 -0.0853 -0.2247  0.0500
69649POPC   C4A27766  20.512  33.596  17.325 -0.0532 -0.2745  0.0168
69649POPC   C1B27767  20.560  33.682  16.141 -0.3006 -0.1952 -0.0459
69649POPC   C2B27768  20.742  33.948  16.487  0.2058 -0.0444 -0.1841
69649POPC   C3B27769  20.773  34.168  16.899 -0.1864 -0.1595  0.3587
69649POPC   C4B27770  20.940  34.520  17.151  0.1366 -0.0866  0.1114
69650POPC   NC327771  23.488   9.349  14.398  0.0223 -0.1781  0.0366
69650POPC   PO427772  23.270   9.566  14.686  0.0526 -0.0617  0.0464
69650POPC   GL127773  23.434   9.206  14.828 -0.1573 -0.2692  0.0892
69650POPC   GL227774  23.216   9.019  14.721  0.0041 -0.0121 -0.1781
69650POPC   C1A27775  23.680   9.062  15.201 -0.1275 -0.1083  0.1637
69650POPC   D2A27776  23.734   8.633  15.357 -0.0318 -0.0725 -0.0117
69650POPC   C3A27777  23.822   8.312  15.731  0.0874  0.0502 -0.2340
69650POPC   C4A27778  23.723   8.154  16.153 -0.4520  0.5051  0.1007
69650POPC   C1B27779  23.620   8.784  14.725 -0.2970 -0.0975 -0.0277
69650POPC   C2B27780  23.714   8.339  14.806 -0.0306 -0.1759  0.2408
69650POPC   C3B27781  23.998   7.983  14.730  0.2028  0.0885 -0.1673
69650POPC   C4B27782  24.319   7.659  14.985  0.0102 -0.4102 -0.0110
69651POPC   NC327783  23.206  10.521  11.692  0.6179 -0.4197 -0.1153
69651POPC   PO427784  23.208  10.252  11.434  0.4571 -0.0026  0.0150
69651POPC   GL127785  23.449   9.865  11.477  0.1712 -0.1060 -0.0835
69651POPC   GL227786  23.496   9.564  11.466  0.1911  0.1015  0.0622
69651POPC   C1A27787  23.878   9.874  11.528 -0.1552  0.1668 -0.0746
69651POPC   D2A27788  24.148   9.507  11.494  0.0986  0.0132  0.0102
69651POPC   C3A27789  24.262   9.352  11.098  0.0832 -0.0506 -0.0417
69651POPC   C4A27790  24.244   8.936  10.857  0.1365 -0.0595  0.0099
69651POPC   C1B27791  23.726   9.200  11.478 -0.3229  0.4362 -0.4376
69651POPC   C2B27792  23.996   8.966  11.269  0.0084 -0.1862 -0.2447
69651POPC   C3B27793  24.264   8.595  11.231  0.0369  0.0151  0.0200
69651POPC   C4B27794  24.477   8.253  10.991  0.2497  0.0035  0.0250
69652POPC   NC327795  18.467  11.008  16.443  0.3678  0.1093  0.0409
69652POPC   PO427796  18.132  11.135  16.284  0.1001 -0.2055  0.3467
69652POPC   GL127797  18.125  11.185  16.729  0.0261 -0.0249 -0.2772
69652POPC   GL227798  18.350  11.333  16.866  0.0735 -0.1629  0.2548
69652POPC   C1A27799  18.038  11.136  17.225  0.2086  0.1279  0.1273
69652POPC   D2A27800  17.639  10.922  17.394 -0.0528 -0.3714 -0.0566
69652POPC   C3A27801  17.593  10.840  17.850  0.1289 -0.1602  0.0071
69652POPC   C4A27802  17.585  10.703  18.290  0.2854 -0.0933 -0.1884
69652POPC   C1B27803  18.432  11.346  17.360 -0.1581 -0.0023 -0.0614
69652POPC   C2B27804  18.673  11.405  17.772 -0.1139 -0.0294 -0.0770
69652POPC   C3B27805  18.707  11.173  18.171 -0.0332 -0.3182  0.0901
69652POPC   C4B27806  18.611  10.766  18.268 -0.3126  0.0988 -0.0864
69653POPC   NC327807  31.380   0.264  15.860 -0.2513 -0.1654  0.2120
69653POPC   PO427808  31.562  -0.000  16.074 -0.0170 -0.0852 -0.2641
69653POPC   GL127809  31.358   0.150  16.303 -0.1355  0.1395 -0.0485
69653POPC   GL227810  31.108   0.028  16.294  0.0452 -0.0240 -0.0149
69653POPC   C1A27811  31.366   0.088  16.743 -0.0875  0.0537 -0.0737
69653POPC   D2A27812  31.556   0.256  17.189  0.3171  0.2801  0.0084
69653POPC   C3A27813  31.462   0.531  17.533  0.0077 -0.0982 -0.2450
69653POPC   C4A27814  31.531   0.574  18.005  0.0175  0.3589  0.3155
69653POPC   C1B27815  30.872   0.119  16.665 -0.0141  0.4341  0.0815
69653POPC   C2B27816  30.834   0.182  17.142  0.3491  0.0009  0.2247
69653POPC   C3B27817  30.655   0.284  17.591  0.2040 -0.2384 -0.2610
69653POPC   C4B27818  30.651   0.723  17.821 -0.2837  0.0263 -0.2203
69654POPC   NC327819  30.583  10.512  16.369  0.2415  0.2172  0.3836
69654POPC   PO427820  30.274  10.337  16.542 -0.1120 -0.0092  0.0792
69654POPC   GL127821  30.481  10.136  16.804  0.2348  0.1589  0.0968
69654POPC   GL227822  30.774  10.166  16.665 -0.0230 -0.1153  0.1192
69654POPC   C1A27823  30.266   9.893  17.160 -0.0364 -0.1492 -0.0152
69654POPC   D2A27824  30.373   9.643  17.539 -0.0566  0.0184 -0.0486
69654POPC   C3A27825  30.674   9.284  17.526 -0.0844  0.0723 -0.1496
69654POPC   C4A27826  30.926   9.032  17.840  0.0254  0.1943 -0.2721
69654POPC   C1B27827  30.715  10.136  17.171  0.1219 -0.0903  0.1092
69654POPC   C2B27828  30.558  10.194  17.539 -0.2002  0.1429 -0.4258
69654POPC   C3B27829  30.502  10.073  17.993  0.1042 -0.1724 -0.2229
69654POPC   C4B27830  30.470   9.627  18.036  0.0086 -0.1500 -0.0526
69655POPC   NC327831  24.731  11.810  15.832  0.2235 -0.0038 -0.0017
69655POPC   PO427832  24.431  11.643  16.019  0.0045  0.1954  0.0487
69655POPC   GL127833  24.125  11.487  16.262  0.1947  0.1959  0.1397
69655POPC   GL227834  24.165  11.230  16.443 -0.0946  0.1235 -0.5109
69655POPC   C1A27835  23.839  11.551  16.626 -0.2051  0.2683  0.1635
69655POPC   D2A27836  23.630  11.382  16.991 -0.1922  0.4142 -0.1913
69655POPC   C3A27837  23.618  11.626  17.362 -0.0402 -0.0159  0.2755
69655POPC   C4A27838  23.852  11.997  17.502  0.0852  0.0792 -0.0408
69655POPC   C1B27839  24.113  11.109  16.908  0.0268 -0.0062 -0.1334
69655POPC   C2B27840  23.988  11.183  17.352  0.0323 -0.1313 -0.2468
69655POPC   C3B27841  23.834  11.084  17.808 -0.4351  0.2346  0.0606
69655POPC   C4B27842  23.449  11.073  18.089 -0.0272  0.1571  0.0750
69656POPC   NC327843  17.212   7.141  16.120  0.2909 -0.4633 -0.0049
69656POPC   PO427844  17.166   7.323  15.839  0.0892 -0.2968  0.0358
69656POPC   GL127845  16.975   7.571  16.149 -0.1840 -0.2324 -0.0815
69656POPC   GL227846  17.145   7.763  16.175  0.2142  0.0486 -0.0318
69656POPC   C1A27847  16.732   7.431  16.557 -0.0721  0.2439 -0.3300
69656POPC   D2A27848  16.645   7.637  16.937  0.0227  0.0259  0.0530
69656POPC   C3A27849  16.394   7.429  17.256  0.1659  0.1154 -0.0929
69656POPC   C4A27850  16.285   7.154  17.610 -0.0515 -0.3001 -0.1110
69656POPC   C1B27851  17.256   7.481  16.546 -0.1600  0.1386  0.0697
69656POPC   C2B27852  17.146   7.409  17.006 -0.2448  0.0575 -0.0170
69656POPC   C3B27853  16.849   7.377  17.365  0.0542 -0.1382  0.2895
69656POPC   C4B27854  16.579   7.565  17.719  0.2706  0.0120  0.1555
69657POPC   NC327855  31.334  11.163  16.463 -0.0545 -0.0469 -0.3585
69657POPC   PO427856  31.722  11.299  16.415  0.2255 -0.0323 -0.1423
69657POPC   GL127857  31.712  11.247  16.815 -0.4803 -0.0281 -0.3472
69657POPC   GL227858  31.480  11.133  17.030  0.1201  0.2386 -0.0546
69657POPC   C1A27859  31.907  11.388  17.256 -0.1625 -0.3327  0.1597
69657POPC   D2A27860  31.860  11.347  17.730  0.0826 -0.0007 -0.1247
69657POPC   C3A27861  32.176  11.058  17.922  0.0855  0.0928  0.2021
69657POPC   C4A27862  32.161  10.702  18.253 -0.0893  0.0684 -0.1103
69657POPC   C1B27863  31.505  11.106  17.525 -0.1573 -0.0167 -0.3601
69657POPC   C2B27864  31.599  10.864  17.898  0.2294 -0.0769  0.0741
69657POPC   C3B27865  31.765  10.472  18.069 -0.0933 -0.0002 -0.1832
69657POPC   C4B27866  31.917  10.028  18.077  0.1762  0.1667 -0.0602
69658POPC   NC327867  21.487   2.918  12.336 -0.2721 -0.1364  0.0596
69658POPC   PO427868  21.795   2.941  12.569  0.3739 -0.2571  0.2504
69658POPC   GL127869  22.116   3.072  12.752  0.0037 -0.3176  0.0986
69658POPC   GL227870  22.423   3.023  12.737  0.0097  0.2870  0.0752
69658POPC   C1A27871  22.339   3.448  12.929 -0.0041 -0.1352  0.0302
69658POPC   D2A27872  22.637   3.788  12.930 -0.0564  0.1573 -0.3194
69658POPC   C3A27873  22.970   4.114  12.835  0.1791  0.4368 -0.1502
69658POPC   C4A27874  23.380   4.266  12.715  0.3308  0.0680 -0.2737
69658POPC   C1B27875  22.652   3.218  12.496 -0.0075 -0.0486 -0.0560
69658POPC   C2B27876  23.058   3.405  12.419  0.0541  0.0632  0.0771
69658POPC   C3B27877  23.502   3.349  12.429  0.1381  0.0434  0.0491
69658POPC   C4B27878  23.943   3.389  12.224  0.2330 -0.1173  0.3142
69659POPC   NC327879  19.138  11.536  16.613 -0.1019 -0.3399  0.0988
69659POPC   PO427880  18.739  11.419  16.612 -0.3205 -0.0232 -0.0079
69659POPC   GL127881  18.916  11.543  17.011  0.2332 -0.4494  0.2635
69659POPC   GL227882  19.030  11.367  17.149 -0.1962  0.1778 -0.1647
69659POPC   C1A27883  18.720  11.806  17.423  0.4125  0.0355 -0.0558
69659POPC   D2A27884  18.610  11.948  17.793 -0.1637  0.0600 -0.2042
69659POPC   C3A27885  18.696  11.762  18.132  0.2571 -0.1234  0.0283
69659POPC   C4A27886  18.927  11.576  18.401  0.0378  0.3588 -0.1159
69659POPC   C1B27887  19.123  11.214  17.575  0.1065 -0.1109 -0.1045
69659POPC   C2B27888  19.227  11.273  18.003 -0.2739 -0.4152 -0.0252
69659POPC   C3B27889  19.393  11.420  18.439 -0.0557 -0.0710 -0.0898
69659POPC   C4B27890  19.150  11.478  18.828 -0.0194  0.0284 -0.0463
69660POPC   NC327891  17.942   7.560  15.781 -0.0319  0.0788 -0.0712
69660POPC   PO427892  17.813   7.903  15.949  0.0965  0.2663 -0.1553
69660POPC   GL127893  17.837   7.980  16.379 -0.0319  0.2049  0.1920
69660POPC   GL227894  18.008   7.844  16.491 -0.0481  0.1522  0.1179
69660POPC   C1A27895  17.507   7.941  16.755  0.0183  0.2169  0.1327
69660POPC   D2A27896  17.580   7.957  17.209  0.2913  0.0705 -0.0788
69660POPC   C3A27897  17.371   7.575  17.435 -0.1256 -0.5376  0.1446
69660POPC   C4A27898  17.124   7.465  17.813 -0.0876  0.2319 -0.1044
69660POPC   C1B27899  18.044   7.940  16.945  0.1080  0.0633  0.2633
69660POPC   C2B27900  17.965   7.694  17.321 -0.0118  0.1442 -0.0058
69660POPC   C3B27901  18.112   7.656  17.766 -0.2850 -0.0026 -0.1632
69660POPC   C4B27902  18.018   7.570  18.199 -0.1929  0.0034 -0.1122
69661POPC   NC327903  20.595   5.295  12.692 -0.0078 -0.1769  0.2902
69661POPC   PO427904  20.966   5.319  12.579 -0.0936 -0.2500 -0.1969
69661POPC   GL127905  21.269   5.144  12.665  0.0839  0.3457  0.2295
69661POPC   GL227906  21.585   5.224  12.758 -0.2678 -0.2679 -0.0810
69661POPC   C1A27907  21.452   4.738  12.806  0.1916 -0.0397  0.1149
69661POPC   D2A27908  21.765   4.367  12.714 -0.1339 -0.0388 -0.1196
69661POPC   C3A27909  22.174   4.604  12.810  0.0570  0.1296  0.2701
69661POPC   C4A27910  22.453   4.891  12.987  0.3189  0.2558  0.0163
69661POPC   C1B27911  21.887   4.911  12.477 -0.3211  0.1261 -0.0972
69661POPC   C2B27912  22.327   4.841  12.417  0.0062  0.0583  0.0916
69661POPC   C3B27913  22.740   4.991  12.346 -0.0020 -0.1729  0.0567
69661POPC   C4B27914  23.156   4.848  12.539  0.0779 -0.4130  0.1799
69662POPC   NC327915  25.615  11.780   9.850  0.1055 -0.1985  0.1530
69662POPC   PO427916  25.893  11.736  10.089 -0.3017 -0.0066 -0.0600
69662POPC   GL127917  25.772  11.384   9.972 -0.0909 -0.0874  0.0341
69662POPC   GL227918  25.635  11.293   9.741  0.0745 -0.1572 -0.1230
69662POPC   C1A27919  25.851  10.910  10.014  0.3519 -0.1490 -0.5626
69662POPC   D2A27920  25.851  10.479  10.140  0.1110  0.0581  0.3134
69662POPC   C3A27921  25.850  10.104   9.860  0.0263  0.1685 -0.1292
69662POPC   C4A27922  25.872   9.808   9.535 -0.0801  0.0669 -0.4506
69662POPC   C1B27923  25.485  11.065   9.346  0.2277 -0.2585 -0.0254
69662POPC   C2B27924  25.329  10.896   8.971 -0.0711  0.1736 -0.1662
69662POPC   C3B27925  25.482  10.773   8.537 -0.1638  0.0819  0.0470
69662POPC   C4B27926  25.556  10.515   8.128  0.0516 -0.0523 -0.5362
69663POPC   NC327927  26.319  10.411  15.281 -0.0712 -0.0520  0.3249
69663POPC   PO427928  26.246  10.137  14.998  0.1589 -0.0342 -0.0386
69663POPC   GL127929  25.942  10.012  15.225  0.1963  0.1665  0.0225
69663POPC   GL227930  26.089   9.834  15.418 -0.1818  0.2058  0.1035
69663POPC   C1A27931  25.627   9.735  15.529 -0.0345 -0.0079 -0.1562
69663POPC   D2A27932  25.522   9.305  15.711 -0.0868 -0.3718 -0.0803
69663POPC   C3A27933  25.237   9.268  16.090 -0.0829  0.0900 -0.1761
69663POPC   C4A27934  25.028   9.243  16.543  0.0565  0.1396 -0.0404
69663POPC   C1B27935  26.096   9.433  15.651 -0.3009  0.3289  0.1492
69663POPC   C2B27936  26.188   8.967  15.708 -0.1212  0.3938  0.2591
69663POPC   C3B27937  26.161   8.524  15.596  0.0238 -0.4206 -0.1461
69663POPC   C4B27938  26.150   8.250  15.193 -0.0532  0.1972  0.1059
69664POPC   NC327939  24.789  10.036  15.124  0.3622 -0.0635  0.1684
69664POPC   PO427940  24.711   9.842  14.782 -0.3379  0.3579 -0.2030
69664POPC   GL127941  24.828   9.480  14.878  0.1297  0.0404 -0.1795
69664POPC   GL227942  25.044   9.629  15.083  0.0638 -0.0528 -0.0082
69664POPC   C1A27943  25.025   9.061  14.919 -0.1886 -0.2059 -0.0235
69664POPC   D2A27944  24.861   8.715  15.124  0.0023 -0.0592 -0.0098
69664POPC   C3A27945  24.792   8.768  15.597 -0.6522 -0.1570 -0.0209
69664POPC   C4A27946  24.490   8.724  15.949  0.0200 -0.2489 -0.1335
69664POPC   C1B27947  25.487   9.440  15.185  0.3582  0.2022 -0.2746
69664POPC   C2B27948  25.800   9.131  15.345 -0.1116  0.0474 -0.2577
69664POPC   C3B27949  25.710   8.753  15.656 -0.1396 -0.1827 -0.1674
69664POPC   C4B27950  25.939   8.640  16.077 -0.0854 -0.1344 -0.0417
69665POPC   NC327951  19.463   3.048  14.590  0.1928  0.2007 -0.1680
69665POPC   PO427952  19.651   3.415  14.677  0.3178 -0.0379  0.1478
69665POPC   GL127953  19.943   3.428  14.934  0.0177 -0.1498 -0.1286
69665POPC   GL227954  19.930   3.220  15.175 -0.2893 -0.1932  0.1567
69665POPC   C1A27955  20.408   3.597  15.048 -0.0213 -0.2770 -0.1247
69665POPC   D2A27956  20.689   3.951  15.213  0.1980  0.2767  0.0419
69665POPC   C3A27957  20.741   4.118  15.631 -0.3291 -0.1558 -0.0804
69665POPC   C4A27958  21.101   4.279  15.869 -0.0059  0.0762  0.2146
69665POPC   C1B27959  20.189   3.412  15.545  0.0073 -0.3269  0.4812
69665POPC   C2B27960  20.645   3.580  15.548  0.2447  0.0549  0.2981
69665POPC   C3B27961  21.081   3.734  15.532 -0.1543 -0.1481  0.0017
69665POPC   C4B27962  21.426   4.120  15.517  0.0665 -0.2927  0.0730
69666POPC   NC327963  22.561  14.531  16.211  0.0555 -0.0181 -0.0404
69666POPC   PO427964  22.450  14.874  16.025  0.0833 -0.0561 -0.3466
69666POPC   GL127965  22.470  15.026  16.408  0.1879  0.5027  0.1247
69666POPC   GL227966  22.327  15.012  16.655  0.3075 -0.0857 -0.0532
69666POPC   C1A27967  22.794  15.169  16.696 -0.1495 -0.3046 -0.1301
69666POPC   D2A27968  22.804  15.176  17.171  0.1500  0.1917  0.2281
69666POPC   C3A27969  22.898  15.402  17.538 -0.1487 -0.0143  0.0883
69666POPC   C4A27970  23.065  15.632  17.795 -0.1201  0.1824 -0.2851
69666POPC   C1B27971  22.197  14.967  17.135  0.1080 -0.0142  0.0690
69666POPC   C2B27972  22.224  14.913  17.604  0.0742 -0.0863  0.2016
69666POPC   C3B27973  22.192  14.981  18.083  0.0848  0.0497  0.1418
69666POPC   C4B27974  22.053  15.355  18.352 -0.0515 -0.0636 -0.0426
69667POPC   NC327975  21.240   8.239  14.463  0.1203 -0.1030  0.0202
69667POPC   PO427976  21.040   8.255  14.771  0.1592 -0.1114 -0.1213
69667POPC   GL127977  21.411   8.031  14.929  0.2951  0.0222  0.4991
69667POPC   GL227978  21.572   7.918  14.714 -0.5063  0.3178  0.1797
69667POPC   C1A27979  21.645   7.837  15.266  0.1349 -0.0995  0.1659
69667POPC   D2A27980  21.938   7.814  15.622  0.3239 -0.0178 -0.1635
69667POPC   C3A27981  22.023   7.517  15.937 -0.0222  0.0059 -0.2362
69667POPC   C4A27982  21.854   7.091  15.953 -0.1655  0.0815 -0.0446
69667POPC   C1B27983  21.768   7.529  14.924  0.1293 -0.0000  0.0721
69667POPC   C2B27984  21.997   7.167  14.689 -0.0006  0.0519 -0.1216
69667POPC   C3B27985  22.395   6.863  14.740  0.3525 -0.4498  0.0381
69667POPC   C4B27986  22.679   6.536  14.753  0.0056 -0.0939  0.0778
69668POPC   NC327987  18.521  12.205  16.653 -0.2026  0.0086 -0.0410
69668POPC   PO427988  18.404  11.851  16.785  0.0670  0.1826  0.2803
69668POPC   GL127989  18.296  11.876  17.142 -0.1664 -0.0648 -0.2002
69668POPC   GL227990  18.121  11.637  17.168  0.0442 -0.0729 -0.0433
69668POPC   C1A27991  18.218  12.120  17.513  0.1116  0.2595  0.1427
69668POPC   D2A27992  18.075  12.247  17.937 -0.2086 -0.0583  0.0793
69668POPC   C3A27993  18.342  12.033  18.290 -0.1689  0.0110 -0.0968
69668POPC   C4A27994  18.576  12.210  18.708 -0.1259 -0.0303  0.0737
69668POPC   C1B27995  18.213  11.647  17.644  0.1665 -0.1627 -0.0717
69668POPC   C2B27996  18.238  11.457  18.081 -0.2334  0.0077  0.0196
69668POPC   C3B27997  18.151  11.200  18.485 -0.1705  0.0632  0.1993
69668POPC   C4B27998  17.998  10.815  18.616  0.0685 -0.1932 -0.0180
69669POPC   NC327999  25.402  14.183  15.518 -0.1321 -0.1753 -0.2085
69669POPC   PO428000  25.654  14.264  15.833 -0.1350  0.1947  0.1417
69669POPC   GL128001  25.581  14.289  16.248  0.4243 -0.2406  0.1325
69669POPC   GL228002  25.851  14.448  16.259  0.0350 -0.1022 -0.2598
69669POPC   C1A28003  25.513  14.300  16.689  0.0340 -0.1400  0.0951
69669POPC   D2A28004  25.188  14.421  16.945 -0.1258  0.0785  0.3395
69669POPC   C3A28005  25.218  14.594  17.388  0.2474  0.3037  0.0853
69669POPC   C4A28006  25.240  14.963  17.670  0.3309  0.3775  0.2715
69669POPC   C1B28007  25.927  14.541  16.739 -0.2688  0.1532 -0.4626
69669POPC   C2B28008  25.681  14.527  17.111 -0.2851 -0.0533 -0.1154
69669POPC   C3B28009  25.884  14.418  17.499 -0.1757 -0.0740 -0.1800
69669POPC   C4B28010  25.940  14.374  17.936 -0.2170  0.1542 -0.0065
69670POPC   NC328011  28.941  32.657  15.187 -0.0138  0.1877  0.0434
69670POPC   PO428012  29.102  33.008  15.231  0.0474 -0.1794 -0.0724
69670POPC   GL128013  28.969  33.082  15.567  0.2252  0.2291 -0.0807
69670POPC   GL228014  28.820  32.896  15.745 -0.1774  0.0139  0.1521
69670POPC   C1A28015  28.578  33.380  15.732  0.0136  0.0398 -0.1314
69670POPC   D2A28016  28.539  33.600  16.143  0.1348  0.0076 -0.0641
69670POPC   C3A28017  28.323  33.892  16.408 -0.0300  0.0815 -0.0830
69670POPC   C4A28018  28.040  34.277  16.409 -0.1339  0.0966 -0.0318
69670POPC   C1B28019  28.576  33.085  16.125 -0.0148 -0.0179  0.1943
69670POPC   C2B28020  28.439  33.149  16.558 -0.2139 -0.1376 -0.2481
69670POPC   C3B28021  28.322  33.303  16.945 -0.1055 -0.1386 -0.1503
69670POPC   C4B28022  28.012  33.556  17.114  0.1827  0.0053  0.2337
69671POPC   NC328023  21.533  12.512  16.428 -0.0333 -0.3663  0.2864
69671POPC   PO428024  21.911  12.568  16.468 -0.0031  0.1310 -0.0152
69671POPC   GL128025  22.053  12.290  16.718  0.1212  0.4919 -0.1707
69671POPC   GL228026  22.218  12.329  16.853  0.1060  0.1688 -0.1478
69671POPC   C1A28027  21.822  12.104  17.111 -0.0630  0.1705 -0.1406
69671POPC   D2A28028  21.896  11.814  17.510  0.1444 -0.2030  0.1747
69671POPC   C3A28029  22.131  11.835  17.875 -0.0746  0.0271 -0.2193
69671POPC   C4A28030  22.124  11.846  18.323 -0.1116  0.2739  0.1054
69671POPC   C1B28031  22.296  12.364  17.304  0.1961 -0.2428 -0.0456
69671POPC   C2B28032  22.302  12.323  17.767  0.2673  0.0170  0.0342
69671POPC   C3B28033  22.205  12.465  18.186 -0.2125 -0.2522 -0.0845
69671POPC   C4B28034  22.277  12.862  18.446 -0.0314 -0.1721 -0.2717
69672POPC   NC328035  30.878  13.890  16.251  0.0333 -0.0561 -0.2297
69672POPC   PO428036  30.630  14.056  16.496  0.0589 -0.0260  0.3669
69672POPC   GL128037  30.535  14.086  16.832 -0.3180  0.0926  0.1357
69672POPC   GL228038  30.309  14.156  16.846 -0.1399  0.0148 -0.0056
69672POPC   C1A28039  30.649  13.982  17.227 -0.3040 -0.2259 -0.1101
69672POPC   D2A28040  30.580  13.996  17.691 -0.3781 -0.0886 -0.1111
69672POPC   C3A28041  30.910  13.891  17.965 -0.0747 -0.1857  0.0927
69672POPC   C4A28042  31.123  13.889  18.344 -0.3746  0.1032 -0.0830
69672POPC   C1B28043  30.184  14.191  17.303 -0.1438 -0.1048  0.2003
69672POPC   C2B28044  30.099  14.094  17.728 -0.0599  0.1285 -0.2463
69672POPC   C3B28045  30.259  14.032  18.176  0.1035  0.0615 -0.3562
69672POPC   C4B28046  30.650  14.152  18.373  0.2971 -0.4182  0.2053
69673POPC   NC328047  22.435   9.144  12.784 -0.1924 -0.2662  0.1050
69673POPC   PO428048  22.391   8.775  12.869  0.1907 -0.1125  0.1046
69673POPC   GL128049  22.735   8.556  12.869 -0.1800 -0.0907  0.3214
69673POPC   GL228050  22.900   8.558  13.112 -0.0264 -0.2388  0.0881
69673POPC   C1A28051  23.019   8.202  12.767 -0.1100 -0.4335 -0.0252
69673POPC   D2A28052  22.975   7.733  12.670 -0.2703 -0.1247 -0.1071
69673POPC   C3A28053  23.293   7.442  12.698 -0.0938  0.0562 -0.0757
69673POPC   C4A28054  23.605   7.441  12.954  0.0212  0.0935  0.1374
69673POPC   C1B28055  23.164   8.242  13.351 -0.4310  0.2158 -0.1944
69673POPC   C2B28056  23.610   8.144  13.412 -0.2830 -0.0911  0.0817
69673POPC   C3B28057  24.054   8.075  13.458  0.3649 -0.2098 -0.0001
69673POPC   C4B28058  24.360   7.780  13.252  0.1855  0.0044  0.1006
69674POPC   NC328059  20.153  13.192  16.845  0.1230 -0.1040 -0.0345
69674POPC   PO428060  20.483  13.155  16.633 -0.1727 -0.0872  0.3130
69674POPC   GL128061  20.520  12.893  17.027 -0.2284  0.0602 -0.0701
69674POPC   GL228062  20.502  13.165  17.256 -0.2556 -0.2710 -0.2636
69674POPC   C1A28063  20.518  12.558  17.390 -0.2256 -0.0573 -0.0909
69674POPC   D2A28064  20.695  12.476  17.807 -0.1668 -0.2363  0.2265
69674POPC   C3A28065  20.442  12.074  17.920 -0.0341  0.1476 -0.1742
69674POPC   C4A28066  20.486  11.922  18.384  0.0836  0.1852  0.0700
69674POPC   C1B28067  20.577  13.054  17.669 -0.2429  0.4545 -0.3144
69674POPC   C2B28068  20.890  12.951  18.005 -0.0259 -0.1540 -0.0756
69674POPC   C3B28069  21.064  12.770  18.375  0.0210  0.1855  0.2588
69674POPC   C4B28070  21.435  12.636  18.616 -0.0719 -0.0846 -0.0801
69675POPC   NC328071  19.291   6.127  15.626  0.2731 -0.1248 -0.0016
69675POPC   PO428072  18.998   6.372  15.645  0.0802 -0.0049  0.2524
69675POPC   GL128073  19.034   6.265  16.008 -0.2806  0.1159 -0.0547
69675POPC   GL228074  19.205   6.436  16.109  0.1055 -0.1649 -0.0314
69675POPC   C1A28075  19.000   6.155  16.436  0.1148 -0.1210 -0.1683
69675POPC   D2A28076  19.094   6.038  16.875 -0.1700 -0.1352  0.0141
69675POPC   C3A28077  18.790   5.862  17.104 -0.1145  0.0734 -0.0812
69675POPC   C4A28078  18.477   5.960  17.379  0.0969 -0.0132  0.1353
69675POPC   C1B28079  19.357   6.500  16.556  0.0424 -0.1284 -0.3442
69675POPC   C2B28080  19.596   6.172  16.790 -0.0365  0.0250  0.0002
69675POPC   C3B28081  19.932   5.941  17.084 -0.0069  0.1313  0.0370
69675POPC   C4B28082  19.877   5.550  17.339  0.0207  0.3045 -0.0811
69676POPC   NC328083  26.134  10.031  14.148  0.4921 -0.2945 -0.5071
69676POPC   PO428084  26.245  10.044  14.502 -0.3151 -0.2641 -0.0457
69676POPC   GL128085  26.221   9.707  14.543 -0.4263 -0.1520  0.0095
69676POPC   GL228086  26.553   9.636  14.578 -0.1345  0.1192 -0.0321
69676POPC   C1A28087  26.246   9.314  14.303 -0.2459  0.1005 -0.1683
69676POPC   D2A28088  26.234   8.859  14.319 -0.0151 -0.0634 -0.0409
69676POPC   C3A28089  26.042   8.634  14.661  0.0066  0.2927  0.0234
69676POPC   C4A28090  25.881   8.676  15.148  0.2661 -0.2132 -0.0107
69676POPC   C1B28091  26.649   9.192  14.635 -0.1136 -0.0113 -0.0805
69676POPC   C2B28092  26.505   8.837  14.883  0.0471  0.2023  0.4050
69676POPC   C3B28093  26.592   8.568  15.223 -0.0627 -0.0523 -0.0141
69676POPC   C4B28094  26.522   8.217  15.523 -0.1419  0.0457 -0.0063
69677POPC   NC328095  16.010   5.185  15.815 -0.1290 -0.3103  0.1012
69677POPC   PO428096  16.331   5.214  15.675  0.2595 -0.1448  0.3850
69677POPC   GL128097  16.313   5.084  16.121 -0.1240  0.1526 -0.1312
69677POPC   GL228098  16.423   4.834  16.192  0.3021 -0.0273  0.1243
69677POPC   C1A28099  16.261   5.304  16.510  0.1782 -0.1013  0.1457
69677POPC   D2A28100  16.438   5.260  16.966 -0.1667  0.3199 -0.0734
69677POPC   C3A28101  16.222   4.871  16.915  0.0847 -0.0939 -0.1460
69677POPC   C4A28102  16.041   4.748  16.520  0.5021  0.0814 -0.0534
69677POPC   C1B28103  16.576   4.961  16.591 -0.0165  0.2453 -0.1327
69677POPC   C2B28104  16.743   4.950  17.055  0.0498  0.1682 -0.2377
69677POPC   C3B28105  16.761   5.030  17.520  0.0247 -0.1396  0.1384
69677POPC   C4B28106  16.641   4.900  17.961 -0.0525  0.3926 -0.3241
69678POPC   NC328107  31.080  10.874  15.627  0.1505  0.2638 -0.2586
69678POPC   PO428108  31.065  10.772  15.987 -0.3157 -0.2622 -0.2512
69678POPC   GL128109  31.108  10.539  16.365 -0.2007  0.0680 -0.0190
69678POPC   GL228110  31.049  10.569  16.697  0.0125  0.0777  0.1546
69678POPC   C1A28111  31.253  10.089  16.520 -0.0015  0.3096  0.0215
69678POPC   D2A28112  31.238   9.613  16.642  0.2413 -0.3053  0.1160
69678POPC   C3A28113  31.326   9.367  16.988 -0.3918  0.2787 -0.0161
69678POPC   C4A28114  31.233   9.183  17.353 -0.1761  0.3161  0.0980
69678POPC   C1B28115  31.068  10.441  17.142  0.0110  0.0530  0.0186
69678POPC   C2B28116  31.159  10.124  17.439 -0.2766 -0.2206 -0.0645
69678POPC   C3B28117  31.456   9.992  17.760  0.0750 -0.0658 -0.2963
69678POPC   C4B28118  31.831   9.663  17.770 -0.3012  0.0421  0.1072
69679POPC   NC328119  31.735   1.107  16.321 -0.1566  0.1524 -0.0748
69679POPC   PO428120  31.628   1.364  16.001  0.1116  0.0692  0.1719
69679POPC   GL128121  31.341   1.472  16.278 -0.0393 -0.1959 -0.1425
69679POPC   GL228122  31.311   1.264  16.527  0.2329 -0.0693  0.1925
69679POPC   C1A28123  30.853   1.445  16.425 -0.0206  0.0707  0.1903
69679POPC   D2A28124  30.493   1.234  16.629  0.0082  0.0377  0.0542
69679POPC   C3A28125  30.108   1.467  16.675 -0.0617  0.0377 -0.1000
69679POPC   C4A28126  29.931   1.829  16.817 -0.1698 -0.2685 -0.2263
69679POPC   C1B28127  31.444   1.518  16.916 -0.0542  0.3100  0.0133
69679POPC   C2B28128  31.299   1.706  17.315  0.1569 -0.1700 -0.2913
69679POPC   C3B28129  31.157   1.587  17.731 -0.0385  0.2720  0.1257
69679POPC   C4B28130  31.144   1.655  18.209 -0.0239 -0.1402 -0.0910
69680POPC   NC328131  17.634   9.478  16.449 -0.2529 -0.2201  0.0458
69680POPC   PO428132  17.922   9.261  16.281  0.0758  0.1078  0.1260
69680POPC   GL128133  17.995   9.237  16.613  0.1704 -0.0702 -0.0624
69680POPC   GL228134  18.277   9.389  16.714  0.0632  0.1167  0.1418
69680POPC   C1A28135  17.869   9.394  16.998 -0.0641  0.1695 -0.0473
69680POPC   D2A28136  17.597   9.351  17.385  0.1324  0.0124  0.2019
69680POPC   C3A28137  17.696   8.973  17.627  0.1553 -0.1486  0.2455
69680POPC   C4A28138  17.902   8.558  17.732 -0.0851  0.2385 -0.1010
69680POPC   C1B28139  18.483   9.384  17.075  0.1019 -0.3013 -0.0426
69680POPC   C2B28140  18.531   9.206  17.488 -0.0727 -0.0880  0.2945
69680POPC   C3B28141  18.622   8.755  17.573 -0.2274  0.2279  0.3955
69680POPC   C4B28142  18.398   8.507  17.868  0.0588 -0.1432 -0.0141
69681POPC   NC328143  26.443  11.619  16.228  0.4352 -0.2006 -0.0485
69681POPC   PO428144  26.051  11.709  16.273  0.1160  0.2937  0.2098
69681POPC   GL128145  25.960  11.573  16.563 -0.1458 -0.1051 -0.1832
69681POPC   GL228146  25.825  11.779  16.758 -0.0053 -0.0069  0.1235
69681POPC   C1A28147  25.926  11.142  16.756 -0.1436  0.1634 -0.2402
69681POPC   D2A28148  25.834  10.710  16.949  0.0100  0.2264 -0.0679
69681POPC   C3A28149  25.945  10.591  17.407  0.0665 -0.0831  0.0246
69681POPC   C4A28150  25.929  10.590  17.885  0.0980  0.0036  0.0704
69681POPC   C1B28151  25.992  11.530  17.087  0.3367 -0.0381 -0.2439
69681POPC   C2B28152  25.944  11.102  17.265  0.0295 -0.0804  0.0544
69681POPC   C3B28153  26.192  11.008  17.686  0.0139 -0.0781 -0.0706
69681POPC   C4B28154  26.662  11.004  17.854  0.0671 -0.0409  0.0680
69682POPC   NC328155  30.325   3.787  13.713  0.3653  0.0533  0.2390
69682POPC   PO428156  29.983   3.786  13.492 -0.1313 -0.5468 -0.2331
69682POPC   GL128157  29.887   3.928  13.825 -0.2898 -0.0164  0.0243
69682POPC   GL228158  30.048   4.095  13.980 -0.0742  0.1766  0.1687
69682POPC   C1A28159  29.840   3.791  14.280 -0.3444  0.3114 -0.1572
69682POPC   D2A28160  29.677   3.654  14.659 -0.0944  0.0211  0.0391
69682POPC   C3A28161  29.282   3.869  14.751 -0.3375  0.2005 -0.0186
69682POPC   C4A28162  28.920   4.093  14.661  0.2104  0.2873 -0.3021
69682POPC   C1B28163  29.592   4.234  13.882  0.0869 -0.1020  0.2305
69682POPC   C2B28164  29.160   4.383  14.048  0.1842 -0.1552  0.1606
69682POPC   C3B28165  28.744   4.386  13.775  0.1156 -0.1020 -0.0236
69682POPC   C4B28166  28.270   4.440  13.826  0.2470 -0.0245  0.0145
69683POPC   NC328167  29.482  14.437  16.252 -0.1404  0.1051  0.0354
69683POPC   PO428168  29.390  14.809  16.211 -0.0445  0.0425 -0.3645
69683POPC   GL128169  29.431  14.814  16.569 -0.1533 -0.2618 -0.1527
69683POPC   GL228170  29.551  15.114  16.774  0.2947 -0.0238 -0.2132
69683POPC   C1A28171  29.030  14.862  16.766  0.1716  0.0419  0.1884
69683POPC   D2A28172  28.734  14.976  17.055 -0.0870  0.3007  0.0361
69683POPC   C3A28173  28.605  15.377  17.235 -0.0491 -0.0739  0.0212
69683POPC   C4A28174  28.232  15.712  17.258 -0.2423 -0.1402  0.0876
69683POPC   C1B28175  29.504  15.483  17.053  0.3179 -0.0154  0.2969
69683POPC   C2B28176  29.614  15.904  16.991 -0.0361  0.1593 -0.0422
69683POPC   C3B28177  29.457  16.326  17.102 -0.1596  0.2877 -0.1010
69683POPC   C4B28178  29.525  16.500  17.575 -0.1727  0.3514  0.4301
69684POPC   NC328179  21.346   7.477  14.596 -0.0764  0.2033 -0.0042
69684POPC   PO428180  21.118   7.792  14.660  0.1952  0.0495  0.4874
69684POPC   GL128181  21.105   7.775  15.082 -0.2491 -0.2836  0.0796
69684POPC   GL228182  21.288   7.581  15.064  0.2061  0.1236  0.0982
69684POPC   C1A28183  21.107   7.790  15.567 -0.0836 -0.0382  0.1991
69684POPC   D2A28184  21.107   7.482  15.927 -0.0533 -0.0082  0.0890
69684POPC   C3A28185  20.819   7.556  16.186  0.0829  0.0471 -0.1539
69684POPC   C4A28186  20.363   7.507  16.134 -0.3214 -0.1083 -0.1951
69684POPC   C1B28187  21.288   7.261  15.373 -0.1734 -0.2477  0.1974
69684POPC   C2B28188  21.583   6.918  15.535  0.2788  0.1881 -0.0606
69684POPC   C3B28189  21.784   6.653  15.824 -0.1677  0.2554  0.0968
69684POPC   C4B28190  21.759   6.216  15.886  0.4087  0.0408 -0.2956
69685POPC   NC328191  28.258   9.830  12.114 -0.0147  0.4235 -0.0892
69685POPC   PO428192  28.193  10.090  12.443  0.0082 -0.2597  0.0394
69685POPC   GL128193  27.890   9.728  12.502 -0.1192 -0.3197  0.0365
69685POPC   GL228194  27.616   9.843  12.494 -0.1483  0.0920 -0.3184
69685POPC   C1A28195  27.734   9.637  12.052 -0.0537 -0.1103  0.2212
69685POPC   D2A28196  27.598   9.545  11.619 -0.1949  0.0736 -0.3745
69685POPC   C3A28197  27.238   9.270  11.601 -0.0578 -0.1773  0.4103
69685POPC   C4A28198  27.046   8.917  11.441 -0.1328  0.0971  0.1641
69685POPC   C1B28199  27.564   9.404  12.554 -0.1664 -0.2407 -0.3001
69685POPC   C2B28200  27.397   9.011  12.445  0.0516 -0.1380 -0.0921
69685POPC   C3B28201  27.286   8.674  12.731 -0.1111 -0.0916 -0.0439
69685POPC   C4B28202  27.040   8.486  13.044 -0.0705  0.3375 -0.0896
69686POPC   NC328203  17.444   8.169  16.089  0.4938  0.1327 -0.0868
69686POPC   PO428204  17.696   8.453  16.167 -0.4024 -0.1254 -0.0004
69686POPC   GL128205  17.475   8.292  16.526  0.1574  0.1585 -0.2261
69686POPC   GL228206  17.703   8.377  16.655  0.0940  0.1552  0.2521
69686POPC   C1A28207  17.188   8.365  16.924 -0.0898  0.1104 -0.2425
69686POPC   D2A28208  17.038   8.411  17.395  0.0884 -0.2493 -0.0641
69686POPC   C3A28209  17.254   8.586  17.799  0.2277  0.2212 -0.0298
69686POPC   C4A28210  17.548   8.693  18.095 -0.1733 -0.1396 -0.0832
69686POPC   C1B28211  18.164   8.360  16.755  0.0718  0.2243  0.0147
69686POPC   C2B28212  18.606   8.434  16.813 -0.2235 -0.2018  0.2167
69686POPC   C3B28213  18.838   8.300  17.166  0.4355 -0.0153  0.3403
69686POPC   C4B28214  19.110   8.168  17.497 -0.2255 -0.1848 -0.1134
69687POPC   NC328215  29.894   8.652  13.465  0.3159  0.6212 -0.1347
69687POPC   PO428216  29.800   8.448  13.141 -0.0525  0.0043  0.1067
69687POPC   GL128217  29.475   8.278  13.143  0.1344  0.1733 -0.2000
69687POPC   GL228218  29.400   8.008  13.316  0.0095  0.0372  0.2397
69687POPC   C1A28219  29.049   8.036  12.944 -0.3284 -0.2195  0.1333
69687POPC   D2A28220  28.891   7.631  12.749  0.1825 -0.1353 -0.1617
69687POPC   C3A28221  28.556   7.438  12.478  0.2558 -0.4661 -0.1347
69687POPC   C4A28222  28.238   7.527  12.138 -0.0552 -0.0190 -0.0463
69687POPC   C1B28223  29.038   7.707  13.319 -0.1912  0.1285  0.2735
69687POPC   C2B28224  28.608   7.462  13.374 -0.0681 -0.0509  0.1007
69687POPC   C3B28225  28.274   7.316  13.174 -0.0010  0.0264 -0.1476
69687POPC   C4B28226  28.007   6.946  13.141  0.0442 -0.0966  0.1883
69688POPC   NC328227  23.024   9.680  12.352  0.0718 -0.1620 -0.2005
69688POPC   PO428228  23.272   9.969  12.389 -0.0949 -0.0749 -0.3532
69688POPC   GL128229  23.648   9.739  12.486 -0.0616  0.0509 -0.3847
69688POPC   GL228230  23.528   9.481  12.536 -0.1003 -0.2714  0.4901
69688POPC   C1A28231  23.968   9.380  12.414  0.0306 -0.1469 -0.1005
69688POPC   D2A28232  24.145   8.938  12.333 -0.0908  0.3166 -0.0712
69688POPC   C3A28233  24.398   8.781  12.675  0.3422  0.1722 -0.2204
69688POPC   C4A28234  24.707   8.503  12.976 -0.2057  0.3246 -0.0455
69688POPC   C1B28235  23.554   9.027  12.451 -0.0311 -0.1440 -0.1958
69688POPC   C2B28236  23.754   8.633  12.571  0.2272  0.1498  0.1738
69688POPC   C3B28237  24.052   8.293  12.540 -0.1761 -0.0481 -0.0138
69688POPC   C4B28238  24.310   7.941  12.695  0.0399  0.1353 -0.0472
69689POPC   NC328239  22.615  11.291  15.998  0.4238  0.0914 -0.1971
69689POPC   PO428240  22.848  11.573  15.821 -0.1725  0.1375 -0.0279
69689POPC   GL128241  23.074  11.333  16.077 -0.0680 -0.0880 -0.4132
69689POPC   GL228242  22.991  11.448  16.351  0.1326 -0.1171 -0.3363
69689POPC   C1A28243  23.054  10.934  16.310  0.2922 -0.1223  0.3384
69689POPC   D2A28244  22.840  10.609  16.574  0.2454 -0.0956 -0.2977
69689POPC   C3A28245  22.867  10.399  16.967  0.2031  0.1461  0.1046
69689POPC   C4A28246  22.853  10.208  17.442 -0.3208  0.1473  0.3576
69689POPC   C1B28247  23.173  11.328  16.790  0.2496  0.1036 -0.0375
69689POPC   C2B28248  23.220  11.255  17.295  0.1571 -0.3018  0.1801
69689POPC   C3B28249  23.476  11.008  17.543 -0.0540 -0.0183 -0.3194
69689POPC   C4B28250  23.710  10.645  17.462 -0.1414 -0.1142 -0.0609
69690POPC   NC328251  23.015  13.769  16.368  0.0521 -0.0625  0.0534
69690POPC   PO428252  22.728  14.024  16.295  0.0034  0.1209 -0.1153
69690POPC   GL128253  22.772  14.324  16.577  0.0192 -0.1747  0.0063
69690POPC   GL228254  22.415  14.296  16.648  0.0447 -0.1713 -0.0562
69690POPC   C1A28255  22.773  14.231  17.030 -0.0606 -0.0582  0.2495
69690POPC   D2A28256  22.548  14.276  17.462  0.0204  0.0571 -0.0620
69690POPC   C3A28257  22.536  14.561  17.836  0.0029  0.0649  0.0162
69690POPC   C4A28258  22.724  14.493  18.262 -0.2935 -0.1268  0.0216
69690POPC   C1B28259  22.166  14.508  16.944  0.0959  0.0330  0.0092
69690POPC   C2B28260  21.878  14.618  17.261 -0.0835 -0.0671  0.2725
69690POPC   C3B28261  21.712  14.793  17.687 -0.2200  0.3609 -0.2199
69690POPC   C4B28262  21.709  15.194  17.971  0.0182  0.0805  0.0482
69691POPC   NC328263  22.641   9.477  15.189  0.0806 -0.1554  0.0527
69691POPC   PO428264  22.761   9.412  14.827 -0.3243  0.0714  0.2011
69691POPC   GL128265  23.071   9.386  15.093 -0.1181  0.1449  0.0884
69691POPC   GL228266  23.091   9.120  15.153  0.2274 -0.0231 -0.0797
69691POPC   C1A28267  23.315   9.268  15.549  0.2632  0.1318 -0.0729
69691POPC   D2A28268  23.201   8.931  15.879  0.0072  0.0455  0.0751
69691POPC   C3A28269  23.538   8.661  16.057 -0.1048 -0.1228  0.0560
69691POPC   C4A28270  24.020   8.673  16.114  0.1457 -0.0712  0.0655
69691POPC   C1B28271  23.235   8.806  15.401 -0.0948  0.1886  0.1250
69691POPC   C2B28272  23.321   8.415  15.644  0.0265  0.0127  0.1885
69691POPC   C3B28273  23.391   7.975  15.735  0.0162  0.0085 -0.0676
69691POPC   C4B28274  23.460   7.603  15.453 -0.1868 -0.5619 -0.0657
69692POPC   NC328275  20.645  14.083  16.622 -0.0865 -0.1521 -0.2355
69692POPC   PO428276  20.313  14.101  16.583 -0.0852 -0.0967  0.1146
69692POPC   GL128277  20.450  14.133  17.008  0.2169  0.3473 -0.1238
69692POPC   GL228278  20.136  14.132  17.135 -0.4005  0.0152  0.3237
69692POPC   C1A28279  20.384  14.523  17.291 -0.0810  0.2738  0.1132
69692POPC   D2A28280  20.421  14.895  17.440 -0.2103  0.0137 -0.0247
69692POPC   C3A28281  20.146  15.099  17.741 -0.0789  0.0884 -0.3926
69692POPC   C4A28282  19.901  14.946  18.092 -0.0846 -0.3057 -0.0398
69692POPC   C1B28283  19.896  14.121  17.527  0.0096 -0.1452 -0.5705
69692POPC   C2B28284  19.782  14.055  17.961 -0.4368  0.1639 -0.1144
69692POPC   C3B28285  19.729  14.038  18.381  0.0954  0.2112 -0.0036
69692POPC   C4B28286  19.343  13.952  18.612  0.2324 -0.1889  0.0558
69693POPC   NC328287  26.850  15.543  14.619  0.1889  0.0373  0.0521
69693POPC   PO428288  26.742  15.827  14.841  0.0414 -0.2820  0.0359
69693POPC   GL128289  26.642  16.080  15.191  0.2955 -0.0246 -0.2818
69693POPC   GL228290  26.945  16.102  15.238 -0.0891  0.3090 -0.0411
69693POPC   C1A28291  26.578  16.089  15.671 -0.1218 -0.3458 -0.1963
69693POPC   D2A28292  26.382  16.317  16.052 -0.0531 -0.1418 -0.1561
69693POPC   C3A28293  26.302  16.289  16.467  0.1171  0.1170  0.0607
69693POPC   C4A28294  26.402  16.317  16.887  0.1163 -0.1812  0.0039
69693POPC   C1B28295  26.695  16.503  15.406  0.1390 -0.0606  0.0905
69693POPC   C2B28296  26.557  16.720  15.764  0.1211 -0.0663  0.1414
69693POPC   C3B28297  26.578  16.816  16.247  0.1089 -0.1329 -0.0386
69693POPC   C4B28298  26.402  16.771  16.642  0.1193 -0.0497 -0.1095
69694POPC   NC328299  25.765  13.763  16.406  0.2198 -0.0014  0.1017
69694POPC   PO428300  26.007  13.969  16.120  0.1231 -0.0869  0.2594
69694POPC   GL128301  26.074  14.070  16.546  0.1187 -0.0160  0.0951
69694POPC   GL228302  26.352  14.004  16.544 -0.0343  0.1449  0.0037
69694POPC   C1A28303  25.825  14.021  16.941 -0.2116  0.0608 -0.2192
69694POPC   D2A28304  25.842  13.769  17.338  0.1108  0.4714 -0.1607
69694POPC   C3A28305  26.287  13.745  17.497 -0.0062  0.0314 -0.2137
69694POPC   C4A28306  26.533  13.820  17.841 -0.0314  0.1337 -0.2215
69694POPC   C1B28307  26.307  13.840  17.007 -0.2215 -0.2117 -0.0775
69694POPC   C2B28308  26.701  13.902  17.237 -0.1432 -0.2616 -0.1361
69694POPC   C3B28309  26.988  13.953  17.627  0.1590 -0.0066 -0.0187
69694POPC   C4B28310  27.389  13.975  17.804 -0.2760 -0.1981 -0.3180
69695POPC   NC328311  23.168   9.440  11.093 -0.1320  0.0494  0.2326
69695POPC   PO428312  23.313   9.825  11.049 -0.2102 -0.0168  0.1912
69695POPC   GL128313  23.611   9.495  10.996 -0.4235  0.0484 -0.1002
69695POPC   GL228314  23.829   9.704  11.028  0.5117 -0.0896  0.2481
69695POPC   C1A28315  23.579   9.063  11.016 -0.3961  0.1803 -0.0687
69695POPC   D2A28316  23.737   8.669  10.785 -0.0586 -0.1002 -0.0832
69695POPC   C3A28317  23.900   8.298  11.019  0.1798 -0.3397 -0.0892
69695POPC   C4A28318  24.136   8.005  11.271  0.0110 -0.1052 -0.1556
69695POPC   C1B28319  23.985   9.362  10.692  0.2366  0.0788 -0.0673
69695POPC   C2B28320  23.960   8.990  10.441  0.2363  0.1897  0.1308
69695POPC   C3B28321  24.180   8.663  10.245  0.0723 -0.1874  0.0754
69695POPC   C4B28322  24.431   8.366  10.059  0.3659  0.2013 -0.1785
69696POPC   NC328323  24.490  11.337  15.630  0.0814 -0.1823  0.0755
69696POPC   PO428324  24.196  11.201  15.899 -0.0106 -0.1329 -0.1522
69696POPC   GL128325  24.446  10.996  16.101  0.1453  0.0798  0.4472
69696POPC   GL228326  24.632  11.215  16.179  0.4148 -0.0320  0.0268
69696POPC   C1A28327  24.464  10.878  16.586  0.2958 -0.0889  0.2095
69696POPC   D2A28328  24.659  10.823  16.970 -0.1257 -0.1702  0.1064
69696POPC   C3A28329  24.726  10.548  17.283 -0.1251 -0.0657  0.1900
69696POPC   C4A28330  24.361  10.412  17.628 -0.1728 -0.0106 -0.1068
69696POPC   C1B28331  24.989  11.199  16.492  0.0438  0.0441  0.2441
69696POPC   C2B28332  25.048  11.175  16.901  0.2771 -0.1216  0.1453
69696POPC   C3B28333  24.944  10.989  17.347 -0.0988 -0.0909  0.0069
69696POPC   C4B28334  24.775  10.808  17.735 -0.0845  0.0370 -0.0461
69697POPC   NC328335  20.395   4.109  14.415 -0.2550  0.3192  0.3031
69697POPC   PO428336  20.466   4.148  14.031 -0.2041  0.1863 -0.1159
69697POPC   GL128337  20.834   4.053  14.276 -0.2059  0.2647 -0.0675
69697POPC   GL228338  21.113   3.953  14.310 -0.0707  0.0997 -0.1636
69697POPC   C1A28339  20.910   4.077  14.767 -0.2245 -0.3991  0.1547
69697POPC   D2A28340  21.149   4.208  15.144 -0.1174 -0.0899  0.0702
69697POPC   C3A28341  21.112   4.568  15.436 -0.0555 -0.0320 -0.0672
69697POPC   C4A28342  21.338   4.731  15.783  0.0034  0.2325 -0.1398
69697POPC   C1B28343  21.373   3.847  14.682 -0.1140 -0.1509 -0.0495
69697POPC   C2B28344  21.446   3.723  15.151  0.0987 -0.3577 -0.1981
69697POPC   C3B28345  21.839   3.787  15.376  0.2475 -0.2835 -0.0321
69697POPC   C4B28346  22.247   3.770  15.541 -0.0060 -0.2794 -0.0740
69698POPC   NC328347  28.972   9.586  15.778 -0.2546 -0.2295  0.0824
69698POPC   PO428348  29.284   9.360  15.570  0.1344 -0.0801 -0.2253
69698POPC   GL128349  29.068   9.164  15.668 -0.0734  0.0577 -0.1374
69698POPC   GL228350  29.171   8.893  15.772 -0.2283 -0.1491  0.0967
69698POPC   C1A28351  28.691   8.910  15.750 -0.2377 -0.1184 -0.0744
69698POPC   D2A28352  28.465   8.581  15.986  0.0818  0.0062 -0.1477
69698POPC   C3A28353  28.387   8.335  16.439  0.0581  0.0275 -0.0396
69698POPC   C4A28354  28.521   8.190  16.902 -0.1462 -0.2074 -0.4284
69698POPC   C1B28355  29.007   8.620  16.138  0.1314  0.0667 -0.1376
69698POPC   C2B28356  28.862   8.579  16.563 -0.0736 -0.0710  0.0560
69698POPC   C3B28357  28.810   8.583  17.007 -0.1071  0.4312 -0.1413
69698POPC   C4B28358  28.404   8.561  17.188 -0.1147 -0.3133 -0.0161
69699POPC   NC328359  22.851  13.145  15.797  0.0443  0.1587  0.0699
69699POPC   PO428360  23.132  12.939  15.928  0.0431  0.2655 -0.3307
69699POPC   GL128361  23.236  13.001  16.369 -0.3354 -0.0374  0.0360
69699POPC   GL228362  23.075  13.231  16.556  0.1470 -0.2466  0.3489
69699POPC   C1A28363  23.434  12.993  16.762  0.0967  0.3940 -0.1362
69699POPC   D2A28364  23.672  12.917  17.185 -0.4256  0.2221 -0.2069
69699POPC   C3A28365  23.461  12.989  17.580  0.0942 -0.1046 -0.0785
69699POPC   C4A28366  23.160  13.044  17.974 -0.0017  0.0977 -0.2345
69699POPC   C1B28367  22.896  13.207  16.976  0.2212  0.0129 -0.0278
69699POPC   C2B28368  22.681  13.489  17.263  0.0266  0.0107 -0.0372
69699POPC   C3B28369  22.803  13.792  17.598 -0.0875  0.2973  0.0006
69699POPC   C4B28370  22.753  14.160  17.914  0.0124  0.1731 -0.0902
69700POPC   NC328371  14.968   5.814  15.243 -0.0913 -0.1935  0.1418
69700POPC   PO428372  15.156   6.158  15.357 -0.2232 -0.0606  0.1592
69700POPC   GL128373  15.269   6.267  15.770  0.0207  0.4052  0.3673
69700POPC   GL228374  15.054   6.227  15.925  0.1844  0.1604 -0.0846
69700POPC   C1A28375  15.477   6.285  16.213 -0.2329 -0.2836 -0.1585
69700POPC   D2A28376  15.666   6.331  16.679 -0.1959  0.0491 -0.0759
69700POPC   C3A28377  15.915   6.695  16.845  0.0930  0.1597  0.0357
69700POPC   C4A28378  16.062   7.077  16.993  0.0648  0.1749  0.0600
69700POPC   C1B28379  14.765   5.970  16.214  0.3769 -0.0975 -0.0613
69700POPC   C2B28380  14.299   5.833  16.212 -0.0293  0.1601  0.2226
69700POPC   C3B28381  14.072   5.488  16.118  0.0228 -0.3662  0.3198
69700POPC   C4B28382  13.701   5.477  15.882 -0.0233  0.0725 -0.1830
69701POPC   NC328383  31.433   1.924  16.057 -0.1859 -0.0268  0.0100
69701POPC   PO428384  31.707   2.129  15.841  0.3168 -0.1529  0.1244
69701POPC   GL128385  31.817   2.314  16.222  0.0337 -0.2646  0.0831
69701POPC   GL228386  31.718   2.095  16.438 -0.0945 -0.0061  0.0185
69701POPC   C1A28387  31.730   2.562  16.637  0.1566  0.0554 -0.0528
69701POPC   D2A28388  31.711   2.537  17.117 -0.2116  0.0410  0.1236
69701POPC   C3A28389  31.410   2.866  17.177  0.0285 -0.1774 -0.2225
69701POPC   C4A28390  31.175   3.247  16.994  0.1011 -0.4142  0.1280
69701POPC   C1B28391  31.734   2.036  16.891 -0.2630 -0.0757 -0.1036
69701POPC   C2B28392  31.616   2.043  17.266  0.1077 -0.3033  0.0056
69701POPC   C3B28393  31.561   1.933  17.720  0.0464 -0.1502 -0.1697
69701POPC   C4B28394  31.684   1.768  18.145  0.2218 -0.0523 -0.0702
69702POPC   NC328395  30.773  13.091  16.073 -0.1486  0.0746 -0.1925
69702POPC   PO428396  30.691  12.947  16.461  0.0824 -0.0107 -0.0885
69702POPC   GL128397  30.619  12.838  16.812 -0.4323 -0.1971 -0.1276
69702POPC   GL228398  30.461  12.945  16.987  0.1483  0.1368 -0.2210
69702POPC   C1A28399  30.786  12.552  17.195  0.2322 -0.3258 -0.1256
69702POPC   D2A28400  30.832  12.201  17.543 -0.2698  0.0558  0.1027
69702POPC   C3A28401  30.723  12.183  17.940  0.2249  0.1045  0.0689
69702POPC   C4A28402  30.392  12.458  18.161 -0.0177 -0.2123  0.0201
69702POPC   C1B28403  30.397  12.901  17.435  0.1451  0.2893  0.0644
69702POPC   C2B28404  30.305  12.983  17.858  0.2551 -0.1969  0.0959
69702POPC   C3B28405  30.512  12.957  18.307 -0.1279  0.0105  0.2649
69702POPC   C4B28406  30.767  12.900  18.665 -0.0045 -0.1143  0.0149
69703POPC   NC328407  27.809   9.759  13.298  0.1609  0.0545 -0.0017
69703POPC   PO428408  28.193   9.718  13.194 -0.0416 -0.1052 -0.1929
69703POPC   GL128409  28.187   9.314  12.965  0.0653 -0.1962  0.1134
69703POPC   GL228410  27.924   9.390  12.997 -0.0393 -0.0680 -0.0528
69703POPC   C1A28411  27.997   8.956  12.743 -0.1248  0.0160 -0.0666
69703POPC   D2A28412  27.819   8.757  12.404  0.2456  0.0140  0.0054
69703POPC   C3A28413  27.609   8.310  12.597 -0.3349 -0.0446  0.0545
69703POPC   C4A28414  27.214   8.073  12.590  0.0457  0.2849  0.0445
69703POPC   C1B28415  27.529   9.113  12.920 -0.2420  0.1004  0.2678
69703POPC   C2B28416  27.339   8.771  13.250  0.1973  0.0184  0.0609
69703POPC   C3B28417  27.135   8.491  13.572 -0.0096  0.1143 -0.0921
69703POPC   C4B28418  26.950   8.040  13.499  0.1306 -0.0598  0.0002
69704POPC   NC328419  26.317  10.449  11.267 -0.2611  0.2146 -0.0242
69704POPC   PO428420  26.354  10.627  10.918 -0.0809 -0.0050 -0.1557
69704POPC   GL128421  26.340  10.468  10.525 -0.1646 -0.0472 -0.2163
69704POPC   GL228422  26.099  10.304  10.530  0.0653  0.1095  0.0677
69704POPC   C1A28423  26.309  10.717  10.072 -0.1819 -0.1145  0.2121
69704POPC   D2A28424  26.118  10.660   9.687  0.2312 -0.0825  0.0138
69704POPC   C3A28425  26.166  10.237   9.486 -0.3395  0.1021  0.1003
69704POPC   C4A28426  26.402  10.172   9.118  0.1869 -0.3340  0.1177
69704POPC   C1B28427  25.748  10.003  10.312  0.1249  0.1801 -0.0821
69704POPC   C2B28428  25.508   9.784   9.999  0.2636  0.1090  0.2594
69704POPC   C3B28429  25.424   9.537   9.568 -0.0035 -0.0966 -0.2127
69704POPC   C4B28430  25.236   9.450   9.187 -0.1004  0.1561 -0.2017
69705POPC   NC328431  16.840   0.576  16.353  0.4672 -0.0066  0.0629
69705POPC   PO428432  17.123   0.765  16.195 -0.1579 -0.1499 -0.2226
69705POPC   GL128433  17.139   1.040  16.515 -0.2565  0.2992 -0.2719
69705POPC   GL228434  16.872   0.965  16.689 -0.3705 -0.0740 -0.1758
69705POPC   C1A28435  17.380   1.115  16.909 -0.0180  0.0204 -0.4145
69705POPC   D2A28436  17.413   1.336  17.349 -0.1708  0.1496 -0.1682
69705POPC   C3A28437  17.764   1.499  17.415  0.2214 -0.0780 -0.0900
69705POPC   C4A28438  17.759   1.603  17.899  0.0257  0.1210  0.4694
69705POPC   C1B28439  16.652   1.080  17.069  0.0966 -0.0301 -0.0457
69705POPC   C2B28440  16.487   1.176  17.487 -0.1629 -0.0549 -0.0109
69705POPC   C3B28441  16.146   1.210  17.825  0.2541  0.0781 -0.2634
69705POPC   C4B28442  16.002   1.117  18.272  0.3071 -0.0572 -0.2382
69706POPC   NC328443  28.321   0.616  14.022 -0.1605 -0.0739 -0.3322
69706POPC   PO428444  28.635   0.769  14.153  0.0577 -0.0900 -0.0426
69706POPC   GL128445  28.602   0.834  14.542 -0.2939  0.3253 -0.0534
69706POPC   GL228446  28.385   0.683  14.829  0.2581  0.0980 -0.1765
69706POPC   C1A28447  28.355   1.162  14.827  0.1998 -0.0782 -0.1680
69706POPC   D2A28448  28.396   1.379  15.280 -0.0808  0.2461  0.1174
69706POPC   C3A28449  28.046   1.251  15.545 -0.2035  0.0081  0.1920
69706POPC   C4A28450  27.686   1.072  15.723 -0.0347 -0.2983 -0.0270
69706POPC   C1B28451  28.489   0.881  15.261  0.0759  0.1250 -0.0409
69706POPC   C2B28452  28.502   1.012  15.664  0.0729 -0.0735 -0.1819
69706POPC   C3B28453  28.308   1.349  15.986 -0.1786  0.1438 -0.2866
69706POPC   C4B28454  28.305   1.791  16.107  0.0644  0.0134 -0.2132
69707POPC   NC328455  31.756  12.724  16.344 -0.0042 -0.1064 -0.0254
69707POPC   PO428456  31.679  13.095  16.450 -0.3092  0.1110 -0.1272
69707POPC   GL128457  31.666  13.034  16.850  0.0071  0.0908 -0.0487
69707POPC   GL228458  31.627  12.740  16.838 -0.1364  0.2040  0.1456
69707POPC   C1A28459  31.364  13.196  17.145  0.1607 -0.1379  0.2521
69707POPC   D2A28460  31.207  13.375  17.507 -0.3692  0.1821  0.1169
69707POPC   C3A28461  31.593  13.356  17.767 -0.0948 -0.2641 -0.0911
69707POPC   C4A28462  31.899  13.554  18.015  0.0407 -0.0011  0.2787
69707POPC   C1B28463  31.815  12.579  17.203  0.1864  0.1123  0.0781
69707POPC   C2B28464  31.824  12.585  17.670  0.0546  0.1605  0.2274
69707POPC   C3B28465  31.696  12.495  18.089 -0.2449 -0.1522 -0.1030
69707POPC   C4B28466  31.770  12.699  18.543  0.1064 -0.2513 -0.1609
69708POPC   NC328467  29.111   8.631  13.576 -0.3162  0.0408 -0.0848
69708POPC   PO428468  29.428   8.422  13.602  0.1529  0.0344  0.1867
69708POPC   GL128469  29.196   8.163  13.782 -0.1628  0.0434 -0.1800
69708POPC   GL228470  28.976   8.150  13.609  0.1181  0.3237 -0.2889
69708POPC   C1A28471  29.375   7.828  14.065  0.0493  0.1561 -0.0000
69708POPC   D2A28472  29.455   7.427  14.326  0.2586  0.0900  0.0826
69708POPC   C3A28473  29.121   7.209  14.587 -0.1308  0.2325  0.0092
69708POPC   C4A28474  28.877   7.054  14.948 -0.0171 -0.2545 -0.1489
69708POPC   C1B28475  28.866   7.756  13.775  0.0523 -0.0787 -0.1463
69708POPC   C2B28476  28.442   7.689  14.012 -0.1737 -0.0314  0.0008
69708POPC   C3B28477  28.215   7.402  14.176 -0.3980 -0.0336 -0.0010
69708POPC   C4B28478  28.119   7.035  14.435  0.0531  0.2505  0.1033
69709POPC   NC328479  30.416   8.196  14.692 -0.0764 -0.2257 -0.2429
69709POPC   PO428480  30.597   8.230  15.037  0.0279  0.1175  0.1404
69709POPC   GL128481  30.517   7.913  15.346 -0.1776 -0.0218  0.0613
69709POPC   GL228482  30.669   7.631  15.421  0.2035  0.1381  0.0710
69709POPC   C1A28483  30.129   7.783  15.532 -0.1679  0.0302 -0.0559
69709POPC   D2A28484  29.855   7.492  15.707  0.2409  0.1251  0.0992
69709POPC   C3A28485  29.641   7.432  16.134  0.0755 -0.3403 -0.1736
69709POPC   C4A28486  29.281   7.199  16.306 -0.1220  0.0503 -0.1621
69709POPC   C1B28487  30.416   7.338  15.683  0.2490 -0.2641 -0.0275
69709POPC   C2B28488  30.125   7.195  16.036  0.0350  0.1002  0.0098
69709POPC   C3B28489  29.851   7.055  16.398  0.1014  0.2039 -0.2136
69709POPC   C4B28490  29.955   7.184  16.812 -0.0576 -0.1267 -0.2028
69710POPC   NC328491  30.627   9.245  16.034 -0.1532  0.2922 -0.0908
69710POPC   PO428492  30.984   9.304  16.166  0.0244 -0.0228  0.1354
69710POPC   GL128493  31.121   9.046  16.521 -0.0482 -0.2259  0.2673
69710POPC   GL228494  30.901   9.173  16.672  0.2196  0.0236  0.0336
69710POPC   C1A28495  31.179   8.805  16.915  0.0277  0.4069  0.1942
69710POPC   D2A28496  30.992   8.747  17.363  0.2340 -0.0064  0.0256
69710POPC   C3A28497  31.380   8.734  17.577  0.0248 -0.1597  0.2457
69710POPC   C4A28498  31.781   8.704  17.810 -0.0367 -0.0690 -0.1397
69710POPC   C1B28499  30.693   8.988  16.986 -0.3401  0.1614  0.1463
69710POPC   C2B28500  30.408   8.852  17.394  0.1124  0.1522 -0.1075
69710POPC   C3B28501  30.196   8.723  17.805  0.3250 -0.0471 -0.2362
69710POPC   C4B28502  30.044   8.688  18.238 -0.1227  0.2539 -0.1794
69711POPC   NC328503  27.615  12.856  16.714  0.0796 -0.0835 -0.0049
69711POPC   PO428504  27.986  12.723  16.625  0.0215 -0.4043 -0.3254
69711POPC   GL128505  27.888  12.628  17.030  0.1382  0.0089 -0.1483
69711POPC   GL228506  28.187  12.579  17.070 -0.1808 -0.1858  0.1737
69711POPC   C1A28507  27.818  12.342  17.371  0.0847 -0.2019  0.2741
69711POPC   D2A28508  27.701  12.042  17.706 -0.0528 -0.1635  0.0679
69711POPC   C3A28509  27.495  12.232  18.156 -0.5392 -0.0587 -0.2579
69711POPC   C4A28510  27.528  12.625  18.435  0.3466 -0.0972 -0.2422
69711POPC   C1B28511  28.088  12.839  17.452  0.2424 -0.0952 -0.0369
69711POPC   C2B28512  28.062  13.221  17.715 -0.0783 -0.1528 -0.0199
69711POPC   C3B28513  27.778  13.392  18.045  0.3075 -0.0508 -0.1680
69711POPC   C4B28514  27.417  13.584  18.321  0.2315 -0.0404 -0.0757
69712POPC   NC328515  30.781   2.761  14.469  0.0240 -0.0966  0.0876
69712POPC   PO428516  30.684   2.405  14.463  0.0367  0.0118 -0.0136
69712POPC   GL128517  30.452   2.521  14.809  0.0216 -0.4812  0.4434
69712POPC   GL228518  30.401   2.795  14.823  0.1172 -0.0025 -0.2270
69712POPC   C1A28519  29.961   2.507  14.870 -0.0053 -0.2323 -0.1569
69712POPC   D2A28520  29.537   2.673  15.072  0.1217 -0.3545 -0.0997
69712POPC   C3A28521  29.378   2.552  15.511 -0.0468  0.0189 -0.2750
69712POPC   C4A28522  29.165   2.808  15.815  0.5289 -0.2648 -0.0837
69712POPC   C1B28523  30.085   2.953  15.111  0.0215 -0.0343  0.1203
69712POPC   C2B28524  29.844   2.843  15.446  0.0728  0.2411  0.4275
69712POPC   C3B28525  29.638   2.897  15.883 -0.1641  0.2241 -0.0631
69712POPC   C4B28526  29.396   3.021  16.209  0.0507 -0.3738  0.2280
69713POPC   NC328527  24.876  15.040  15.223  0.3062 -0.0343 -0.0360
69713POPC   PO428528  25.140  15.077  15.520  0.2043 -0.0929 -0.0448
69713POPC   GL128529  25.188  15.313  15.779  0.0703  0.2723  0.3725
69713POPC   GL228530  25.308  15.164  16.065  0.1055 -0.4681 -0.1838
69713POPC   C1A28531  25.153  15.671  16.067 -0.0550  0.1488 -0.0914
69713POPC   D2A28532  25.211  15.768  16.518  0.2223 -0.1545 -0.2723
69713POPC   C3A28533  25.581  15.898  16.790 -0.1245 -0.1962  0.3947
69713POPC   C4A28534  25.791  16.291  16.673  0.1420  0.0392 -0.2112
69713POPC   C1B28535  25.363  15.221  16.546  0.0358 -0.5108  0.2441
69713POPC   C2B28536  25.558  15.398  16.883 -0.2205 -0.1885 -0.1064
69713POPC   C3B28537  26.008  15.481  16.944  0.3327  0.4263 -0.1761
69713POPC   C4B28538  26.399  15.425  17.179 -0.1082  0.1096  0.1060
69714POPC   NC328539  30.298  14.420  16.431  0.1391 -0.0810  0.0216
69714POPC   PO428540  29.979  14.570  16.305 -0.3349 -0.1857 -0.0233
69714POPC   GL128541  30.068  14.746  16.726  0.0883 -0.1303 -0.1560
69714POPC   GL228542  29.864  14.536  16.779  0.1825 -0.1428 -0.1814
69714POPC   C1A28543  30.131  15.069  17.092 -0.0035  0.2691 -0.1205
69714POPC   D2A28544  29.937  15.328  17.441  0.3611 -0.1118  0.3898
69714POPC   C3A28545  30.312  15.533  17.577  0.3127 -0.2425 -0.0256
69714POPC   C4A28546  30.569  15.899  17.636 -0.2163 -0.1464  0.0759
69714POPC   C1B28547  29.851  14.613  17.228  0.3365 -0.2964  0.0965
69714POPC   C2B28548  29.917  14.571  17.672  0.3131 -0.0597 -0.0101
69714POPC   C3B28549  29.861  14.670  18.109  0.3759  0.0405 -0.0882
69714POPC   C4B28550  29.962  15.047  18.290  0.0991 -0.0225  0.0468
69715POPC   NC328551  20.524   3.132  14.356 -0.1900 -0.0534 -0.0689
69715POPC   PO428552  20.198   3.314  14.517 -0.0036  0.0945  0.0893
69715POPC   GL128553  20.306   3.157  14.943 -0.0132 -0.0566  0.3545
69715POPC   GL228554  20.526   2.964  14.830 -0.4188 -0.2077  0.1736
69715POPC   C1A28555  20.542   3.149  15.311 -0.0898  0.3225 -0.2346
69715POPC   D2A28556  20.584   3.061  15.744  0.2773  0.1633 -0.1414
69715POPC   C3A28557  20.747   3.082  16.188 -0.0528 -0.0899  0.0361
69715POPC   C4A28558  20.721   3.463  16.526  0.1801  0.0623 -0.0334
69715POPC   C1B28559  20.873   2.855  15.072  0.0703 -0.0759 -0.2683
69715POPC   C2B28560  21.154   2.673  15.379 -0.3374  0.1260 -0.0925
69715POPC   C3B28561  21.559   2.755  15.614 -0.1246 -0.0101  0.1793
69715POPC   C4B28562  21.891   2.791  15.894  0.2640 -0.0776  0.1414
69716POPC   NC328563  28.638  32.388  15.554  0.1428  0.0479 -0.1505
69716POPC   PO428564  28.545  31.983  15.516 -0.3287  0.2373 -0.1071
69716POPC   GL128565  28.468  32.046  15.869  0.2953  0.0482  0.0687
69716POPC   GL228566  28.593  31.938  16.144 -0.0787 -0.4541 -0.0046
69716POPC   C1A28567  28.529  32.417  16.198  0.0706 -0.0550 -0.0278
69716POPC   D2A28568  28.236  32.751  16.321 -0.4761  0.3244  0.0873
69716POPC   C3A28569  27.997  33.151  16.383  0.0391  0.3905 -0.1444
69716POPC   C4A28570  27.957  33.535  16.597 -0.4486  0.1297 -0.1840
69716POPC   C1B28571  28.845  31.836  16.572 -0.0496  0.1339 -0.2869
69716POPC   C2B28572  28.933  31.844  17.016  0.2502  0.0785  0.1097
69716POPC   C3B28573  28.783  32.014  17.358 -0.1811 -0.2597  0.0543
69716POPC   C4B28574  28.638  31.810  17.731 -0.3304  0.0027 -0.1904
69717POPC   NC328575  30.577   1.356  15.332 -0.0343  0.2475 -0.3215
69717POPC   PO428576  30.810   1.394  15.657  0.2449 -0.5952  0.1218
69717POPC   GL128577  30.668   1.618  15.919 -0.2855 -0.1435  0.1267
69717POPC   GL228578  30.898   1.790  15.954  0.2079  0.2050 -0.2897
69717POPC   C1A28579  30.521   1.844  16.382 -0.3264  0.1252  0.2685
69717POPC   D2A28580  30.624   1.717  16.819 -0.1918  0.0659 -0.0832
69717POPC   C3A28581  30.307   1.763  17.157  0.0319  0.0466 -0.3699
69717POPC   C4A28582  29.920   1.729  17.353  0.1074  0.1206  0.0023
69717POPC   C1B28583  30.941   2.097  16.308  0.1889 -0.0934 -0.2892
69717POPC   C2B28584  30.766   2.249  16.696 -0.2104 -0.3545  0.0873
69717POPC   C3B28585  30.350   2.267  16.793  0.1904 -0.0140  0.0905
69717POPC   C4B28586  30.170   2.221  17.213 -0.0531 -0.4332 -0.2836
69718POPC   NC328587  30.659   7.323  11.961 -0.0734  0.1179 -0.1190
69718POPC   PO428588  30.444   7.545  12.151 -0.2103  0.0119 -0.1547
69718POPC   GL128589  30.071   7.379  12.131 -0.1714  0.0053 -0.0751
69718POPC   GL228590  30.151   7.245  11.907 -0.0087 -0.2069  0.0545
69718POPC   C1A28591  29.772   7.053  12.331 -0.0036  0.0086  0.1577
69718POPC   D2A28592  29.433   6.712  12.362  0.4067  0.0383  0.1628
69718POPC   C3A28593  29.083   6.551  12.092  0.0546 -0.2886 -0.0865
69718POPC   C4A28594  28.750   6.296  12.256 -0.0867 -0.0963 -0.1972
69718POPC   C1B28595  29.722   7.308  11.687 -0.1066  0.0444  0.1759
69718POPC   C2B28596  29.572   7.116  11.268  0.0692 -0.0221 -0.0086
69718POPC   C3B28597  29.484   6.922  10.879  0.0346 -0.0548  0.1533
69718POPC   C4B28598  29.523   6.438  10.787 -0.1883 -0.1340  0.0391
69719POPC   NC328599  25.163  11.460  10.503 -0.0520 -0.2435  0.1946
69719POPC   PO428600  25.350  11.311  10.179  0.1747  0.0347 -0.0626
69719POPC   GL128601  25.260  10.973   9.904 -0.3289 -0.0764  0.0476
69719POPC   GL228602  25.037  10.838  10.006  0.2623 -0.2000 -0.0271
69719POPC   C1A28603  25.547  10.631   9.710  0.0550 -0.0000  0.0133
69719POPC   D2A28604  25.650  10.387   9.305 -0.2544  0.1820 -0.1313
69719POPC   C3A28605  25.537  10.400   8.851  0.2823 -0.0737 -0.0362
69719POPC   C4A28606  25.480  10.110   8.475  0.5668  0.0779  0.0682
69719POPC   C1B28607  24.941  10.464   9.769 -0.0586 -0.4558 -0.1787
69719POPC   C2B28608  24.829  10.066   9.540 -0.2351  0.0091 -0.0670
69719POPC   C3B28609  24.686   9.694   9.379  0.0016  0.2352  0.1273
69719POPC   C4B28610  24.524   9.208   9.378  0.4570 -0.0013 -0.4520
69720POPC   NC328611  31.342   9.008  15.945  0.0862 -0.0909  0.1487
69720POPC   PO428612  31.578   8.727  15.812 -0.1022  0.4654 -0.2225
69720POPC   GL128613  31.492   8.434  16.110 -0.2350 -0.2565 -0.4416
69720POPC   GL228614  31.414   8.676  16.316  0.2792 -0.1548 -0.0599
69720POPC   C1A28615  31.024   8.335  16.250 -0.1410  0.0094 -0.2825
69720POPC   D2A28616  30.757   8.040  16.442  0.0536 -0.0576  0.1706
69720POPC   C3A28617  30.286   7.902  16.327 -0.1164 -0.2472  0.0258
69720POPC   C4A28618  30.035   7.559  16.393 -0.0501 -0.1585  0.0317
69720POPC   C1B28619  31.323   8.323  16.664  0.0418 -0.1566 -0.0595
69720POPC   C2B28620  31.042   8.155  16.982  0.1170  0.1417 -0.1958
69720POPC   C3B28621  30.733   7.829  17.151  0.1458  0.0063 -0.1708
69720POPC   C4B28622  30.496   7.510  17.177 -0.0552  0.0067  0.1882
69721POPC   NC328623  21.419   9.112  10.027 -0.1384  0.0017  0.0562
69721POPC   PO428624  21.284   9.001   9.642 -0.0018 -0.1618  0.1661
69721POPC   GL128625  21.515   8.929   9.341  0.0932 -0.0440  0.1101
69721POPC   GL228626  21.660   9.205   9.177 -0.2979  0.1657  0.0735
69721POPC   C1A28627  21.630   8.539   9.134  0.3512  0.2012 -0.0067
69721POPC   D2A28628  21.920   8.455   8.780 -0.0903  0.3046 -0.0990
69721POPC   C3A28629  22.366   8.425   8.736  0.1904 -0.0347 -0.1348
69721POPC   C4A28630  22.782   8.647   8.733 -0.1077 -0.0621  0.1799
69721POPC   C1B28631  21.871   8.955   8.884  0.2613 -0.1077  0.1858
69721POPC   C2B28632  22.144   8.875   8.511 -0.0266 -0.0710 -0.1695
69721POPC   C3B28633  22.511   8.566   8.328 -0.3888 -0.1230  0.0356
69721POPC   C4B28634  22.829   8.286   8.422  0.2415 -0.1407 -0.1863
69722POPC   NC328635  18.516   6.271  15.771  0.1225 -0.0181 -0.0915
69722POPC   PO428636  18.164   6.457  15.791 -0.1013 -0.1319  0.0363
69722POPC   GL128637  18.282   6.585  16.110  0.0128 -0.0802 -0.2830
69722POPC   GL228638  18.315   6.396  16.355 -0.0606  0.0882  0.1486
69722POPC   C1A28639  18.259   6.910  16.471  0.1378 -0.0291 -0.0732
69722POPC   D2A28640  18.061   7.095  16.902 -0.0819 -0.0066  0.2135
69722POPC   C3A28641  18.453   6.946  17.111 -0.0412 -0.0871 -0.0793
69722POPC   C4A28642  18.891   6.784  17.179 -0.0929 -0.0824  0.1457
69722POPC   C1B28643  18.274   6.542  16.773  0.0924  0.0366  0.0250
69722POPC   C2B28644  18.237   6.496  17.192  0.0503  0.1333  0.0419
69722POPC   C3B28645  18.159   6.273  17.533 -0.2685 -0.0119 -0.1653
69722POPC   C4B28646  18.141   5.836  17.701 -0.0604 -0.0054 -0.2636
69723POPC   NC328647  21.425   5.140  10.684  0.0825 -0.1583  0.2759
69723POPC   PO428648  21.278   4.852  10.421 -0.0706 -0.1252 -0.3407
69723POPC   GL128649  21.517   4.773  10.188  0.2852 -0.3897 -0.0740
69723POPC   GL228650  21.375   4.585   9.992  0.1756  0.0209 -0.1467
69723POPC   C1A28651  21.866   4.975   9.971 -0.0640 -0.0497  0.0819
69723POPC   D2A28652  21.899   5.210   9.561  0.1892  0.0540 -0.0804
69723POPC   C3A28653  22.184   5.051   9.176  0.1329  0.0276  0.0192
69723POPC   C4A28654  22.324   4.843   8.850 -0.0924  0.1047  0.0574
69723POPC   C1B28655  21.765   4.529   9.680  0.2647  0.1298  0.0743
69723POPC   C2B28656  22.091   4.763   9.584  0.1885 -0.1790  0.0352
69723POPC   C3B28657  22.433   5.068   9.650  0.1554 -0.0078 -0.0045
69723POPC   C4B28658  22.822   5.042   9.338 -0.0263 -0.0285  0.2931
69724POPC   NC328659  21.651  13.500  16.671  0.0183 -0.0968 -0.2695
69724POPC   PO428660  21.382  13.743  16.593 -0.4603  0.0420 -0.1564
69724POPC   GL128661  21.254  13.872  16.892 -0.1993 -0.0031  0.2578
69724POPC   GL228662  20.984  13.994  16.938  0.0633  0.0886 -0.2647
69724POPC   C1A28663  21.319  13.899  17.343  0.4113  0.1552  0.2136
69724POPC   D2A28664  21.382  13.892  17.827 -0.0105 -0.0137  0.2509
69724POPC   C3A28665  21.531  14.021  18.200  0.2360  0.1196 -0.2493
69724POPC   C4A28666  21.877  14.067  18.527  0.1050 -0.3407  0.0325
69724POPC   C1B28667  20.776  14.075  17.313 -0.2103  0.0619  0.0240
69724POPC   C2B28668  20.447  14.139  17.635  0.1644  0.2335 -0.0760
69724POPC   C3B28669  20.569  13.987  18.105  0.1802 -0.0197 -0.3906
69724POPC   C4B28670  20.739  14.247  18.475 -0.1929 -0.2176  0.0532
69725POPC   NC328671  18.089  12.983  16.734 -0.0631 -0.0126  0.4577
69725POPC   PO428672  18.128  13.358  16.683  0.1652  0.3324 -0.3145
69725POPC   GL128673  18.111  13.518  17.043  0.0122  0.0304  0.0112
69725POPC   GL228674  18.223  13.769  16.984  0.1863  0.1214 -0.2219
69725POPC   C1A28675  17.871  13.460  17.462  0.0083 -0.1829  0.5919
69725POPC   D2A28676  17.615  13.554  17.853 -0.1029 -0.1029  0.1513
69725POPC   C3A28677  17.551  13.902  17.677 -0.1637 -0.1663  0.0116
69725POPC   C4A28678  17.366  14.175  17.319  0.4224  0.2612  0.2271
69725POPC   C1B28679  18.416  14.051  17.267  0.0698  0.0257  0.1251
69725POPC   C2B28680  18.403  14.176  17.728 -0.1104  0.0212 -0.2789
69725POPC   C3B28681  18.343  14.580  18.073 -0.2443  0.0240  0.0577
69725POPC   C4B28682  18.737  14.704  18.316  0.0528  0.1507  0.2359
69726POPC   NC328683  20.738   5.653   9.913  0.1296  0.1445 -0.1426
69726POPC   PO428684  20.515   5.681   9.608 -0.0547 -0.1999 -0.3014
69726POPC   GL128685  20.840   5.754   9.424 -0.0331  0.0955  0.0565
69726POPC   GL228686  20.915   5.506   9.276 -0.4015  0.0209  0.0403
69726POPC   C1A28687  20.961   6.043   9.118  0.0230  0.1014  0.3469
69726POPC   D2A28688  21.103   6.220   8.713 -0.1623  0.0581 -0.0960
69726POPC   C3A28689  21.296   6.030   8.374 -0.1108  0.1695  0.4669
69726POPC   C4A28690  21.256   5.880   7.953  0.0198  0.1951  0.0355
69726POPC   C1B28691  21.247   5.565   8.972 -0.0151 -0.1757  0.1483
69726POPC   C2B28692  21.492   5.685   8.643  0.1101 -0.0238 -0.1962
69726POPC   C3B28693  21.726   5.422   8.260 -0.0945 -0.1140 -0.0576
69726POPC   C4B28694  22.108   5.225   8.131 -0.1632 -0.1636  0.1685
69727POPC   NC328695  26.207  11.056  15.623  0.0927  0.0476 -0.0394
69727POPC   PO428696  26.505  10.767  15.587  0.0060  0.2785  0.1849
69727POPC   GL128697  26.494  10.419  15.735  0.0963 -0.2282  0.1052
69727POPC   GL228698  26.760  10.424  15.880  0.0873 -0.0065 -0.1715
69727POPC   C1A28699  26.129  10.185  15.764  0.1865 -0.1377 -0.1703
69727POPC   D2A28700  25.844   9.946  15.937 -0.1287 -0.2630  0.2441
69727POPC   C3A28701  25.752   9.510  16.069 -0.0378 -0.0833 -0.0814
69727POPC   C4A28702  25.804   9.092  16.154  0.0341 -0.0359 -0.1141
69727POPC   C1B28703  26.789  10.601  16.349  0.1076 -0.0285 -0.1537
69727POPC   C2B28704  26.854  10.666  16.778 -0.0452 -0.2265 -0.1285
69727POPC   C3B28705  26.750  10.445  17.135  0.2501  0.0264  0.3477
69727POPC   C4B28706  26.950  10.364  17.529 -0.0823  0.1924 -0.1639
69728POPC   NC328707  30.132   8.073  13.230 -0.2025  0.2390 -0.0557
69728POPC   PO428708  30.220   7.824  12.957 -0.2942 -0.0768  0.2053
69728POPC   GL128709  29.914   7.533  12.965  0.2411  0.0804 -0.1601
69728POPC   GL228710  29.849   7.521  12.660 -0.0118 -0.0791 -0.2043
69728POPC   C1A28711  29.481   7.519  13.088  0.2670 -0.3285 -0.1669
69728POPC   D2A28712  29.158   7.250  13.046  0.4064 -0.1335 -0.0807
69728POPC   C3A28713  28.773   7.147  12.872  0.0782  0.0966  0.1089
69728POPC   C4A28714  28.327   7.124  12.749 -0.4255 -0.0650  0.2968
69728POPC   C1B28715  29.439   7.466  12.538  0.1833 -0.3525 -0.0585
69728POPC   C2B28716  29.144   7.130  12.447  0.1116  0.0435 -0.3966
69728POPC   C3B28717  28.728   7.007  12.382  0.2562 -0.0962 -0.1148
69728POPC   C4B28718  28.309   6.776  12.370  0.0337  0.4064 -0.2552
69729POPC   NC328719  30.092  10.287  10.095 -0.2742  0.0114 -0.0039
69729POPC   PO428720  30.187  10.596   9.918  0.1152  0.0089 -0.1627
69729POPC   GL128721  30.018  10.522   9.525 -0.2243  0.0380  0.2668
69729POPC   GL228722  30.028  10.823   9.433 -0.1058 -0.1230 -0.3115
69729POPC   C1A28723  30.055  10.416   9.119  0.0080  0.1335 -0.0546
69729POPC   D2A28724  29.924  10.500   8.706  0.2686 -0.0522 -0.0100
69729POPC   C3A28725  30.321  10.359   8.552 -0.0698  0.0514  0.1952
69729POPC   C4A28726  30.668  10.315   8.310  0.0050  0.2865  0.1704
69729POPC   C1B28727  29.843  10.862   9.033  0.0596 -0.1374  0.3745
69729POPC   C2B28728  29.581  11.000   8.665 -0.1065  0.0696  0.1992
69729POPC   C3B28729  29.258  10.893   8.344 -0.1248  0.0866  0.0353
69729POPC   C4B28730  28.924  10.907   8.035 -0.0848 -0.0654 -0.0233
69730POPC   NC328731  24.028  14.643  15.740  0.2346 -0.1189 -0.0591
69730POPC   PO428732  23.784  14.884  15.969 -0.0963 -0.0577  0.0352
69730POPC   GL128733  23.796  14.937  16.330 -0.0700  0.1767  0.0296
69730POPC   GL228734  24.046  14.995  16.497 -0.2251 -0.0611  0.3812
69730POPC   C1A28735  23.645  14.660  16.666  0.1407 -0.2898  0.0603
69730POPC   D2A28736  23.559  14.312  16.949 -0.1333 -0.0810 -0.2087
69730POPC   C3A28737  23.584  14.331  17.345 -0.0677  0.1236  0.0949
69730POPC   C4A28738  23.591  14.497  17.769 -0.1294 -0.0705  0.0005
69730POPC   C1B28739  23.855  15.182  16.893  0.0903  0.1269  0.2093
69730POPC   C2B28740  23.617  15.392  17.279  0.0380 -0.0979  0.4094
69730POPC   C3B28741  23.624  15.464  17.740  0.0134 -0.2646 -0.0908
69730POPC   C4B28742  23.596  15.655  18.195 -0.1017 -0.1172  0.0490
69731POPC   NC328743  30.624   1.110  16.041  0.2210 -0.0194 -0.0162
69731POPC   PO428744  30.339   1.306  15.808 -0.1721  0.1795 -0.1481
69731POPC   GL128745  30.087   1.063  15.987  0.1392 -0.1426 -0.3159
69731POPC   GL228746  30.130   1.163  16.213  0.1553 -0.1971 -0.1045
69731POPC   C1A28747  29.616   1.066  16.014 -0.1509 -0.1150 -0.1405
69731POPC   D2A28748  29.260   0.984  16.217  0.0445 -0.0153  0.1579
69731POPC   C3A28749  28.910   1.003  16.542  0.1491  0.0856  0.4614
69731POPC   C4A28750  28.686   0.860  16.880 -0.0863  0.1988  0.0373
69731POPC   C1B28751  29.717   1.449  16.308 -0.1853 -0.0707  0.1419
69731POPC   C2B28752  29.262   1.483  16.171 -0.0308  0.0723 -0.2209
69731POPC   C3B28753  28.862   1.743  16.202  0.0085  0.1280 -0.0289
69731POPC   C4B28754  28.615   1.951  16.525 -0.0684  0.0516  0.0653
69732POPC   NC328755  20.709  31.495  16.538 -0.0432 -0.1496  0.0376
69732POPC   PO428756  20.852  31.748  16.287  0.0727  0.2953  0.1565
69732POPC   GL128757  20.995  31.905  16.632 -0.3291  0.2376 -0.0530
69732POPC   GL228758  21.008  32.201  16.555  0.0277 -0.4182  0.0095
69732POPC   C1A28759  20.841  31.965  17.057  0.1716  0.0340  0.2431
69732POPC   D2A28760  20.813  32.076  17.489  0.0622 -0.2361  0.3315
69732POPC   C3A28761  21.008  32.426  17.731 -0.0339 -0.0014  0.0317
69732POPC   C4A28762  21.043  32.637  18.130  0.1963 -0.0403 -0.2613
69732POPC   C1B28763  21.279  32.235  16.890  0.0184  0.0511 -0.0314
69732POPC   C2B28764  21.377  32.301  17.389  0.0557 -0.0694  0.0379
69732POPC   C3B28765  21.447  32.594  17.726 -0.2171  0.0558  0.1810
69732POPC   C4B28766  21.371  32.978  17.938  0.1777 -0.1615 -0.2719
69733POPC   NC328767  30.722   7.584  14.414 -0.0788  0.1666 -0.1302
69733POPC   PO428768  30.408   7.820  14.363  0.0721  0.0473  0.0657
69733POPC   GL128769  30.091   7.713  14.604 -0.1544 -0.1947  0.1945
69733POPC   GL228770  30.250   7.479  14.673  0.0464 -0.1287  0.3651
69733POPC   C1A28771  29.751   7.446  14.693 -0.1556  0.1179  0.0576
69733POPC   D2A28772  29.514   7.141  14.953  0.1081 -0.1260  0.2135
69733POPC   C3A28773  29.563   7.142  15.431 -0.2869  0.0729  0.0001
69733POPC   C4A28774  29.514   7.009  15.880  0.0430 -0.2233  0.0974
69733POPC   C1B28775  30.096   7.076  14.804 -0.0184 -0.1874 -0.1440
69733POPC   C2B28776  29.717   6.710  14.962 -0.2688 -0.2465  0.0497
69733POPC   C3B28777  29.278   6.623  15.086  0.1477 -0.1283 -0.1377
69733POPC   C4B28778  28.919   6.473  15.330  0.3402  0.0528  0.0187
69734POPC   NC328779  31.350  10.464   9.053  0.1029  0.0432  0.3929
69734POPC   PO428780  31.653  10.294   9.213  0.1124  0.0194 -0.0830
69734POPC   GL128781  31.720  10.348   8.798  0.0165  0.1266 -0.1244
69734POPC   GL228782  31.624  10.505   8.652  0.0168  0.0960 -0.0516
69734POPC   C1A28783  32.122  10.442   8.559  0.3346 -0.0453  0.1601
69734POPC   D2A28784  32.303  10.635   8.185 -0.2295 -0.0643  0.1502
69734POPC   C3A28785  32.395  10.537   7.704  0.1880  0.0611 -0.1705
69734POPC   C4A28786  32.608  10.311   7.333  0.0736  0.2006  0.1050
69734POPC   C1B28787  31.697  10.436   8.149  0.0084  0.0269  0.1466
69734POPC   C2B28788  31.583  10.215   7.794  0.1902 -0.2346  0.1416
69734POPC   C3B28789  31.635  10.011   7.358 -0.0204 -0.1147  0.3148
69734POPC   C4B28790  31.956   9.792   7.100 -0.1116  0.2479 -0.3641
69735POPC   NC328791  17.022  13.723  16.442  0.0534 -0.3990  0.2030
69735POPC   PO428792  17.381  13.756  16.532 -0.0759  0.2174  0.0919
69735POPC   GL128793  17.506  13.741  17.005  0.0906 -0.1596  0.2922
69735POPC   GL228794  17.628  13.479  17.044  0.0675  0.1513  0.3457
69735POPC   C1A28795  17.864  13.953  17.238  0.0525  0.0202  0.1920
69735POPC   D2A28796  18.029  13.867  17.712  0.2321 -0.2122  0.1299
69735POPC   C3A28797  17.947  14.253  17.924  0.1350  0.0676  0.1007
69735POPC   C4A28798  17.953  14.452  18.347  0.1667  0.1785  0.0156
69735POPC   C1B28799  17.384  13.347  17.392 -0.0406 -0.0998  0.2825
69735POPC   C2B28800  17.544  13.077  17.752 -0.2348  0.0695 -0.1879
69735POPC   C3B28801  17.665  13.011  18.199  0.1485 -0.0520 -0.2201
69735POPC   C4B28802  17.806  12.862  18.607 -0.0650  0.3504 -0.0765
69736POPC   NC328803  29.327   8.777  11.699 -0.3826  0.0739 -0.1240
69736POPC   PO428804  29.716   8.714  11.667  0.0655  0.0985 -0.1719
69736POPC   GL128805  29.519   8.532  11.357  0.1291 -0.1251 -0.0719
69736POPC   GL228806  29.340   8.726  11.222  0.3463  0.1364  0.0154
69736POPC   C1A28807  29.225   8.194  11.534  0.0059 -0.0241  0.1083
69736POPC   D2A28808  29.183   7.814  11.688  0.1028  0.0908  0.1166
69736POPC   C3A28809  28.914   7.526  11.445  0.0123  0.1822 -0.1293
69736POPC   C4A28810  28.845   7.111  11.179 -0.1160 -0.1027 -0.2458
69736POPC   C1B28811  29.169   8.536  10.790 -0.0968 -0.1982  0.0862
69736POPC   C2B28812  28.730   8.489  10.633 -0.1808  0.2870 -0.0225
69736POPC   C3B28813  28.423   8.286  10.420 -0.1755 -0.0809  0.0029
69736POPC   C4B28814  28.075   8.063  10.687  0.0422 -0.1450 -0.1120
69737POPC   NC328815  19.001   1.413  16.102  0.0683  0.1131 -0.1729
69737POPC   PO428816  19.294   1.146  16.165  0.2566  0.4938  0.3777
69737POPC   GL128817  19.442   1.151  16.598 -0.1446 -0.0782  0.0041
69737POPC   GL228818  19.270   1.396  16.617  0.3680  0.2327 -0.0706
69737POPC   C1A28819  19.514   0.972  17.081  0.0249  0.0986 -0.0272
69737POPC   D2A28820  19.972   0.923  17.264 -0.4732  0.2284 -0.0707
69737POPC   C3A28821  19.946   0.812  17.702 -0.1529  0.0411 -0.0443
69737POPC   C4A28822  19.643   0.961  17.980  0.0176  0.3262 -0.0945
69737POPC   C1B28823  19.477   1.559  16.980  0.2328  0.2348  0.1788
69737POPC   C2B28824  19.781   1.416  17.262 -0.0787 -0.0729  0.1568
69737POPC   C3B28825  20.009   1.307  17.592  0.2353  0.0022 -0.0361
69737POPC   C4B28826  20.376   1.061  17.672 -0.1958 -0.1738 -0.1305
69738POPC   NC328827  19.766   9.027  15.936  0.1206  0.0099  0.1273
69738POPC   PO428828  20.016   9.303  15.966 -0.2450  0.1381 -0.0109
69738POPC   GL128829  19.936   9.413  16.335  0.0399  0.2752 -0.0199
69738POPC   GL228830  19.793   9.188  16.427 -0.0571  0.3209 -0.0637
69738POPC   C1A28831  20.184   9.318  16.730  0.1686  0.1033  0.0502
69738POPC   D2A28832  20.357   9.072  17.124  0.2940 -0.0792 -0.2864
69738POPC   C3A28833  20.730   8.803  17.099  0.0317  0.0093  0.0201
69738POPC   C4A28834  20.970   8.664  16.704 -0.0279  0.0908 -0.0281
69738POPC   C1B28835  19.830   9.020  16.836 -0.2420 -0.4120 -0.1102
69738POPC   C2B28836  19.873   8.802  17.298  0.2522 -0.0813 -0.0107
69738POPC   C3B28837  20.026   8.752  17.702  0.2942  0.0008 -0.2090
69738POPC   C4B28838  20.277   8.515  17.969 -0.4907  0.1680  0.1560
69739POPC   NC328839  30.797   0.341  16.013 -0.0145 -0.1646  0.1330
69739POPC   PO428840  30.909   0.717  16.021 -0.2701  0.3268  0.1695
69739POPC   GL128841  30.681   0.704  16.376  0.1257  0.2726 -0.2808
69739POPC   GL228842  30.823   0.962  16.495  0.0387  0.2380 -0.0656
69739POPC   C1A28843  30.674   0.572  16.807 -0.1973  0.3701 -0.0328
69739POPC   D2A28844  30.392   0.423  17.187  0.0767 -0.0773  0.2733
69739POPC   C3A28845  30.041   0.736  17.270  0.0119  0.1326 -0.1345
69739POPC   C4A28846  30.009   1.186  17.152  0.0169 -0.2210 -0.1006
69739POPC   C1B28847  30.948   1.168  16.882 -0.3902  0.2006 -0.1783
69739POPC   C2B28848  30.757   1.420  17.191 -0.0090  0.0195 -0.1270
69739POPC   C3B28849  30.691   1.714  17.507  0.2251  0.3028  0.1393
69739POPC   C4B28850  30.763   1.828  17.977 -0.3789  0.1138 -0.0760
69740POPC   NC328851  22.458   1.547  14.117 -0.0072 -0.1595  0.0416
69740POPC   PO428852  22.269   1.516  13.740 -0.3109  0.1345  0.0558
69740POPC   GL128853  22.116   1.861  13.931  0.1285  0.0887 -0.0695
69740POPC   GL228854  22.019   1.681  14.174  0.0986 -0.2200  0.0027
69740POPC   C1A28855  22.386   2.094  14.236  0.0250  0.2798 -0.1641
69740POPC   D2A28856  22.733   2.253  14.475  0.0842  0.0770 -0.0581
69740POPC   C3A28857  22.624   2.511  14.871 -0.4233 -0.0929  0.0335
69740POPC   C4A28858  22.500   2.737  15.264 -0.1591 -0.2073 -0.1313
69740POPC   C1B28859  22.250   1.733  14.557 -0.1007  0.0302  0.3460
69740POPC   C2B28860  22.386   1.558  14.930  0.3119 -0.1075  0.1271
69740POPC   C3B28861  22.852   1.565  15.113 -0.5221  0.1402 -0.1281
69740POPC   C4B28862  23.170   1.861  15.320  0.1304  0.1005 -0.1246
69741POPC   NC328863  27.286  10.968  11.869 -0.0006 -0.2395  0.0166
69741POPC   PO428864  26.940  10.752  11.897  0.0880  0.0208 -0.1827
69741POPC   GL128865  26.951  10.400  11.847  0.1201 -0.0848  0.3001
69741POPC   GL228866  26.884  10.385  11.519 -0.0201 -0.0715 -0.0602
69741POPC   C1A28867  26.730  10.014  11.945 -0.2856  0.1656 -0.1817
69741POPC   D2A28868  26.817   9.637  12.206  0.1586 -0.1184  0.0501
69741POPC   C3A28869  26.570   9.305  12.011  0.1271  0.1784  0.1687
69741POPC   C4A28870  26.204   9.026  12.026 -0.3100 -0.0377 -0.0174
69741POPC   C1B28871  26.629  10.009  11.478 -0.0884  0.1833 -0.1360
69741POPC   C2B28872  26.457   9.650  11.233  0.1088 -0.1186  0.4155
69741POPC   C3B28873  26.482   9.511  10.773  0.3742 -0.1699 -0.0413
69741POPC   C4B28874  26.448   9.030  10.714 -0.2849  0.3891 -0.1941
69742POPC   NC328875  22.490   9.843   9.824 -0.0476 -0.0432 -0.0552
69742POPC   PO428876  22.451   9.627  10.176 -0.1474 -0.3576 -0.2300
69742POPC   GL128877  22.821   9.502  10.185  0.0782 -0.0698  0.5007
69742POPC   GL228878  22.855   9.491   9.907  0.0754 -0.1653  0.0777
69742POPC   C1A28879  23.156   9.211  10.172  0.2323 -0.1291  0.2947
69742POPC   D2A28880  23.466   8.946  10.264  0.1692 -0.0606 -0.1491
69742POPC   C3A28881  23.697   8.531  10.316 -0.1295 -0.1581  0.0926
69742POPC   C4A28882  24.090   8.232  10.503  0.0059 -0.0433  0.0695
69742POPC   C1B28883  22.893   9.069   9.750  0.0087  0.1150 -0.0742
69742POPC   C2B28884  23.235   8.757   9.650  0.2388  0.0176 -0.1781
69742POPC   C3B28885  23.512   8.466   9.443 -0.1108  0.1009 -0.4736
69742POPC   C4B28886  23.950   8.436   9.445  0.4191  0.1927 -0.1237
69743POPC   NC328887  29.463  11.055  10.283 -0.0867 -0.2403 -0.0026
69743POPC   PO428888  29.264  11.024   9.946 -0.0445  0.0644 -0.2756
69743POPC   GL128889  29.257  10.920   9.479 -0.1333  0.4893 -0.0844
69743POPC   GL228890  29.093  11.091   9.358  0.2772 -0.1238 -0.0364
69743POPC   C1A28891  29.326  10.775   9.033 -0.0657  0.1930  0.0801
69743POPC   D2A28892  29.316  10.531   8.696  0.1073  0.2631 -0.4399
69743POPC   C3A28893  29.555  10.530   8.358 -0.2756 -0.1426  0.5287
69743POPC   C4A28894  29.483  10.285   7.961 -0.0197 -0.1709 -0.2746
69743POPC   C1B28895  28.804  10.928   9.073 -0.3183  0.1298  0.0392
69743POPC   C2B28896  28.710  10.545   8.866 -0.1953  0.0299  0.1866
69743POPC   C3B28897  28.963  10.176   8.766 -0.1054 -0.1609  0.0593
69743POPC   C4B28898  29.324   9.887   8.850 -0.0154  0.1791  0.1909
69744POPC   NC328899  27.636  10.059  11.575 -0.0145 -0.5536 -0.1490
69744POPC   PO428900  28.053  10.003  11.603 -0.2487 -0.0427  0.1083
69744POPC   GL128901  27.917   9.758  11.349  0.2448 -0.2300 -0.1703
69744POPC   GL228902  27.776   9.965  11.133 -0.0144 -0.3188 -0.1386
69744POPC   C1A28903  27.840   9.350  11.143  0.0793  0.2305  0.0955
69744POPC   D2A28904  27.821   8.955  10.920 -0.2132 -0.0503  0.0177
69744POPC   C3A28905  27.468   8.651  10.677  0.1202 -0.0300 -0.1748
69744POPC   C4A28906  27.637   8.248  10.534  0.4508 -0.1976 -0.1506
69744POPC   C1B28907  27.440   9.665  11.171  0.0390  0.0304 -0.0927
69744POPC   C2B28908  27.317   9.225  11.067  0.0688 -0.0839  0.1366
69744POPC   C3B28909  27.425   8.774  11.170  0.0010 -0.1148  0.0045
69744POPC   C4B28910  27.073   8.426  11.291  0.1224  0.0654 -0.1907
69745POPC   NC328911  18.132   1.369  16.336 -0.1641  0.0317  0.2855
69745POPC   PO428912  18.484   1.282  16.182  0.1971  0.0867 -0.1693
69745POPC   GL128913  18.738   1.251  16.493 -0.3665 -0.0874 -0.1477
69745POPC   GL228914  18.862   1.031  16.429 -0.1079 -0.2624 -0.1479
69745POPC   C1A28915  18.852   1.579  16.822 -0.1283  0.1979  0.0467
69745POPC   D2A28916  18.998   1.799  17.220 -0.0125 -0.1889  0.2061
69745POPC   C3A28917  18.808   1.870  17.610  0.2444 -0.3035 -0.0591
69745POPC   C4A28918  18.558   2.132  17.949  0.1306 -0.1860 -0.1731
69745POPC   C1B28919  18.894   1.112  16.889  0.0578 -0.0088 -0.2102
69745POPC   C2B28920  19.140   1.356  17.238  0.1310  0.0457 -0.1549
69745POPC   C3B28921  19.373   1.525  17.615 -0.0424 -0.1734  0.3031
69745POPC   C4B28922  19.719   1.585  17.932 -0.1535  0.0815 -0.0010
69746POPC   NC328923  23.761  32.429  14.705 -0.0875  0.0827 -0.0864
69746POPC   PO428924  24.119  32.293  14.746 -0.0541  0.1501  0.1966
69746POPC   GL128925  23.967  32.531  15.096  0.1044  0.1955  0.1034
69746POPC   GL228926  23.810  32.833  15.054  0.0919 -0.0561  0.1179
69746POPC   C1A28927  24.256  32.774  15.398 -0.0787  0.1991  0.1729
69746POPC   D2A28928  24.593  32.907  15.657  0.0430  0.0960  0.0300
69746POPC   C3A28929  24.719  33.060  16.039 -0.0663  0.3411  0.0160
69746POPC   C4A28930  24.626  33.079  16.465 -0.1160  0.1124  0.1023
69746POPC   C1B28931  23.907  33.196  15.356 -0.1175  0.0768 -0.0171
69746POPC   C2B28932  24.041  33.521  15.691  0.0902 -0.1030 -0.0956
69746POPC   C3B28933  24.263  33.841  16.008  0.0154  0.1482  0.3763
69746POPC   C4B28934  24.384  34.263  16.214 -0.1505  0.2108 -0.1990
69747POPC   NC328935  31.343   8.221  15.302 -0.0012  0.1469 -0.1159
69747POPC   PO428936  30.983   8.368  15.380 -0.1117  0.2154 -0.4889
69747POPC   GL128937  30.852   8.175  15.770  0.4984 -0.0452  0.0753
69747POPC   GL228938  30.675   8.337  15.938  0.0234  0.2373 -0.1036
69747POPC   C1A28939  31.006   7.839  16.065 -0.1239  0.0276 -0.0773
69747POPC   D2A28940  30.985   7.423  16.316  0.4698 -0.2387  0.0757
69747POPC   C3A28941  30.734   7.579  16.647  0.0976  0.0923 -0.2251
69747POPC   C4A28942  30.405   7.862  16.792 -0.1954 -0.2268 -0.2084
69747POPC   C1B28943  30.435   8.406  16.301  0.0189 -0.0241 -0.1000
69747POPC   C2B28944  30.140   8.298  16.603 -0.3384  0.0189 -0.1025
69747POPC   C3B28945  29.924   7.960  16.828  0.1728  0.0719  0.1711
69747POPC   C4B28946  29.957   7.600  17.066  0.0668  0.3776  0.4080
69748POPC   NC328947  17.671   6.465  15.874  0.2609 -0.2619 -0.2473
69748POPC   PO428948  17.473   6.773  15.855  0.1047  0.2279 -0.3152
69748POPC   GL128949  17.389   6.556  16.249  0.0178  0.1084 -0.0172
69748POPC   GL228950  17.378   6.787  16.408 -0.0295 -0.0648 -0.4131
69748POPC   C1A28951  17.282   6.351  16.670  0.0199  0.2133  0.2713
69748POPC   D2A28952  16.879   6.096  16.780 -0.0854 -0.0672  0.0009
69748POPC   C3A28953  16.460   6.052  16.884 -0.1777  0.3746 -0.1111
69748POPC   C4A28954  16.042   6.210  16.998  0.0451 -0.3462  0.0747
69748POPC   C1B28955  17.264   6.918  16.900  0.1659 -0.0350 -0.2965
69748POPC   C2B28956  17.200   7.024  17.375 -0.0631 -0.0277 -0.1096
69748POPC   C3B28957  17.434   6.922  17.755 -0.0628 -0.0679  0.0850
69748POPC   C4B28958  17.780   6.820  18.139 -0.2498  0.0584  0.1591
69749POPC   NC328959  16.162   0.231  15.907  0.0581 -0.0076 -0.3866
69749POPC   PO428960  16.322  -0.091  16.040  0.2569 -0.0943  0.1335
69749POPC   GL128961  16.156   0.133  16.356 -0.1638 -0.3008 -0.3174
69749POPC   GL228962  16.399   0.279  16.458  0.0148  0.3841  0.1953
69749POPC   C1A28963  15.821  -0.057  16.661 -0.1357  0.1875  0.3535
69749POPC   D2A28964  15.585   0.068  17.034  0.1986  0.1694  0.0837
69749POPC   C3A28965  15.697   0.201  17.472 -0.1485 -0.0628  0.5726
69749POPC   C4A28966  15.717   0.239  17.913 -0.0422  0.1811 -0.1205
69749POPC   C1B28967  16.239   0.150  16.886 -0.1529  0.3727 -0.1913
69749POPC   C2B28968  15.954   0.389  17.124 -0.0185 -0.3367  0.2329
69749POPC   C3B28969  15.782   0.637  17.500 -0.1648  0.1160  0.0181
69749POPC   C4B28970  15.688   0.774  17.940 -0.3351  0.1165 -0.0130
69750POPC   NC328971  30.955  12.452  16.170 -0.4583 -0.2122 -0.1364
69750POPC   PO428972  30.912  12.129  16.338  0.0641  0.0175  0.1812
69750POPC   GL128973  30.818  12.192  16.798 -0.1973  0.2511 -0.1830
69750POPC   GL228974  30.590  12.407  16.766 -0.2519  0.0691 -0.1101
69750POPC   C1A28975  30.668  11.965  17.137 -0.1154  0.1485  0.0758
69750POPC   D2A28976  30.282  11.888  17.326  0.0422  0.3155 -0.0594
69750POPC   C3A28977  30.124  11.665  17.702 -0.1091  0.1580 -0.1828
69750POPC   C4A28978  30.058  11.490  18.098  0.1545  0.3576  0.0225
69750POPC   C1B28979  30.319  12.395  17.133  0.2007 -0.2227 -0.1842
69750POPC   C2B28980  30.327  12.445  17.635  0.0125 -0.0614 -0.0253
69750POPC   C3B28981  30.736  12.653  17.799  0.0088  0.1047  0.1671
69750POPC   C4B28982  30.968  12.929  18.067 -0.2040 -0.0124  0.1231
69751POPC   NC328983  21.906   8.059  13.439  0.3152  0.2835  0.1360
69751POPC   PO428984  22.117   8.368  13.493  0.4292  0.2507  0.0075
69751POPC   GL128985  22.398   8.105  13.504 -0.1845  0.1459 -0.1666
69751POPC   GL228986  22.392   7.865  13.713 -0.2522 -0.2020 -0.0034
69751POPC   C1A28987  22.748   7.890  13.281  0.2654  0.1024  0.1545
69751POPC   D2A28988  23.203   7.805  13.130 -0.0267  0.0387  0.1489
69751POPC   C3A28989  23.480   7.587  13.403 -0.1560 -0.0179 -0.2308
69751POPC   C4A28990  23.934   7.497  13.447  0.2048 -0.3186 -0.1552
69751POPC   C1B28991  22.633   7.478  13.892  0.0764 -0.1019  0.1941
69751POPC   C2B28992  22.966   7.211  14.011 -0.0608 -0.0682 -0.1220
69751POPC   C3B28993  23.361   7.136  14.256 -0.1101 -0.3503  0.0992
69751POPC   C4B28994  23.725   7.232  14.528 -0.4292 -0.1767 -0.0031
69752POPC   NC328995  23.166  10.455  10.078 -0.0050  0.0790  0.1640
69752POPC   PO428996  23.420  10.179  10.171 -0.1670 -0.0543 -0.1136
69752POPC   GL128997  23.603   9.821  10.032  0.1585 -0.1926 -0.1503
69752POPC   GL228998  23.364   9.665   9.978  0.1218  0.0537  0.1391
69752POPC   C1A28999  23.857   9.549   9.740  0.2807 -0.2744 -0.0588
69752POPC   D2A29000  24.059   9.403   9.407 -0.0962 -0.1280 -0.0238
69752POPC   C3A29001  24.273   9.499   9.073 -0.0281 -0.2275 -0.0338
69752POPC   C4A29002  24.580   9.672   8.862 -0.1951 -0.2829 -0.2269
69752POPC   C1B29003  23.475   9.275   9.763  0.3748  0.0093  0.1082
69752POPC   C2B29004  23.770   9.021   9.446 -0.1582 -0.2441  0.0336
69752POPC   C3B29005  24.145   8.876   9.204 -0.2004 -0.2398 -0.1629
69752POPC   C4B29006  24.235   9.086   8.847 -0.0539 -0.0520 -0.1256
69753POPC   NC329007  19.310  15.674  15.826  0.0532  0.2392 -0.0764
69753POPC   PO429008  18.970  15.687  16.036 -0.2875  0.1615  0.2178
69753POPC   GL129009  18.933  15.498  16.451  0.0683 -0.1373 -0.2257
69753POPC   GL229010  19.051  15.388  16.681  0.1205  0.1326 -0.1340
69753POPC   C1A29011  18.707  15.775  16.722 -0.1734  0.0256 -0.1103
69753POPC   D2A29012  18.885  15.862  17.110 -0.0399  0.0835 -0.1180
69753POPC   C3A29013  18.841  16.025  17.516 -0.1155  0.0173 -0.0388
69753POPC   C4A29014  19.001  16.048  17.913 -0.0187  0.1695  0.2136
69753POPC   C1B29015  19.295  15.730  16.841  0.0318  0.0880 -0.0001
69753POPC   C2B29016  19.394  15.958  17.187 -0.1001  0.1691  0.0308
69753POPC   C3B29017  19.314  16.251  17.544 -0.1830  0.1111 -0.1958
69753POPC   C4B29018  19.181  16.508  17.884  0.0891  0.0609 -0.2306
69754POPC   NC329019  21.376   6.854  13.839  0.0048  0.2721 -0.0375
69754POPC   PO429020  21.350   6.997  14.211 -0.1432 -0.3560 -0.3052
69754POPC   GL129021  21.551   6.951  14.488  0.1843  0.1999  0.0093
69754POPC   GL229022  21.785   6.808  14.306  0.0749  0.1118 -0.0564
69754POPC   C1A29023  21.823   6.647  14.727 -0.0075 -0.3342 -0.1357
69754POPC   D2A29024  22.180   6.409  14.934  0.1159  0.0818  0.1381
69754POPC   C3A29025  22.532   6.593  15.195  0.4620  0.0941 -0.1398
69754POPC   C4A29026  22.647   6.954  15.527 -0.3460  0.0286 -0.0581
69754POPC   C1B29027  22.205   6.730  14.198 -0.0904  0.2379  0.2137
69754POPC   C2B29028  22.629   6.614  14.208  0.2514  0.0738 -0.1167
69754POPC   C3B29029  23.054   6.689  14.022  0.0777  0.1313 -0.0933
69754POPC   C4B29030  23.477   6.785  13.910 -0.2042 -0.0531  0.4041
69755POPC   NC329031  29.482  12.289  16.209  0.1819 -0.0267 -0.4009
69755POPC   PO429032  29.512  12.681  16.315  0.0011 -0.0408 -0.0442
69755POPC   GL129033  29.717  12.509  16.604  0.1017  0.1109  0.0988
69755POPC   GL229034  29.857  12.142  16.595  0.2419 -0.1643 -0.1687
69755POPC   C1A29035  29.642  12.654  17.028  0.1524  0.1022  0.0304
69755POPC   D2A29036  29.587  13.008  17.309  0.0052 -0.3454 -0.0689
69755POPC   C3A29037  29.481  13.241  17.732 -0.0044  0.0592 -0.1464
69755POPC   C4A29038  29.208  13.437  17.971 -0.5372  0.2676  0.0651
69755POPC   C1B29039  29.849  12.177  17.053 -0.2003  0.0579 -0.2186
69755POPC   C2B29040  29.875  12.143  17.540  0.0598  0.0668 -0.1462
69755POPC   C3B29041  30.087  12.086  17.986  0.2419 -0.0356 -0.1196
69755POPC   C4B29042  30.197  12.035  18.464  0.2207 -0.2383  0.0565
69756POPC   NC329043  20.229   4.599  14.080  0.0252 -0.1415  0.0971
69756POPC   PO429044  20.115   4.973  14.254  0.3215 -0.1354  0.0163
69756POPC   GL129045  20.606   4.834  14.273 -0.1033  0.2721 -0.1365
69756POPC   GL229046  20.694   4.521  14.267 -0.0455 -0.0875  0.2026
69756POPC   C1A29047  20.948   4.965  14.527  0.2693  0.0943  0.2666
69756POPC   D2A29048  21.121   4.792  14.953  0.2717  0.1138 -0.1395
69756POPC   C3A29049  21.417   4.997  15.229 -0.2351 -0.1597 -0.0233
69756POPC   C4A29050  21.769   5.295  15.296  0.2994  0.2601 -0.3487
69756POPC   C1B29051  21.051   4.496  14.536  0.0101 -0.1783  0.2607
69756POPC   C2B29052  21.463   4.525  14.688  0.1671 -0.2878  0.0024
69756POPC   C3B29053  21.622   4.489  15.127 -0.0544  0.0658 -0.1566
69756POPC   C4B29054  22.016   4.307  15.313 -0.3238  0.4261 -0.0610
69757POPC   NC329055  30.977   3.100  15.164  0.1789  0.0146 -0.0513
69757POPC   PO429056  30.860   3.115  14.784  0.1210  0.0056 -0.0119
69757POPC   GL129057  30.497   3.163  15.120 -0.2443  0.0628 -0.2781
69757POPC   GL229058  30.409   3.328  14.873  0.3178 -0.1048 -0.0864
69757POPC   C1A29059  30.268   3.216  15.564  0.1226  0.0556  0.0175
69757POPC   D2A29060  30.143   3.100  15.953 -0.1563 -0.0600 -0.1997
69757POPC   C3A29061  29.756   3.398  16.046  0.5025  0.0715  0.0648
69757POPC   C4A29062  29.450   3.653  16.281  0.2397  0.3372  0.0696
69757POPC   C1B29063  30.040   3.484  15.114  0.0897  0.0489  0.0469
69757POPC   C2B29064  29.833   3.573  15.491 -0.2108  0.2427  0.1252
69757POPC   C3B29065  29.587   3.934  15.638 -0.2899  0.0371 -0.2180
69757POPC   C4B29066  29.374   4.301  15.864  0.3877  0.1385 -0.0193
69758POPC   NC329067  30.189   0.228  15.930 -0.0417 -0.2090  0.2573
69758POPC   PO429068  29.905   0.425  15.749 -0.0752 -0.1829  0.0881
69758POPC   GL129069  29.656   0.182  15.947 -0.2885 -0.0998  0.0045
69758POPC   GL229070  29.778   0.220  16.227  0.0067 -0.0452  0.2519
69758POPC   C1A29071  29.196   0.294  15.991 -0.0513 -0.1152  0.0492
69758POPC   D2A29072  28.967   0.549  16.342 -0.1058  0.3577 -0.0562
69758POPC   C3A29073  28.912   0.411  16.725  0.0522  0.1939 -0.0115
69758POPC   C4A29074  28.985   0.107  17.046  0.4367  0.1636 -0.2612
69758POPC   C1B29075  29.478   0.568  16.336  0.1306  0.1457  0.2181
69758POPC   C2B29076  29.290   0.660  16.713 -0.0047  0.3042 -0.1471
69758POPC   C3B29077  29.091   0.665  17.165  0.0235  0.0686  0.1069
69758POPC   C4B29078  28.756   0.477  17.331  0.1500 -0.3174  0.1301
69759POPC   NC329079  30.078   3.415  13.235 -0.0975 -0.3411 -0.2580
69759POPC   PO429080  30.002   3.460  12.841 -0.3588  0.3741 -0.3479
69759POPC   GL129081  29.634   3.621  13.018  0.0013 -0.5164 -0.2769
69759POPC   GL229082  29.463   3.620  13.261 -0.2650 -0.0634 -0.0521
69759POPC   C1A29083  29.345   4.042  13.040 -0.3900  0.1443 -0.3920
69759POPC   D2A29084  29.177   4.347  13.315 -0.1062 -0.2674  0.0396
69759POPC   C3A29085  28.822   4.631  13.327  0.0222  0.0506  0.1760
69759POPC   C4A29086  28.930   4.924  12.991 -0.0639  0.0018 -0.1400
69759POPC   C1B29087  29.016   3.626  13.425  0.1089 -0.0741 -0.2596
69759POPC   C2B29088  28.738   3.943  13.395 -0.0512  0.0305 -0.0075
69759POPC   C3B29089  28.694   4.271  13.059  0.0034 -0.2525 -0.1982
69759POPC   C4B29090  29.058   4.461  12.850 -0.1132  0.2032 -0.2411
69760POPC   NC329091  31.741  14.193  16.078  0.1274 -0.0676  0.0265
69760POPC   PO429092  31.920  13.828  16.185  0.1192 -0.0687  0.2444
69760POPC   GL129093  31.801  13.939  16.552  0.1201  0.5403 -0.2199
69760POPC   GL229094  32.033  14.173  16.527 -0.0280 -0.2683 -0.3033
69760POPC   C1A29095  31.601  13.878  16.992 -0.0985  0.4156  0.0124
69760POPC   D2A29096  31.553  13.687  17.372 -0.0137 -0.1318 -0.0514
69760POPC   C3A29097  32.009  13.601  17.521  0.2384 -0.1316  0.0911
69760POPC   C4A29098  32.457  13.489  17.719 -0.0735 -0.0641  0.1370
69760POPC   C1B29099  32.006  14.412  16.909 -0.0468  0.1565 -0.0772
69760POPC   C2B29100  31.851  14.563  17.338 -0.2533 -0.0298  0.1003
69760POPC   C3B29101  31.861  14.766  17.748  0.2483  0.1892  0.2609
69760POPC   C4B29102  31.635  14.769  18.118 -0.1327 -0.1630  0.0896
69761POPC   NC329103  25.345  10.873  11.274 -0.2083  0.0110  0.3308
69761POPC   PO429104  25.634  10.766  11.560 -0.0656  0.1487  0.0833
69761POPC   GL129105  25.796  10.465  11.450 -0.3178 -0.0798 -0.0011
69761POPC   GL229106  25.809  10.278  11.169  0.0731  0.0667 -0.2535
69761POPC   C1A29107  25.575  10.004  11.480 -0.1642  0.1075 -0.1763
69761POPC   D2A29108  25.708   9.602  11.693  0.2404 -0.1508  0.0441
69761POPC   C3A29109  25.653   9.265  11.406  0.1047 -0.0767  0.0305
69761POPC   C4A29110  25.495   8.806  11.419  0.0559  0.4849 -0.2395
69761POPC   C1B29111  26.084   9.955  10.947  0.4069  0.0487  0.0547
69761POPC   C2B29112  26.069   9.702  10.557  0.3377 -0.1637  0.2300
69761POPC   C3B29113  25.908   9.538  10.220 -0.0271  0.0635  0.1225
69761POPC   C4B29114  25.854   9.404   9.777  0.2733 -0.2436 -0.1984
69762POPC   NC329115  23.917   0.843  12.522 -0.0931 -0.2460  0.1659
69762POPC   PO429116  24.271   0.830  12.690 -0.1728  0.0151 -0.0953
69762POPC   GL129117  24.508   1.085  12.707 -0.2933 -0.0767 -0.1957
69762POPC   GL229118  24.383   1.311  12.469  0.0637 -0.1011 -0.0601
69762POPC   C1A29119  24.593   1.312  13.149 -0.2749  0.2508 -0.2092
69762POPC   D2A29120  24.500   1.477  13.554 -0.1916  0.0255  0.2144
69762POPC   C3A29121  24.931   1.607  13.729  0.1621 -0.0715  0.1467
69762POPC   C4A29122  25.094   1.754  14.135 -0.0803 -0.1303 -0.1354
69762POPC   C1B29123  24.672   1.669  12.468  0.1961  0.1961 -0.0582
69762POPC   C2B29124  24.648   2.114  12.529  0.1316 -0.0698 -0.0459
69762POPC   C3B29125  24.683   2.570  12.648 -0.3547  0.5048  0.0893
69762POPC   C4B29126  24.593   3.012  12.717 -0.0053 -0.1263  0.0829
69763POPC   NC329127  31.477   0.860  15.938  0.2323 -0.3412  0.1472
69763POPC   PO429128  31.525   0.600  16.211 -0.1352  0.0305  0.3331
69763POPC   GL129129  31.370   0.718  16.531  0.0340  0.2559  0.1972
69763POPC   GL229130  31.103   0.554  16.453 -0.1297 -0.0193 -0.1720
69763POPC   C1A29131  31.437   0.845  16.946 -0.4916  0.3371 -0.0526
69763POPC   D2A29132  31.628   1.138  17.255 -0.2712  0.0318 -0.0901
69763POPC   C3A29133  31.185   1.207  17.414  0.0227 -0.1039  0.3509
69763POPC   C4A29134  30.825   1.217  17.674 -0.2150  0.0765  0.0303
69763POPC   C1B29135  31.126   0.472  16.926  0.0120  0.0667 -0.1276
69763POPC   C2B29136  31.029   0.683  17.337  0.1587 -0.0849 -0.0393
69763POPC   C3B29137  31.127   0.846  17.791  0.6164 -0.1998 -0.2299
69763POPC   C4B29138  31.224   1.192  18.055 -0.1001 -0.2727  0.0093
69764POPC   NC329139  17.107  11.408  16.090  0.0726 -0.2589 -0.0957
69764POPC   PO429140  16.826  11.579  16.276 -0.1649 -0.3767 -0.0618
69764POPC   GL129141  16.714  11.329  16.628  0.3460  0.1237  0.2655
69764POPC   GL229142  16.795  11.099  16.607 -0.0451  0.2383  0.0901
69764POPC   C1A29143  16.379  11.025  16.913  0.0854  0.1606  0.2383
69764POPC   D2A29144  16.310  10.652  17.139 -0.2141 -0.1150 -0.0436
69764POPC   C3A29145  16.167  10.632  17.541 -0.0242 -0.0926 -0.0132
69764POPC   C4A29146  16.265  10.498  17.991 -0.0511  0.2796 -0.1209
69764POPC   C1B29147  16.852  10.931  17.020  0.1638 -0.0613 -0.0860
69764POPC   C2B29148  16.799  10.799  17.518 -0.0493  0.2082  0.0855
69764POPC   C3B29149  16.742  10.507  17.854 -0.2257 -0.1284  0.3227
69764POPC   C4B29150  16.868  10.417  18.303 -0.0774 -0.0426  0.1494
69765POPC   NC329151  20.889  16.336  15.522 -0.0196  0.0286  0.0498
69765POPC   PO429152  21.230  16.223  15.700 -0.2203 -0.0945 -0.2955
69765POPC   GL129153  21.206  16.391  16.020  0.7158  0.2752 -0.1354
69765POPC   GL229154  20.955  16.448  16.050  0.1014  0.1216 -0.0108
69765POPC   C1A29155  21.444  16.744  16.093 -0.0443 -0.1771  0.0734
69765POPC   D2A29156  21.707  16.950  16.367  0.2706 -0.1616  0.0865
69765POPC   C3A29157  21.478  17.314  16.550  0.0871 -0.4883  0.0587
69765POPC   C4A29158  21.605  17.443  16.984  0.0533 -0.1107 -0.0498
69765POPC   C1B29159  21.102  16.688  16.434 -0.1831  0.1651  0.0297
69765POPC   C2B29160  21.437  16.771  16.781  0.0886  0.1572 -0.0402
69765POPC   C3B29161  21.890  16.926  16.865  0.3919 -0.1549  0.1101
69765POPC   C4B29162  21.941  17.223  17.246 -0.0923 -0.1365  0.3506
69766POPC   NC329163  31.371  13.457  16.651  0.1268 -0.1337 -0.0452
69766POPC   PO429164  31.049  13.447  16.443  0.1656  0.0990  0.0267
69766POPC   GL129165  30.801  13.381  16.846 -0.1770 -0.2232 -0.2429
69766POPC   GL229166  30.645  13.648  16.809 -0.3704  0.0968 -0.0681
69766POPC   C1A29167  30.853  13.113  17.214 -0.1199 -0.3523  0.0630
69766POPC   D2A29168  31.071  12.869  17.514  0.1226  0.1613 -0.1027
69766POPC   C3A29169  31.439  12.902  17.728  0.2926 -0.2360 -0.3283
69766POPC   C4A29170  31.670  13.000  18.118  0.0358 -0.4585 -0.2599
69766POPC   C1B29171  30.417  13.430  17.103  0.1515 -0.1045 -0.1595
69766POPC   C2B29172  30.526  13.383  17.545  0.0518 -0.0753  0.0552
69766POPC   C3B29173  30.817  13.266  17.778 -0.2341  0.1032 -0.0332
69766POPC   C4B29174  31.145  13.450  18.036 -0.3473  0.1488  0.2511
69767POPC   NC329175  20.784  12.725  16.653 -0.1931  0.0661  0.3801
69767POPC   PO429176  21.161  12.672  16.778 -0.2352  0.1308  0.1152
69767POPC   GL129177  21.422  12.741  17.080  0.0038  0.5664  0.1560
69767POPC   GL229178  21.664  12.575  16.990  0.1032 -0.0204  0.0916
69767POPC   C1A29179  21.511  12.512  17.432 -0.0450  0.4477  0.0084
69767POPC   D2A29180  21.789  12.312  17.747 -0.0146  0.0947 -0.1608
69767POPC   C3A29181  21.689  11.954  18.002  0.2910  0.0444 -0.3106
69767POPC   C4A29182  21.790  11.504  18.099  0.1450 -0.0316  0.0476
69767POPC   C1B29183  21.964  12.786  17.288  0.0519 -0.0685  0.0307
69767POPC   C2B29184  22.364  12.764  17.570  0.1606 -0.1457  0.2342
69767POPC   C3B29185  22.492  12.931  17.980 -0.1815 -0.0111 -0.1024
69767POPC   C4B29186  22.768  13.044  18.290 -0.1139 -0.0864  0.5341
69768POPC   NC329187  31.426   7.095  12.958  0.0263 -0.0863 -0.1431
69768POPC   PO429188  31.029   7.103  12.917 -0.1589  0.3785  0.1001
69768POPC   GL129189  30.709   6.864  12.776 -0.3643 -0.3935  0.2201
69768POPC   GL229190  30.490   7.039  12.817 -0.0735  0.3829 -0.3950
69768POPC   C1A29191  30.516   6.553  13.062 -0.1885 -0.0345  0.0644
69768POPC   D2A29192  30.455   6.396  13.509 -0.0923  0.1368  0.0847
69768POPC   C3A29193  30.016   6.361  13.691 -0.1513 -0.0095 -0.1904
69768POPC   C4A29194  29.732   6.691  13.622 -0.0586 -0.0646  0.3026
69768POPC   C1B29195  30.021   7.008  12.742  0.0911 -0.0380 -0.0894
69768POPC   C2B29196  29.561   7.007  12.859  0.4501 -0.0251 -0.2421
69768POPC   C3B29197  29.189   6.765  12.772 -0.1272  0.0813 -0.0878
69768POPC   C4B29198  28.744   6.592  12.725 -0.0527  0.0692 -0.0897
69769POPC   NC329199  27.044   9.896  15.766 -0.0227 -0.2309 -0.3165
69769POPC   PO429200  27.218  10.222  15.679 -0.0332  0.2114  0.0066
69769POPC   GL129201  27.154  10.327  16.045  0.0287  0.2495  0.3904
69769POPC   GL229202  27.289  10.537  16.188  0.0578 -0.0426  0.0075
69769POPC   C1A29203  26.811  10.078  16.225  0.0767  0.0146 -0.1121
69769POPC   D2A29204  26.610   9.699  16.447 -0.0893 -0.0621 -0.0610
69769POPC   C3A29205  26.623   9.463  16.844  0.0812 -0.0529  0.0479
69769POPC   C4A29206  26.668   9.450  17.323 -0.0048 -0.2286 -0.2778
69769POPC   C1B29207  27.258  10.397  16.615  0.0082 -0.1571  0.1229
69769POPC   C2B29208  27.200  10.229  17.078 -0.0508 -0.1709  0.1276
69769POPC   C3B29209  27.428   9.963  17.387 -0.0108 -0.0187  0.1117
69769POPC   C4B29210  27.559   9.821  17.818 -0.1191  0.3416  0.1198
69770POPC   NC329211  20.891  13.563  16.679  0.0199 -0.2774  0.2153
69770POPC   PO429212  21.133  13.304  16.563 -0.2277 -0.1846  0.0796
69770POPC   GL129213  21.392  13.258  16.922 -0.0370  0.1855  0.1012
69770POPC   GL229214  21.196  13.461  17.067  0.0675  0.1081  0.2380
69770POPC   C1A29215  21.472  13.091  17.349 -0.0577 -0.0776  0.2063
69770POPC   D2A29216  21.363  12.896  17.750 -0.0393 -0.0711  0.0210
69770POPC   C3A29217  21.510  13.007  18.147  0.0749  0.2534  0.4069
69770POPC   C4A29218  21.935  13.165  18.178  0.1305  0.1927 -0.1993
69770POPC   C1B29219  20.777  13.593  17.163  0.1330 -0.0360 -0.0203
69770POPC   C2B29220  20.632  13.606  17.646 -0.0678 -0.3670  0.0973
69770POPC   C3B29221  20.527  13.481  18.077  0.1118  0.3095 -0.0728
69770POPC   C4B29222  20.557  13.141  18.364  0.5727 -0.2749  0.0555
69771POPC   NC329223  24.319  10.683  15.153  0.2187 -0.0238 -0.0994
69771POPC   PO429224  24.616  10.510  15.352 -0.2908  0.0421 -0.2051
69771POPC   GL129225  24.729  10.519  15.730  0.2009  0.0696 -0.0984
69771POPC   GL229226  24.833  10.812  15.773  0.1409 -0.1445 -0.0386
69771POPC   C1A29227  24.592  10.303  16.125 -0.3159 -0.0957  0.2545
69771POPC   D2A29228  24.660  10.398  16.586  0.1927 -0.0385 -0.1738
69771POPC   C3A29229  24.372  10.355  16.892  0.3915  0.1101 -0.0655
69771POPC   C4A29230  24.234  10.665  17.192  0.0505  0.0743 -0.0235
69771POPC   C1B29231  24.865  10.723  16.246 -0.0638  0.1853  0.0249
69771POPC   C2B29232  25.004  10.721  16.675 -0.2389 -0.1390 -0.0096
69771POPC   C3B29233  25.019  10.361  16.960 -0.2003 -0.0765  0.0748
69771POPC   C4B29234  25.112  10.093  17.255  0.1609  0.1556 -0.1373
69772POPC   NC329235  29.588  16.031   8.728 -0.0782  0.5547  0.1487
69772POPC   PO429236  29.298  16.171   8.544 -0.0238  0.1737 -0.2451
69772POPC   GL129237  29.073  16.213   8.198  0.2548  0.2425  0.2347
69772POPC   GL229238  29.105  16.529   8.180  0.0081  0.0523 -0.0687
69772POPC   C1A29239  28.982  16.197   7.776  0.1664  0.2200 -0.2056
69772POPC   D2A29240  28.762  16.339   7.439 -0.0900 -0.2513 -0.0436
69772POPC   C3A29241  28.843  16.662   7.180  0.0548  0.0737 -0.1016
69772POPC   C4A29242  28.931  17.028   6.943  0.1646  0.1822  0.3628
69772POPC   C1B29243  28.792  16.747   7.920  0.1485  0.2846 -0.1042
69772POPC   C2B29244  28.577  16.814   7.573  0.0553  0.0123 -0.2481
69772POPC   C3B29245  28.321  16.623   7.205 -0.1978 -0.1060  0.0018
69772POPC   C4B29246  27.911  16.500   7.043  0.0158  0.0461  0.0773
69773POPC   NC329247  32.688   8.959  16.079  0.3715  0.0977 -0.1545
69773POPC   PO429248  32.917   8.650  16.035 -0.0222 -0.4810 -0.0688
69773POPC   GL129249  32.979   8.610  16.387  0.1886  0.2366  0.0325
69773POPC   GL229250  32.926   8.876  16.499 -0.2240  0.1381  0.1271
69773POPC   C1A29251  32.852   8.131  16.437 -0.0611  0.1704  0.2264
69773POPC   D2A29252  32.691   7.750  16.693  0.3089  0.0605 -0.3741
69773POPC   C3A29253  32.811   7.722  17.174  0.3225  0.0880 -0.1711
69773POPC   C4A29254  33.013   7.841  17.590  0.0259 -0.3291 -0.2333
69773POPC   C1B29255  32.647   8.802  16.803  0.0249 -0.2127 -0.0614
69773POPC   C2B29256  32.425   8.633  17.154  0.0837 -0.1019 -0.0277
69773POPC   C3B29257  32.018   8.570  17.302  0.1701 -0.1055  0.2327
69773POPC   C4B29258  31.924   8.199  17.117  0.2564  0.2703  0.2265
69774POPC   NC329259  30.127   4.429  13.021 -0.1205  0.0127  0.1214
69774POPC   PO429260  30.246   4.213  13.327  0.1369 -0.0741 -0.2708
69774POPC   GL129261  29.876   4.239  13.541 -0.1209  0.2465  0.2574
69774POPC   GL229262  29.937   4.506  13.632 -0.1907 -0.1392 -0.0417
69774POPC   C1A29263  29.644   4.418  13.158 -0.2018  0.0614 -0.0294
69774POPC   D2A29264  29.617   4.316  12.670 -0.1245  0.2052  0.0490
69774POPC   C3A29265  29.183   4.224  12.468 -0.0103  0.1397 -0.1406
69774POPC   C4A29266  28.747   4.165  12.527 -0.0173  0.3259  0.1657
69774POPC   C1B29267  29.515   4.676  13.565 -0.0973 -0.1880 -0.0554
69774POPC   C2B29268  29.053   4.761  13.700  0.3176  0.1674  0.0905
69774POPC   C3B29269  28.782   4.858  14.046  0.0623  0.1967 -0.2938
69774POPC   C4B29270  28.514   4.627  14.326  0.0524 -0.1980 -0.0552
69775POPC   NC329271  23.142  14.723  15.615  0.1214  0.0953 -0.0739
69775POPC   PO429272  23.324  15.020  15.786 -0.0321  0.1397  0.2407
69775POPC   GL129273  23.500  15.246  15.954 -0.2538 -0.2329 -0.2959
69775POPC   GL229274  23.502  15.292  16.268  0.0626 -0.1940 -0.0984
69775POPC   C1A29275  23.666  15.693  15.971  0.0569  0.0523 -0.2618
69775POPC   D2A29276  23.523  15.940  16.295  0.1023  0.1554 -0.3539
69775POPC   C3A29277  23.862  16.036  16.534  0.0628 -0.0500  0.0017
69775POPC   C4A29278  24.198  16.401  16.596 -0.0948  0.1035  0.0513
69775POPC   C1B29279  23.397  15.138  16.657  0.2464 -0.5801 -0.3257
69775POPC   C2B29280  23.352  15.039  17.060  0.0199  0.0884  0.1153
69775POPC   C3B29281  23.427  14.901  17.438  0.0803 -0.2255 -0.0377
69775POPC   C4B29282  23.740  14.953  17.784  0.0269 -0.3451  0.0303
69776POPC   NC329283  29.255  10.404  16.083  0.1922  0.1006  0.1530
69776POPC   PO429284  29.088  10.117  15.904  0.2004  0.3457  0.0146
69776POPC   GL129285  28.934   9.951  16.223  0.2732 -0.3406  0.0275
69776POPC   GL229286  29.041  10.025  16.495  0.3331  0.2268 -0.0015
69776POPC   C1A29287  28.667   9.597  16.369  0.0335 -0.0341 -0.1702
69776POPC   D2A29288  28.198   9.422  16.415 -0.1551 -0.2865  0.3017
69776POPC   C3A29289  27.977   9.357  16.815  0.0513 -0.4142  0.0939
69776POPC   C4A29290  27.611   9.351  17.060 -0.1537 -0.2235 -0.1136
69776POPC   C1B29291  28.910   9.735  16.783 -0.0516 -0.1094  0.2511
69776POPC   C2B29292  28.738   9.644  17.207 -0.0430  0.2063 -0.2204
69776POPC   C3B29293  28.794   9.349  17.541  0.0688  0.0233  0.0629
69776POPC   C4B29294  28.674   9.213  17.962  0.2046  0.0232  0.0960
69777POPC   NC329295  27.509   9.085  13.698 -0.1012  0.0106 -0.1845
69777POPC   PO429296  27.651   9.393  13.918 -0.0655  0.2729  0.0382
69777POPC   GL129297  27.692   8.982  14.145 -0.0702 -0.2923  0.3135
69777POPC   GL229298  27.760   8.779  14.356 -0.1503 -0.1051  0.7054
69777POPC   C1A29299  27.650   8.605  13.888  0.0249 -0.2432  0.1891
69777POPC   D2A29300  27.678   8.481  13.481  0.0883  0.2723  0.3494
69777POPC   C3A29301  27.450   8.241  13.204  0.0557 -0.1168  0.0865
69777POPC   C4A29302  27.159   7.843  13.063  0.1231 -0.3333 -0.0564
69777POPC   C1B29303  27.820   8.349  14.363 -0.3878 -0.4672  0.0059
69777POPC   C2B29304  27.583   7.953  14.360  0.3441 -0.2850  0.0570
69777POPC   C3B29305  27.300   7.615  14.448  0.2959 -0.1940 -0.0148
69777POPC   C4B29306  27.177   7.193  14.492 -0.0768 -0.0368  0.0241
69778POPC   NC329307  32.433   2.448  15.539 -0.0556  0.0914  0.3251
69778POPC   PO429308  32.067   2.312  15.586  0.2521 -0.3452 -0.3661
69778POPC   GL129309  32.103   2.505  15.900 -0.1152 -0.1845  0.0066
69778POPC   GL229310  31.937   2.767  15.864  0.2427  0.2776  0.1228
69778POPC   C1A29311  32.173   2.622  16.374  0.1549  0.1747 -0.0528
69778POPC   D2A29312  32.364   2.791  16.779 -0.0959  0.1593 -0.4493
69778POPC   C3A29313  32.040   2.954  17.099  0.0376 -0.0830  0.1919
69778POPC   C4A29314  31.792   3.298  17.247  0.0138 -0.1201  0.1370
69778POPC   C1B29315  31.609   2.910  16.190 -0.0657  0.1653  0.1175
69778POPC   C2B29316  31.292   2.893  16.567  0.0955 -0.1986  0.1385
69778POPC   C3B29317  30.975   2.860  16.863  0.1144 -0.0308  0.1168
69778POPC   C4B29318  30.611   2.663  16.979  0.2621  0.1248  0.0229
69779POPC   NC329319  32.235   7.321  15.504  0.1063 -0.0256  0.2399
69779POPC   PO429320  31.952   7.578  15.408 -0.0397 -0.0085  0.1440
69779POPC   GL129321  31.876   7.574  15.790  0.1676  0.1415  0.1980
69779POPC   GL229322  31.836   7.301  15.795 -0.1159 -0.0941 -0.1198
69779POPC   C1A29323  31.463   7.521  16.057  0.2396 -0.0307 -0.0559
69779POPC   D2A29324  31.439   7.424  16.521  0.0541 -0.0000 -0.0624
69779POPC   C3A29325  31.639   7.296  16.865  0.1137 -0.2507 -0.0454
69779POPC   C4A29326  31.897   7.572  17.120  0.0444  0.0665 -0.1227
69779POPC   C1B29327  31.749   7.086  16.167 -0.1916  0.3258 -0.0446
69779POPC   C2B29328  31.647   6.787  16.490  0.1313  0.0242 -0.0085
69779POPC   C3B29329  31.849   6.653  16.843  0.0754  0.2499 -0.2379
69779POPC   C4B29330  31.857   6.280  17.099 -0.1381  0.3233 -0.1556
69780POPC   NC329331  25.088  10.653  15.336  0.0843  0.1209 -0.2730
69780POPC   PO429332  25.239  10.368  15.089 -0.0271 -0.0563 -0.1435
69780POPC   GL129333  25.254  10.053  15.371  0.0059 -0.0313  0.0153
69780POPC   GL229334  25.066  10.149  15.501  0.0369 -0.1916 -0.0414
69780POPC   C1A29335  25.115   9.638  15.515  0.1583 -0.0069 -0.0308
69780POPC   D2A29336  24.845   9.317  15.731  0.0716 -0.0668 -0.3911
69780POPC   C3A29337  24.618   9.216  16.152  0.1198 -0.1540 -0.1271
69780POPC   C4A29338  24.273   9.031  16.376  0.3033 -0.1234 -0.1719
69780POPC   C1B29339  24.842   9.952  15.820  0.4224 -0.0230  0.2552
69780POPC   C2B29340  24.811   9.763  16.251 -0.2427 -0.0166 -0.0518
69780POPC   C3B29341  24.651   9.530  16.640 -0.3315 -0.1180  0.1673
69780POPC   C4B29342  24.569   9.109  16.772  0.1117  0.1980  0.2758
69781POPC   NC329343  23.345  12.527  16.383 -0.0414  0.0299  0.3372
69781POPC   PO429344  22.952  12.455  16.274 -0.0835  0.3441  0.0401
69781POPC   GL129345  23.019  12.557  16.703  0.0542  0.2104  0.2453
69781POPC   GL229346  22.945  12.767  16.684  0.0250 -0.1657 -0.0127
69781POPC   C1A29347  23.163  12.244  17.056  0.0943 -0.0996  0.3691
69781POPC   D2A29348  23.373  12.061  17.455  0.1391 -0.3274  0.0324
69781POPC   C3A29349  23.501  12.131  17.918  0.2544  0.1055 -0.2775
69781POPC   C4A29350  23.839  12.301  18.225  0.1110 -0.2135 -0.2341
69781POPC   C1B29351  23.098  12.752  17.113 -0.0028  0.1958 -0.0120
69781POPC   C2B29352  22.963  12.868  17.537 -0.1370  0.2425  0.2445
69781POPC   C3B29353  22.758  13.252  17.713  0.1739 -0.2282 -0.1015
69781POPC   C4B29354  22.389  13.538  17.828  0.0040 -0.0404 -0.2703
69782POPC   NC329355  30.890   6.672  14.046 -0.1153 -0.0763  0.1414
69782POPC   PO429356  30.687   6.762  13.731 -0.2232  0.1354 -0.1387
69782POPC   GL129357  30.356   6.889  13.902  0.2307  0.6108  0.2946
69782POPC   GL229358  30.187   6.874  13.724 -0.2759  0.0293  0.4382
69782POPC   C1A29359  30.004   6.720  14.126 -0.3172 -0.0212 -0.1556
69782POPC   D2A29360  29.645   6.444  14.017  0.1842 -0.1168  0.1685
69782POPC   C3A29361  29.206   6.519  14.187 -0.2738 -0.1997 -0.0219
69782POPC   C4A29362  28.826   6.289  14.179  0.1862 -0.3996  0.2295
69782POPC   C1B29363  30.140   6.708  13.268 -0.3590  0.1661 -0.1367
69782POPC   C2B29364  29.809   6.609  12.982 -0.0947 -0.1910 -0.2651
69782POPC   C3B29365  29.499   6.394  12.749  0.2630  0.2007 -0.1717
69782POPC   C4B29366  29.267   6.207  12.376  0.0992  0.2519  0.1473
69783POPC   NC329367  30.692   5.102  11.204  0.1475  0.1473  0.2512
69783POPC   PO429368  30.946   5.268  10.917  0.0060 -0.2735  0.1009
69783POPC   GL129369  30.883   5.625  10.840  0.0442 -0.1393  0.2269
69783POPC   GL229370  30.781   5.774  11.075 -0.3749  0.0473 -0.0967
69783POPC   C1A29371  30.404   5.767  10.775  0.0502  0.0753 -0.0760
69783POPC   D2A29372  30.068   5.727  10.477 -0.3537  0.1441  0.1938
69783POPC   C3A29373  29.651   5.841  10.444 -0.3741  0.1603  0.1574
69783POPC   C4A29374  29.331   6.150  10.382 -0.0029  0.3367 -0.0105
69783POPC   C1B29375  30.357   5.565  11.231  0.0633 -0.0491  0.0214
69783POPC   C2B29376  29.945   5.536  10.943 -0.1458 -0.0409 -0.2453
69783POPC   C3B29377  29.518   5.697  10.948  0.1465  0.2324  0.1036
69783POPC   C4B29378  29.224   5.928  10.807  0.1346 -0.1715 -0.0819
69784POPC   NC329379  18.826   7.798  16.020  0.4878  0.0568 -0.1420
69784POPC   PO429380  18.987   7.679  15.646  0.0086  0.2402  0.0844
69784POPC   GL129381  19.019   7.342  15.978  0.0204  0.1915  0.3893
69784POPC   GL229382  19.211   7.184  15.820 -0.2866 -0.0292 -0.0719
69784POPC   C1A29383  19.039   7.450  16.438 -0.2082  0.4752 -0.0555
69784POPC   D2A29384  18.856   7.647  16.726  0.0130  0.0680  0.1186
69784POPC   C3A29385  18.938   7.819  17.121  0.3986  0.0313  0.0869
69784POPC   C4A29386  19.100   7.631  17.492  0.0675 -0.4141  0.3212
69784POPC   C1B29387  19.490   7.224  16.210  0.1677 -0.0863  0.1284
69784POPC   C2B29388  19.708   7.245  16.619 -0.0088  0.0416 -0.2419
69784POPC   C3B29389  19.814   7.092  17.069  0.1892 -0.0092 -0.1543
69784POPC   C4B29390  20.094   6.878  17.332  0.1883  0.2954  0.2160
69785POPC   NC329391  23.210   9.713  14.097 -0.0471  0.2063 -0.2173
69785POPC   PO429392  23.091   9.657  13.683 -0.3680  0.0317 -0.3360
69785POPC   GL129393  23.353   9.342  13.498  0.2188 -0.1804 -0.2724
69785POPC   GL229394  23.308   9.020  13.373  0.5029  0.0259 -0.1493
69785POPC   C1A29395  23.777   9.134  13.447  0.0967  0.2468  0.2119
69785POPC   D2A29396  24.098   8.799  13.360  0.0049  0.1606 -0.0149
69785POPC   C3A29397  24.376   8.500  13.564 -0.0311 -0.0121 -0.2825
69785POPC   C4A29398  24.729   8.174  13.501  0.0194 -0.0786 -0.1589
69785POPC   C1B29399  23.602   8.659  13.406  0.2395 -0.1601  0.1085
69785POPC   C2B29400  23.868   8.540  13.740  0.1863  0.2945 -0.2709
69785POPC   C3B29401  24.110   8.259  13.934  0.0910 -0.0417 -0.0099
69785POPC   C4B29402  24.262   8.004  14.306  0.0631 -0.1613 -0.1295
69786POPC   NC329403  22.522   9.594  15.705  0.0961  0.3932 -0.0979
69786POPC   PO429404  22.174   9.780  15.804  0.1087  0.1662  0.2121
69786POPC   GL129405  22.308   9.627  16.148 -0.1940  0.1467  0.0304
69786POPC   GL229406  22.101   9.393  16.223 -0.1203 -0.0667  0.0513
69786POPC   C1A29407  22.671   9.501  16.448 -0.1087  0.0080 -0.1105
69786POPC   D2A29408  23.015   9.464  16.789 -0.1247  0.1790  0.0203
69786POPC   C3A29409  23.293   9.082  16.994  0.2299 -0.2754 -0.3251
69786POPC   C4A29410  23.561   8.690  16.995 -0.1604  0.0803 -0.0647
69786POPC   C1B29411  22.298   9.110  16.500 -0.0280 -0.0522 -0.3028
69786POPC   C2B29412  22.379   8.976  16.911 -0.1167  0.2120  0.1352
69786POPC   C3B29413  22.481   8.793  17.315  0.0771  0.2129 -0.2407
69786POPC   C4B29414  22.642   8.748  17.752  0.0289  0.1021 -0.0129
69787POPC   NC329415  23.106  15.493  15.742 -0.0661  0.2388 -0.3023
69787POPC   PO429416  23.330  15.589  15.425  0.1076 -0.0051 -0.0360
69787POPC   GL129417  23.404  15.874  15.658  0.0629  0.2905  0.1938
69787POPC   GL229418  23.172  16.019  15.658  0.0668 -0.0409  0.3571
69787POPC   C1A29419  23.662  16.207  15.855 -0.0602 -0.3814  0.3801
69787POPC   D2A29420  24.017  16.306  16.147  0.1846  0.1345 -0.0839
69787POPC   C3A29421  24.333  16.149  15.852  0.0707  0.1436 -0.0540
69787POPC   C4A29422  24.573  16.086  15.517  0.1903  0.1114  0.1734
69787POPC   C1B29423  23.084  16.053  16.054  0.1403 -0.2047 -0.2993
69787POPC   C2B29424  23.079  16.083  16.476  0.0544  0.0579 -0.0184
69787POPC   C3B29425  23.349  16.091  16.854 -0.1359  0.0747  0.2160
69787POPC   C4B29426  23.768  16.336  16.982  0.3071  0.1583  0.0338
69788POPC   NC329427  14.932   8.443  16.225  0.0493 -0.0320 -0.2641
69788POPC   PO429428  14.776   8.171  15.936  0.0548  0.1864  0.1206
69788POPC   GL129429  14.829   7.923  16.262 -0.0526  0.2697  0.2363
69788POPC   GL229430  15.019   7.887  16.391  0.0581 -0.2042 -0.1787
69788POPC   C1A29431  14.837   8.200  16.687  0.0328  0.2275 -0.0813
69788POPC   D2A29432  14.792   8.021  17.134 -0.3288  0.2001 -0.5727
69788POPC   C3A29433  14.673   8.210  17.562 -0.0770  0.1946  0.1451
69788POPC   C4A29434  14.268   8.195  17.743  0.2277  0.0325 -0.1431
69788POPC   C1B29435  14.906   7.648  16.815  0.0999 -0.0161 -0.2890
69788POPC   C2B29436  14.740   7.396  17.167 -0.2915  0.0769 -0.0284
69788POPC   C3B29437  14.675   7.179  17.579 -0.0565 -0.0213  0.0223
69788POPC   C4B29438  14.463   7.136  17.986 -0.1129 -0.0723 -0.0974
69789POPC   NC329439  19.336  10.261  16.295  0.0486  0.0113 -0.0028
69789POPC   PO429440  19.071   9.959  16.198 -0.2522 -0.1263  0.1717
69789POPC   GL129441  19.082   9.926  16.555 -0.0789  0.2731  0.0496
69789POPC   GL229442  18.916  10.107  16.707 -0.0552 -0.3779  0.0469
69789POPC   C1A29443  19.168   9.753  16.978  0.1280  0.1903 -0.0062
69789POPC   D2A29444  19.327   9.643  17.383 -0.0320 -0.0185 -0.2093
69789POPC   C3A29445  19.534   9.468  17.709  0.0145  0.0367  0.1459
69789POPC   C4A29446  19.727   9.168  17.865 -0.0856  0.0637  0.1487
69789POPC   C1B29447  18.687   9.978  17.092  0.0144 -0.0952  0.2272
69789POPC   C2B29448  18.660   9.699  17.475 -0.0623 -0.1354 -0.0153
69789POPC   C3B29449  18.751   9.537  17.911  0.0034  0.0261 -0.2673
69789POPC   C4B29450  18.572   9.402  18.331  0.0790 -0.1005  0.0108
69790POPC   NC329451  20.173  32.690  16.118 -0.3042  0.2361  0.1641
69790POPC   PO429452  19.761  32.702  16.089 -0.0214 -0.3997 -0.0305
69790POPC   GL129453  19.778  32.691  16.494 -0.1079  0.4246 -0.3738
69790POPC   GL229454  19.834  32.976  16.467 -0.1227 -0.4841 -0.2337
69790POPC   C1A29455  19.875  32.786  16.904  0.0377  0.0827 -0.1866
69790POPC   D2A29456  19.921  32.879  17.385  0.3511  0.3217 -0.1028
69790POPC   C3A29457  19.833  33.093  17.769  0.1193  0.0851  0.0285
69790POPC   C4A29458  19.971  33.369  18.086 -0.0595  0.1046  0.0260
69790POPC   C1B29459  20.112  33.207  16.752  0.0275 -0.1829 -0.2287
69790POPC   C2B29460  20.227  33.261  17.134  0.2850 -0.3514  0.1150
69790POPC   C3B29461  20.313  33.246  17.615  0.0959  0.0640 -0.0141
69790POPC   C4B29462  20.472  33.470  18.004 -0.0357  0.0369 -0.0650
69791POPC   NC329463  18.702  10.134  15.794 -0.0501  0.3654 -0.1299
69791POPC   PO429464  18.561  10.117  16.184 -0.0779  0.0849  0.1996
69791POPC   GL129465  18.507  10.257  16.492 -0.2926  0.1964  0.2397
69791POPC   GL229466  18.391  10.218  16.688  0.1629  0.0109  0.0704
69791POPC   C1A29467  18.719  10.584  16.813  0.1512 -0.1697 -0.0640
69791POPC   D2A29468  18.706  11.040  17.052  0.0349  0.2633  0.2031
69791POPC   C3A29469  18.728  10.965  17.488  0.1635 -0.1899 -0.2820
69791POPC   C4A29470  18.916  10.849  17.897 -0.4019 -0.1019 -0.1598
69791POPC   C1B29471  18.021  10.328  16.995 -0.0456  0.0470  0.1091
69791POPC   C2B29472  17.816  10.437  17.372 -0.0012  0.4787 -0.1120
69791POPC   C3B29473  18.080  10.407  17.818  0.1076  0.0708 -0.0281
69791POPC   C4B29474  18.349  10.336  18.195  0.0587 -0.0754  0.1955
69792POPC   NC329475  19.938  15.363  16.380  0.1502  0.0537 -0.2756
69792POPC   PO429476  19.978  15.703  16.555 -0.1604 -0.1614  0.1722
69792POPC   GL129477  20.103  15.905  16.811 -0.2247 -0.2888 -0.2076
69792POPC   GL229478  19.815  15.979  16.969  0.0858  0.1342 -0.0302
69792POPC   C1A29479  20.208  16.216  17.140 -0.1065  0.2374  0.1770
69792POPC   D2A29480  20.272  16.298  17.609 -0.0139  0.0934 -0.2617
69792POPC   C3A29481  20.661  16.106  17.705 -0.1129 -0.0576  0.1890
69792POPC   C4A29482  20.870  15.725  17.559  0.2806  0.2165 -0.1972
69792POPC   C1B29483  19.830  15.891  17.395 -0.1883 -0.0701 -0.1280
69792POPC   C2B29484  19.924  16.025  17.818  0.1208  0.4125  0.1265
69792POPC   C3B29485  20.308  16.030  18.084  0.1448 -0.1255  0.0053
69792POPC   C4B29486  20.749  15.840  18.075 -0.3125 -0.1051 -0.2171
69793POPC   NC329487  28.691   1.236  13.205  0.0280  0.0304 -0.2386
69793POPC   PO429488  28.632   1.006  13.496  0.2064 -0.3267  0.1055
69793POPC   GL129489  28.265   0.975  13.735 -0.2538  0.3408  0.0743
69793POPC   GL229490  28.447   1.158  13.959  0.1983 -0.1467  0.1098
69793POPC   C1A29491  27.900   1.166  13.848 -0.1094 -0.0909  0.3181
69793POPC   D2A29492  27.907   1.603  14.023  0.3041 -0.3288  0.2013
69793POPC   C3A29493  27.828   1.804  14.458  0.0349 -0.0515 -0.0600
69793POPC   C4A29494  27.780   2.209  14.653  0.0212  0.0843 -0.0537
69793POPC   C1B29495  28.425   1.633  13.990 -0.3608 -0.1849 -0.0868
69793POPC   C2B29496  28.242   2.014  14.124  0.1619  0.1808 -0.0250
69793POPC   C3B29497  28.134   2.448  14.303 -0.0796  0.1111 -0.3242
69793POPC   C4B29498  27.700   2.661  14.349 -0.1998 -0.0307  0.1549
69794POPC   NC329499  22.490  10.102  15.489 -0.3505  0.0311 -0.0197
69794POPC   PO429500  22.676  10.068  15.807 -0.1686  0.0947  0.3217
69794POPC   GL129501  22.758   9.851  16.114  0.1969  0.3291  0.0725
69794POPC   GL229502  22.565  10.016  16.267  0.0291 -0.0151 -0.0644
69794POPC   C1A29503  23.144   9.721  16.394 -0.1937  0.2765 -0.1712
69794POPC   D2A29504  23.472   9.412  16.538  0.2380  0.0938  0.1158
69794POPC   C3A29505  23.595   9.509  16.983 -0.2818 -0.1278  0.2357
69794POPC   C4A29506  23.743   9.774  17.341 -0.3099  0.3428  0.1810
69794POPC   C1B29507  22.779   9.974  16.607  0.1445  0.0398 -0.2160
69794POPC   C2B29508  22.956   9.914  17.057 -0.2928  0.0819 -0.0308
69794POPC   C3B29509  23.108   9.713  17.471 -0.0318  0.1897  0.0775
69794POPC   C4B29510  23.270   9.606  17.909 -0.0038 -0.1437 -0.0530
69795POPC   NC329511  23.391  14.787  16.236  0.2554  0.0983  0.2550
69795POPC   PO429512  22.997  14.662  16.163 -0.1772  0.1370  0.1884
69795POPC   GL129513  22.909  14.784  16.542  0.1149 -0.0709 -0.0979
69795POPC   GL229514  23.117  14.632  16.705 -0.1267 -0.1406  0.2197
69795POPC   C1A29515  22.633  14.679  16.871  0.2439  0.1084  0.0155
69795POPC   D2A29516  22.696  14.733  17.316  0.0654  0.0191 -0.3094
69795POPC   C3A29517  22.860  14.936  17.676  0.0049  0.1749 -0.3805
69795POPC   C4A29518  23.250  15.113  17.819  0.0805 -0.0575 -0.2751
69795POPC   C1B29519  23.193  14.577  17.165  0.0262  0.2059  0.2108
69795POPC   C2B29520  23.015  14.490  17.609  0.0215 -0.3482  0.0750
69795POPC   C3B29521  23.213  14.582  18.019  0.1516  0.0614  0.0208
69795POPC   C4B29522  23.440  14.461  18.374  0.1217  0.1932 -0.1343
69796POPC   NC329523  24.371  12.506  16.048 -0.1927  0.1207 -0.1441
69796POPC   PO429524  24.603  12.792  15.929 -0.0095 -0.1117  0.0152
69796POPC   GL129525  24.607  12.680  16.375  0.2758  0.0012 -0.0329
69796POPC   GL229526  24.611  12.959  16.526 -0.1286  0.2195  0.0281
69796POPC   C1A29527  24.667  12.522  16.841 -0.0953  0.1560 -0.0625
69796POPC   D2A29528  24.623  12.635  17.300 -0.2676  0.1988  0.0407
69796POPC   C3A29529  24.907  12.862  17.581 -0.0364 -0.1591 -0.1164
69796POPC   C4A29530  24.726  13.025  17.966  0.1549  0.1395 -0.2722
69796POPC   C1B29531  24.280  12.813  16.866 -0.2036 -0.2335  0.2166
69796POPC   C2B29532  24.076  12.614  17.226 -0.0641 -0.1167 -0.0093
69796POPC   C3B29533  23.942  12.816  17.586 -0.4221  0.0223  0.1456
69796POPC   C4B29534  23.714  12.684  17.909  0.1953  0.1401  0.1918
69797POPC   NC329535  30.218   3.440  14.102 -0.0141  0.4226 -0.0376
69797POPC   PO429536  30.132   3.306  13.707 -0.3529  0.1646  0.1713
69797POPC   GL129537  29.820   3.447  13.792  0.1484  0.1747 -0.3687
69797POPC   GL229538  29.695   3.293  13.581  0.3078 -0.0639 -0.1065
69797POPC   C1A29539  29.436   3.726  13.821 -0.0159  0.2771  0.2484
69797POPC   D2A29540  29.055   3.977  13.772  0.2097 -0.2332  0.0012
69797POPC   C3A29541  28.664   3.904  13.950  0.0100 -0.2815  0.0951
69797POPC   C4A29542  28.229   4.003  13.942  0.4048  0.2854  0.4382
69797POPC   C1B29543  29.288   3.233  13.769 -0.2578  0.1033 -0.0877
69797POPC   C2B29544  28.971   3.463  13.916  0.1024  0.0825 -0.0333
69797POPC   C3B29545  28.567   3.372  14.103  0.2224 -0.0694 -0.0423
69797POPC   C4B29546  28.394   3.699  14.416 -0.0866  0.0546 -0.0673
69798POPC   NC329547  31.500  13.506  16.114 -0.0460  0.0122 -0.0912
69798POPC   PO429548  31.446  13.860  16.315  0.0880  0.0512  0.1386
69798POPC   GL129549  31.139  13.855  16.591  0.1822 -0.0455  0.0915
69798POPC   GL229550  31.063  14.146  16.680 -0.1163  0.2087  0.1075
69798POPC   C1A29551  31.140  13.739  17.062 -0.2522 -0.1213 -0.1404
69798POPC   D2A29552  30.968  13.738  17.490 -0.0308 -0.0342  0.2382
69798POPC   C3A29553  31.375  13.841  17.759 -0.0381  0.0497 -0.3056
69798POPC   C4A29554  31.422  14.148  18.103 -0.1708 -0.1113  0.2353
69798POPC   C1B29555  31.009  14.319  17.085 -0.1590 -0.3695  0.2243
69798POPC   C2B29556  30.976  14.297  17.558 -0.3173  0.3729 -0.2691
69798POPC   C3B29557  30.804  14.393  17.985  0.1893 -0.0698  0.2624
69798POPC   C4B29558  31.039  14.400  18.387  0.0157 -0.5893  0.2633
69799POPC   NC329559  22.555  11.783  16.106  0.0007  0.1780  0.0577
69799POPC   PO429560  22.182  11.652  16.156  0.1061 -0.3254 -0.1072
69799POPC   GL129561  22.028  11.561  16.508  0.1157  0.2519 -0.3375
69799POPC   GL229562  22.159  11.753  16.679 -0.3768  0.1690 -0.0792
69799POPC   C1A29563  22.117  11.253  16.814  0.2297 -0.0449  0.0115
69799POPC   D2A29564  22.337  11.115  17.204  0.1128  0.5209  0.2771
69799POPC   C3A29565  22.322  10.929  17.645  0.3176 -0.0920  0.2016
69799POPC   C4A29566  22.460  10.570  17.916 -0.1569 -0.2347 -0.1655
69799POPC   C1B29567  22.292  11.711  17.112 -0.1068  0.0950 -0.1635
69799POPC   C2B29568  22.270  11.497  17.482 -0.3728 -0.1112 -0.5482
69799POPC   C3B29569  22.384  11.402  17.937 -0.0794 -0.2562 -0.1931
69799POPC   C4B29570  22.558  11.022  18.128 -0.0597  0.1186 -0.0958
69800POPC   NC329571  21.659  16.329  15.899 -0.4746 -0.2415 -0.0846
69800POPC   PO429572  21.607  16.059  16.161  0.1696  0.2428  0.1582
69800POPC   GL129573  21.841  16.159  16.324 -0.0031  0.0411 -0.2287
69800POPC   GL229574  21.693  16.433  16.506  0.0226 -0.1119  0.1420
69800POPC   C1A29575  21.952  15.923  16.712  0.0533 -0.0286 -0.2055
69800POPC   D2A29576  21.759  15.764  17.126 -0.0315 -0.0113  0.0084
69800POPC   C3A29577  21.972  15.760  17.500 -0.1300 -0.1926 -0.1265
69800POPC   C4A29578  22.087  15.480  17.864  0.0533  0.0062  0.0083
69800POPC   C1B29579  21.889  16.432  16.910  0.0266  0.1121  0.3662
69800POPC   C2B29580  21.988  16.689  17.254 -0.0647 -0.2785 -0.1427
69800POPC   C3B29581  22.354  16.918  17.413  0.1229  0.0918 -0.2581
69800POPC   C4B29582  22.647  17.193  17.634  0.3467  0.0237  0.1041
69801POPC   NC329583  28.187  10.351  16.064 -0.0869 -0.0379  0.3465
69801POPC   PO429584  28.123  10.163  15.763  0.1373 -0.1960 -0.0966
69801POPC   GL129585  28.120   9.824  15.940  0.0080 -0.0182 -0.0401
69801POPC   GL229586  28.011   9.884  16.193 -0.2351 -0.1256 -0.0376
69801POPC   C1A29587  27.902   9.449  15.960  0.0614 -0.1426  0.2086
69801POPC   D2A29588  27.723   9.072  15.732  0.3619  0.1636 -0.2178
69801POPC   C3A29589  27.579   8.811  16.074 -0.0055 -0.0310  0.0203
69801POPC   C4A29590  27.414   8.689  16.482  0.0562 -0.1189 -0.4095
69801POPC   C1B29591  28.003   9.894  16.663  0.1292  0.0495  0.0731
69801POPC   C2B29592  27.968   9.738  17.082  0.0866 -0.1446  0.0435
69801POPC   C3B29593  27.832   9.585  17.442  0.1972  0.0260 -0.5671
69801POPC   C4B29594  27.757   9.370  17.834 -0.2150  0.0651  0.0644
69802POPC   NC329595  26.567  10.263  13.400  0.2348 -0.0920  0.0126
69802POPC   PO429596  26.429  10.501  13.117 -0.0978 -0.2285  0.0008
69802POPC   GL129597  26.246  10.201  13.089  0.0278 -0.0719  0.1555
69802POPC   GL229598  26.434  10.030  12.982 -0.3092  0.0980  0.0180
69802POPC   C1A29599  25.932   9.825  13.163  0.1177 -0.0174 -0.1183
69802POPC   D2A29600  25.949   9.409  13.353 -0.0708  0.0018  0.0237
69802POPC   C3A29601  25.564   9.170  13.480  0.1202  0.2403 -0.1053
69802POPC   C4A29602  25.468   8.760  13.683  0.0751  0.2527  0.3375
69802POPC   C1B29603  26.558   9.889  12.515 -0.2627 -0.0461  0.1188
69802POPC   C2B29604  26.298   9.616  12.271  0.1885  0.1648 -0.1459
69802POPC   C3B29605  25.888   9.468  12.147 -0.2511  0.1836 -0.0264
69802POPC   C4B29606  25.725   9.129  11.924 -0.2870 -0.0527 -0.0979
69803POPC   NC329607  17.054  10.552  16.251 -0.1988  0.1626 -0.0314
69803POPC   PO429608  16.874  10.180  16.201 -0.0460  0.4088 -0.2787
69803POPC   GL129609  16.918   9.853  16.404  0.1553  0.0207  0.0107
69803POPC   GL229610  17.194   9.821  16.606 -0.1274  0.4491  0.1481
69803POPC   C1A29611  16.801   9.633  16.789 -0.1137  0.0376 -0.2332
69803POPC   D2A29612  16.731   9.411  17.153  0.1048  0.2264 -0.2702
69803POPC   C3A29613  16.986   9.053  17.266  0.2358  0.0314  0.1197
69803POPC   C4A29614  17.361   8.912  17.274 -0.0653 -0.0982  0.0078
69803POPC   C1B29615  17.035  10.060  17.034 -0.1432  0.2408  0.1521
69803POPC   C2B29616  17.065  10.094  17.459  0.0735 -0.1660  0.0253
69803POPC   C3B29617  17.013  10.015  17.935 -0.0320 -0.2555  0.1145
69803POPC   C4B29618  16.786   9.938  18.299  0.1979  0.1950 -0.0649
69804POPC   NC329619  30.059   8.233  12.661  0.0429 -0.1377 -0.1171
69804POPC   PO429620  29.995   8.481  12.354  0.2460 -0.0153 -0.1138
69804POPC   GL129621  29.743   8.163  12.242  0.1549 -0.1690 -0.0922
69804POPC   GL229622  29.749   7.921  12.363  0.2655  0.0558  0.2516
69804POPC   C1A29623  29.258   8.023  12.288 -0.1622 -0.1752  0.1843
69804POPC   D2A29624  29.044   7.625  12.239  0.1948  0.1249 -0.0715
69804POPC   C3A29625  28.747   7.475  11.900 -0.0076  0.1476  0.0374
69804POPC   C4A29626  28.435   7.144  11.946  0.0146  0.2645 -0.1055
69804POPC   C1B29627  29.533   7.659  12.052 -0.0335  0.2084  0.0408
69804POPC   C2B29628  29.260   7.338  11.812 -0.1060 -0.3512 -0.0170
69804POPC   C3B29629  28.950   6.996  11.911  0.0406  0.0842 -0.0020
69804POPC   C4B29630  28.624   6.677  11.928  0.0717 -0.1627  0.0427
69805POPC   NC329631  20.724  14.502  16.910  0.2560 -0.2638 -0.1039
69805POPC   PO429632  20.601  14.887  16.792  0.0847 -0.0664  0.1019
69805POPC   GL129633  20.809  14.974  17.148  0.4902  0.0543 -0.0883
69805POPC   GL229634  20.987  15.083  17.051 -0.2140  0.2146 -0.0088
69805POPC   C1A29635  20.904  14.657  17.503 -0.3255 -0.2858 -0.1360
69805POPC   D2A29636  20.924  14.271  17.721 -0.2721  0.0844 -0.2516
69805POPC   C3A29637  21.090  14.195  18.098 -0.0822 -0.0786  0.3680
69805POPC   C4A29638  21.106  13.843  18.414  0.2706 -0.0323  0.0154
69805POPC   C1B29639  21.246  15.369  17.339  0.2160 -0.1248  0.0908
69805POPC   C2B29640  21.376  15.632  17.681  0.0567  0.0370 -0.0997
69805POPC   C3B29641  21.325  15.384  18.118  0.0527 -0.0774  0.0829
69805POPC   C4B29642  21.271  14.981  18.392  0.1757 -0.0047 -0.3243
69806POPC   NC329643  16.446   9.126  16.036  0.0512 -0.1621 -0.1943
69806POPC   PO429644  16.294   8.792  16.174 -0.0735  0.1604  0.3165
69806POPC   GL129645  16.588   8.820  16.415  0.1188 -0.0834 -0.3509
69806POPC   GL229646  16.679   8.525  16.555  0.2041 -0.1609 -0.0988
69806POPC   C1A29647  16.665   9.187  16.705  0.1257 -0.0677 -0.1356
69806POPC   D2A29648  16.321   9.547  16.862 -0.3237  0.1961  0.1811
69806POPC   C3A29649  16.236   9.613  17.304  0.2256 -0.0545 -0.1234
69806POPC   C4A29650  16.169   9.615  17.774 -0.1886 -0.2571  0.0019
69806POPC   C1B29651  16.305   8.581  16.847  0.0651  0.1141 -0.1926
69806POPC   C2B29652  16.121   8.663  17.284  0.1601 -0.0738 -0.0985
69806POPC   C3B29653  16.252   8.609  17.714 -0.1136  0.0936 -0.0840
69806POPC   C4B29654  16.290   8.608  18.132  0.0729 -0.0979  0.1170
69807POPC   NC329655  25.333   0.054  13.990  0.1833 -0.2252  0.1553
69807POPC   PO429656  25.598   0.070  14.277  0.1413  0.1597  0.3572
69807POPC   GL129657  25.567   0.510  14.325 -0.2716 -0.0625  0.0011
69807POPC   GL229658  25.898   0.515  14.301 -0.0753 -0.1020 -0.1376
69807POPC   C1A29659  25.673   0.964  14.216  0.1910  0.0417 -0.0281
69807POPC   D2A29660  25.618   1.413  14.414 -0.0796 -0.0715 -0.1902
69807POPC   C3A29661  25.561   1.899  14.331 -0.0800  0.0815  0.1537
69807POPC   C4A29662  25.604   2.268  14.638 -0.0754  0.2005 -0.0990
69807POPC   C1B29663  26.112   0.304  14.672 -0.1577  0.0149  0.1167
69807POPC   C2B29664  26.429   0.396  15.007  0.0941 -0.0889 -0.2464
69807POPC   C3B29665  26.397   0.592  15.412 -0.1200 -0.0770  0.1413
69807POPC   C4B29666  26.023   0.573  15.666 -0.1303  0.0702  0.0914
69808POPC   NC329667  17.141   9.465  15.799  0.0592  0.0097  0.0557
69808POPC   PO429668  17.280   9.690  16.126 -0.0929 -0.2049  0.2659
69808POPC   GL129669  17.582   9.970  16.385 -0.0418 -0.0854  0.0745
69808POPC   GL229670  17.404  10.158  16.322  0.1319 -0.2698 -0.0438
69808POPC   C1A29671  17.891   9.871  16.746  0.3181  0.0987 -0.3618
69808POPC   D2A29672  18.199   9.809  17.058  0.1711 -0.2890  0.1748
69808POPC   C3A29673  18.107   9.567  17.423  0.0305  0.1057  0.1093
69808POPC   C4A29674  17.989   9.440  17.765 -0.0930 -0.2093  0.0494
69808POPC   C1B29675  17.477  10.130  16.858 -0.0297  0.0692  0.0979
69808POPC   C2B29676  17.539   9.995  17.321 -0.2582 -0.0011  0.1712
69808POPC   C3B29677  17.749   9.908  17.738 -0.2625 -0.0441 -0.1777
69808POPC   C4B29678  18.238   9.883  17.847 -0.1195 -0.0463  0.1445
69809POPC   NC329679  17.735  15.937  16.070  0.1685  0.1252  0.0265
69809POPC   PO429680  18.069  15.752  16.101 -0.1615  0.0559  0.2219
69809POPC   GL129681  17.980  15.622  16.448 -0.0659 -0.2784 -0.1413
69809POPC   GL229682  18.189  15.767  16.606 -0.1634  0.2544 -0.1742
69809POPC   C1A29683  17.820  15.589  16.871  0.2152  0.0272 -0.1958
69809POPC   D2A29684  17.857  15.786  17.262 -0.1361 -0.0777 -0.2193
69809POPC   C3A29685  17.850  16.232  17.489 -0.0957 -0.0240  0.1117
69809POPC   C4A29686  17.749  16.367  17.908 -0.0828 -0.0286  0.3467
69809POPC   C1B29687  18.318  15.825  17.038 -0.0955  0.2148 -0.0432
69809POPC   C2B29688  18.362  16.063  17.444  0.1527  0.0933 -0.1232
69809POPC   C3B29689  18.270  16.375  17.785 -0.2280 -0.0592  0.1108
69809POPC   C4B29690  18.151  16.485  18.237  0.2858  0.1059 -0.0510
69810POPC   NC329691  28.372  12.421  16.675 -0.1856 -0.1735  0.5228
69810POPC   PO429692  28.559  12.769  16.502  0.0918  0.3666 -0.1728
69810POPC   GL129693  28.700  12.695  16.882 -0.2743  0.2914  0.1277
69810POPC   GL229694  28.855  12.440  16.829 -0.2648  0.0162  0.1761
69810POPC   C1A29695  28.709  12.798  17.309  0.1652  0.2067  0.0482
69810POPC   D2A29696  28.927  12.472  17.597 -0.0385 -0.2312  0.2418
69810POPC   C3A29697  28.755  12.534  18.005  0.2025 -0.0628 -0.0825
69810POPC   C4A29698  28.874  12.605  18.451 -0.1339 -0.2290  0.1126
69810POPC   C1B29699  29.180  12.462  17.171  0.1902 -0.0894 -0.0731
69810POPC   C2B29700  29.448  12.456  17.579  0.0207 -0.1322  0.0569
69810POPC   C3B29701  29.650  12.317  17.981  0.0414 -0.0602  0.0300
69810POPC   C4B29702  29.700  12.257  18.427  0.1059  0.0977 -0.1619
69811POPC   NC329703  27.261   9.918  14.497 -0.0801  0.0781 -0.1967
69811POPC   PO429704  26.980   9.699  14.240  0.4536 -0.3794 -0.0551
69811POPC   GL129705  26.814   9.336  14.256  0.1503  0.0747 -0.1584
69811POPC   GL229706  26.969   9.239  14.071 -0.0240 -0.0405  0.0237
69811POPC   C1A29707  26.804   8.870  14.266 -0.1050  0.0648 -0.2653
69811POPC   D2A29708  26.512   8.512  14.437  0.1409  0.1590 -0.1686
69811POPC   C3A29709  26.146   8.352  14.170 -0.2347  0.0181 -0.3528
69811POPC   C4A29710  25.720   8.128  14.055  0.0545 -0.3258 -0.4292
69811POPC   C1B29711  26.912   9.025  13.649 -0.4319 -0.1019 -0.2573
69811POPC   C2B29712  26.766   8.747  13.396 -0.1328 -0.0370  0.0685
69811POPC   C3B29713  26.506   8.367  13.465 -0.1560 -0.2399  0.1461
69811POPC   C4B29714  26.265   8.142  13.782 -0.0170 -0.0422  0.4826
69812POPC   NC329715  25.026  13.084  16.030  0.2552 -0.0241 -0.1951
69812POPC   PO429716  25.078  12.761  16.288  0.2722  0.0479  0.2348
69812POPC   GL129717  25.008  12.975  16.707  0.1448 -0.5704 -0.2948
69812POPC   GL229718  25.256  13.047  16.865  0.0614  0.1632  0.0516
69812POPC   C1A29719  24.804  13.123  17.093 -0.0372  0.1019  0.2607
69812POPC   D2A29720  24.842  13.320  17.501  0.0954  0.1231  0.3630
69812POPC   C3A29721  25.119  13.272  17.823 -0.1559  0.0323  0.1508
69812POPC   C4A29722  25.263  13.206  18.214 -0.1011  0.0059  0.1519
69812POPC   C1B29723  25.162  12.666  17.116  0.0040 -0.3715 -0.2833
69812POPC   C2B29724  25.380  12.501  17.479 -0.0547  0.0408 -0.2273
69812POPC   C3B29725  25.458  12.159  17.820  0.0883  0.0083 -0.1772
69812POPC   C4B29726  25.518  11.786  18.165  0.1687 -0.0457  0.0367
69813POPC   NC329727  20.274   6.400  15.296  0.0118  0.0441 -0.0235
69813POPC   PO429728  20.364   6.682  15.063 -0.1590  0.0411  0.0179
69813POPC   GL129729  20.492   6.786  15.448  0.1275 -0.1503  0.0598
69813POPC   GL229730  20.655   7.026  15.493 -0.0888  0.0980 -0.0220
69813POPC   C1A29731  20.679   6.533  15.719  0.0477  0.0367  0.1703
69813POPC   D2A29732  20.945   6.467  16.079  0.0313 -0.1411  0.1285
69813POPC   C3A29733  21.110   6.804  16.353 -0.2722 -0.3279 -0.0161
69813POPC   C4A29734  21.188   7.246  16.487  0.2072  0.0512  0.2485
69813POPC   C1B29735  20.975   6.965  15.788  0.1606 -0.0088 -0.0620
69813POPC   C2B29736  21.396   6.956  15.998 -0.0580  0.0550  0.2111
69813POPC   C3B29737  21.644   6.811  16.390  0.1708 -0.2662  0.0094
69813POPC   C4B29738  21.756   6.558  16.777 -0.5462 -0.4474 -0.3073
69814POPC   NC329739  15.717   2.820  15.403 -0.0446  0.2403  0.1752
69814POPC   PO429740  15.895   2.450  15.463 -0.1765  0.1668 -0.3445
69814POPC   GL129741  16.037   2.509  15.776 -0.2367 -0.2513  0.0100
69814POPC   GL229742  15.898   2.272  15.971 -0.2319  0.2640  0.2517
69814POPC   C1A29743  15.937   2.642  16.244 -0.0097 -0.0739 -0.2169
69814POPC   D2A29744  15.844   2.842  16.660  0.1073  0.1162 -0.1404
69814POPC   C3A29745  15.883   2.735  17.118 -0.5918 -0.0507 -0.0425
69814POPC   C4A29746  15.925   2.521  17.475  0.1716 -0.2116  0.5707
69814POPC   C1B29747  15.584   2.258  16.315 -0.2568 -0.0147 -0.2838
69814POPC   C2B29748  15.274   2.515  16.642  0.3720  0.0372 -0.1303
69814POPC   C3B29749  15.231   2.477  17.074 -0.3612  0.2313  0.0189
69814POPC   C4B29750  15.189   2.360  17.524 -0.0949  0.0580 -0.1102
69815POPC   NC329751  19.360   7.661  15.938  0.1524  0.0658  0.0573
69815POPC   PO429752  19.631   7.789  15.678  0.0039  0.1391 -0.0480
69815POPC   GL129753  19.780   7.710  16.039  0.2270 -0.2463  0.1493
69815POPC   GL229754  19.871   7.952  16.137 -0.0011  0.1669 -0.3553
69815POPC   C1A29755  19.571   7.741  16.466  0.3792  0.1022 -0.3956
69815POPC   D2A29756  19.335   7.643  16.813 -0.1821  0.2188 -0.1043
69815POPC   C3A29757  19.445   7.459  17.160  0.1896 -0.1140 -0.1043
69815POPC   C4A29758  19.804   7.488  17.502 -0.0825 -0.2147 -0.3259
69815POPC   C1B29759  20.078   7.747  16.486 -0.0730 -0.2010  0.0959
69815POPC   C2B29760  20.468   7.474  16.673  0.0689  0.2641  0.2883
69815POPC   C3B29761  20.891   7.459  16.881  0.2905  0.2946 -0.2627
69815POPC   C4B29762  21.171   7.462  17.289  0.1676  0.0210 -0.0850
69816POPC   NC329763  21.292   8.492  15.117 -0.0485  0.2202 -0.1914
69816POPC   PO429764  21.495   8.781  15.251 -0.0111  0.0471  0.1553
69816POPC   GL129765  21.888   8.818  15.483 -0.1604 -0.2634 -0.2265
69816POPC   GL229766  22.073   8.698  15.264  0.2229 -0.0902  0.0013
69816POPC   C1A29767  21.922   8.487  15.835 -0.1367 -0.1965  0.1318
69816POPC   D2A29768  22.067   8.122  16.084  0.2176  0.3264  0.1199
69816POPC   C3A29769  22.208   8.217  16.501 -0.0544 -0.1268  0.0334
69816POPC   C4A29770  22.441   8.298  16.882  0.0410  0.1639  0.3322
69816POPC   C1B29771  22.284   8.393  15.384  0.1343  0.1411  0.0080
69816POPC   C2B29772  22.448   7.996  15.587 -0.1794 -0.2551  0.0904
69816POPC   C3B29773  22.480   7.775  15.956 -0.1126  0.1080 -0.1897
69816POPC   C4B29774  22.388   7.692  16.403  0.0112  0.0578  0.0008
69817POPC   NC329775  26.509  10.939  10.582 -0.1674  0.0384 -0.0986
69817POPC   PO429776  26.886  11.010  10.621  0.0034 -0.0141 -0.2250
69817POPC   GL129777  27.170  10.736  10.426  0.1033 -0.0622  0.0918
69817POPC   GL229778  27.269  10.586  10.708  0.0076  0.1124  0.3217
69817POPC   C1A29779  26.827  10.382  10.286  0.1217  0.1383  0.3863
69817POPC   D2A29780  26.451  10.253  10.051  0.1167 -0.0281 -0.1281
69817POPC   C3A29781  26.297   9.808   9.999 -0.0699 -0.0239  0.0966
69817POPC   C4A29782  26.345   9.392   9.776 -0.2456 -0.2263  0.2401
69817POPC   C1B29783  27.320  10.345  10.336  0.3911 -0.1159 -0.0125
69817POPC   C2B29784  27.154  10.145   9.944 -0.1582 -0.1576 -0.0228
69817POPC   C3B29785  27.035   9.794   9.673 -0.0242 -0.1477  0.2330
69817POPC   C4B29786  26.770   9.468   9.500  0.1059  0.1911  0.2518
69818POPC   NC329787  29.914  17.187   8.595 -0.0698  0.2283 -0.0474
69818POPC   PO429788  29.760  17.228   8.985 -0.1650  0.0410  0.0405
69818POPC   GL129789  29.447  17.269   8.667  0.2277 -0.0527  0.1583
69818POPC   GL229790  29.269  17.066   8.762 -0.0188 -0.0225  0.0792
69818POPC   C1A29791  29.519  17.231   8.222 -0.2514  0.2018 -0.0206
69818POPC   D2A29792  29.661  17.547   7.969 -0.0182 -0.1167 -0.0779
69818POPC   C3A29793  29.903  17.668   7.632 -0.0135  0.0911  0.0693
69818POPC   C4A29794  30.297  17.760   7.400 -0.1428  0.0168 -0.0832
69818POPC   C1B29795  29.099  17.027   8.303  0.1616  0.1345  0.0118
69818POPC   C2B29796  29.035  17.351   8.049 -0.0804  0.0109 -0.2571
69818POPC   C3B29797  29.214  17.623   7.694  0.2192  0.0024  0.1488
69818POPC   C4B29798  29.463  17.760   7.287  0.1370  0.0980 -0.0054
69819POPC   NC329799  29.233  10.404  10.944 -0.0449 -0.1837  0.3445
69819POPC   PO429800  29.340  10.567  10.595  0.4332  0.0857 -0.1271
69819POPC   GL129801  29.296  10.175  10.440  0.2511 -0.0514  0.0292
69819POPC   GL229802  29.349   9.985  10.711 -0.3477 -0.1730 -0.0836
69819POPC   C1A29803  29.417   9.730  10.271  0.1454  0.0111  0.0009
69819POPC   D2A29804  29.448   9.356   9.970  0.2705 -0.2730 -0.0351
69819POPC   C3A29805  29.394   9.208   9.511  0.1763  0.1752 -0.2615
69819POPC   C4A29806  29.200   9.142   9.078  0.0416  0.1769 -0.5154
69819POPC   C1B29807  29.291   9.556  10.746  0.0065  0.0998  0.4000
69819POPC   C2B29808  28.853   9.354  10.746  0.0544 -0.1232  0.0268
69819POPC   C3B29809  28.571   9.253  10.379 -0.1611  0.0001 -0.0103
69819POPC   C4B29810  28.441   8.790  10.288  0.0218  0.2444 -0.1011
69820POPC   NC329811  26.612  13.149   9.849  0.3560 -0.0798 -0.1475
69820POPC   PO429812  26.832  12.814   9.964 -0.1716  0.1158 -0.1597
69820POPC   GL129813  26.847  12.537   9.652  0.2994  0.2139 -0.0032
69820POPC   GL229814  26.619  12.605   9.514 -0.2407 -0.2260  0.2065
69820POPC   C1A29815  27.101  12.112   9.602 -0.2591  0.1727 -0.0757
69820POPC   D2A29816  27.252  11.671   9.627 -0.0651 -0.0888  0.2437
69820POPC   C3A29817  27.283  11.285   9.343 -0.1789  0.1115  0.0752
69820POPC   C4A29818  27.246  10.898   8.999  0.1110  0.2321  0.1345
69820POPC   C1B29819  26.718  12.176   9.289 -0.2119 -0.0661  0.0721
69820POPC   C2B29820  26.836  11.767   9.355 -0.2087  0.0707  0.2466
69820POPC   C3B29821  26.832  11.357   9.491 -0.2659  0.0505 -0.2061
69820POPC   C4B29822  26.987  10.917   9.396  0.0201 -0.2991 -0.1412
69821POPC   NC329823  27.309  15.822  15.469 -0.0887  0.0155 -0.3364
69821POPC   PO429824  27.021  15.546  15.464 -0.2375  0.0798  0.1148
69821POPC   GL129825  26.950  15.431  15.916 -0.0666 -0.1720  0.2107
69821POPC   GL229826  27.035  15.737  15.947  0.1196  0.2513  0.1851
69821POPC   C1A29827  26.797  15.483  16.381 -0.5117 -0.1106 -0.3223
69821POPC   D2A29828  26.745  15.400  16.877  0.0166 -0.0766  0.2067
69821POPC   C3A29829  26.978  15.561  17.192 -0.0634  0.0258 -0.0316
69821POPC   C4A29830  27.437  15.684  17.216 -0.3977 -0.1895  0.2293
69821POPC   C1B29831  27.279  16.025  16.218 -0.3136  0.0835  0.2335
69821POPC   C2B29832  27.308  16.346  16.530  0.0551  0.2023 -0.1241
69821POPC   C3B29833  27.302  16.689  16.892  0.0327 -0.0882  0.2159
69821POPC   C4B29834  27.543  17.050  17.193  0.1267  0.0161  0.1710
69822POPC   NC329835  22.194   9.091  10.416 -0.0778 -0.1197 -0.1183
69822POPC   PO429836  21.972   9.230  10.156 -0.2237  0.1211 -0.0016
69822POPC   GL129837  22.194   8.909   9.885  0.2447  0.1625  0.0107
69822POPC   GL229838  22.305   8.675  10.042 -0.0537 -0.0055  0.1257
69822POPC   C1A29839  22.485   8.868   9.538 -0.0923 -0.1112  0.1137
69822POPC   D2A29840  22.364   8.879   9.097  0.1611  0.1684  0.1756
69822POPC   C3A29841  22.535   9.067   8.708  0.2269 -0.1917  0.0169
69822POPC   C4A29842  22.807   8.972   8.293 -0.3208  0.1153 -0.0053
69822POPC   C1B29843  22.569   8.318  10.129  0.0822 -0.1468 -0.0030
69822POPC   C2B29844  22.813   8.000   9.992  0.3692 -0.2290 -0.0297
69822POPC   C3B29845  23.162   7.732   9.905 -0.2299  0.1426  0.3614
69822POPC   C4B29846  23.407   7.408   9.677  0.1271  0.0393 -0.1052
69823POPC   NC329847  27.788  10.332  16.414 -0.0517 -0.0628  0.0098
69823POPC   PO429848  27.677  10.236  16.040 -0.2576  0.0436 -0.0504
69823POPC   GL129849  27.578   9.916  16.226  0.2507  0.0575 -0.0675
69823POPC   GL229850  27.253   9.934  16.321 -0.1114 -0.0746  0.0932
69823POPC   C1A29851  27.654   9.507  16.442  0.1480 -0.1264 -0.3411
69823POPC   D2A29852  27.771   9.072  16.409 -0.0883 -0.0714 -0.1060
69823POPC   C3A29853  27.710   8.902  16.855  0.3249  0.1357 -0.0888
69823POPC   C4A29854  27.482   8.921  17.268 -0.1133  0.1237 -0.1833
69823POPC   C1B29855  27.103   9.534  16.524  0.1930  0.0720  0.0947
69823POPC   C2B29856  27.217   9.192  16.870  0.4341  0.1429  0.0446
69823POPC   C3B29857  26.995   9.035  17.315  0.0244 -0.0112  0.1847
69823POPC   C4B29858  26.820   9.208  17.732  0.1107 -0.4665  0.2680
69824POPC   NC329859  19.695   5.220   9.793  0.1097  0.1280 -0.1105
69824POPC   PO429860  19.330   5.107   9.584  0.1033  0.2726  0.3348
69824POPC   GL129861  19.487   5.482   9.385  0.3766  0.0626  0.3026
69824POPC   GL229862  19.689   5.448   9.233 -0.2326 -0.0118  0.1276
69824POPC   C1A29863  19.485   5.756   8.936 -0.3176  0.2700  0.1667
69824POPC   D2A29864  19.190   5.846   8.537  0.0524  0.2340 -0.4092
69824POPC   C3A29865  18.975   5.711   8.128  0.0749 -0.0585 -0.1970
69824POPC   C4A29866  18.742   5.604   7.747  0.0693 -0.0331  0.1336
69824POPC   C1B29867  19.841   5.238   8.896 -0.1099 -0.0286  0.1598
69824POPC   C2B29868  20.189   5.434   8.800 -0.2462  0.0136 -0.0967
69824POPC   C3B29869  20.335   5.646   8.399  0.2912 -0.2112 -0.1903
69824POPC   C4B29870  20.615   6.003   8.256  0.1006 -0.1810 -0.1745
69825POPC   NC329871  17.273   4.158  16.141  0.0841 -0.1003  0.3319
69825POPC   PO429872  16.942   3.944  15.999 -0.1594  0.1348 -0.2693
69825POPC   GL129873  16.717   4.044  16.349 -0.1571 -0.5229  0.1159
69825POPC   GL229874  16.772   4.244  16.385 -0.2618  0.2443  0.1604
69825POPC   C1A29875  16.639   3.985  16.835  0.1370  0.0817 -0.1870
69825POPC   D2A29876  16.584   3.968  17.279  0.0371  0.0390 -0.1561
69825POPC   C3A29877  16.274   3.846  17.588  0.1709 -0.1399 -0.0926
69825POPC   C4A29878  16.115   3.562  17.876  0.0718  0.0102  0.0704
69825POPC   C1B29879  16.546   4.500  16.742  0.0528 -0.3051 -0.1268
69825POPC   C2B29880  16.494   4.476  17.232  0.1960 -0.1008  0.0161
69825POPC   C3B29881  16.789   4.512  17.635 -0.1828 -0.0073  0.0254
69825POPC   C4B29882  17.085   4.652  17.997 -0.0788  0.0166 -0.1505
69826POPC   NC329883  22.639  10.469  16.128 -0.1195  0.3240 -0.2631
69826POPC   PO429884  22.410  10.765  15.983 -0.4030  0.1983 -0.0566
69826POPC   GL129885  22.604  10.941  16.298  0.2835  0.0124  0.2992
69826POPC   GL229886  22.331  11.119  16.378  0.2189  0.0364 -0.0815
69826POPC   C1A29887  22.688  11.050  16.738  0.2806 -0.2419  0.0825
69826POPC   D2A29888  22.889  10.890  17.129 -0.3863  0.0771 -0.0013
69826POPC   C3A29889  23.253  10.622  17.227  0.0484 -0.1055  0.0397
69826POPC   C4A29890  23.403  10.186  17.207 -0.2922 -0.1951  0.1278
69826POPC   C1B29891  22.295  10.812  16.783 -0.1380 -0.3126  0.1022
69826POPC   C2B29892  22.456  10.635  17.191 -0.0855  0.1436 -0.2197
69826POPC   C3B29893  22.744  10.700  17.575  0.2743 -0.0973  0.1311
69826POPC   C4B29894  23.185  10.567  17.689  0.1129  0.0403  0.0028
69827POPC   NC329895  24.447  13.672  16.339 -0.2865  0.3477  0.0555
69827POPC   PO429896  24.656  13.974  16.297 -0.0200 -0.1551  0.0463
69827POPC   GL129897  24.646  14.143  16.649  0.0396 -0.0619  0.0017
69827POPC   GL229898  24.468  13.934  16.789  0.3707 -0.3404  0.0199
69827POPC   C1A29899  24.714  14.576  16.799  0.1469  0.0659  0.1726
69827POPC   D2A29900  24.489  14.820  17.057  0.0493 -0.1393 -0.0101
69827POPC   C3A29901  24.589  15.275  17.195  0.0138 -0.0544  0.0136
69827POPC   C4A29902  24.887  15.486  17.468  0.3112 -0.1675  0.0092
69827POPC   C1B29903  24.477  14.239  17.154  0.2130 -0.1094  0.1299
69827POPC   C2B29904  24.409  14.529  17.478 -0.0531 -0.0317  0.1261
69827POPC   C3B29905  24.172  14.734  17.815 -0.3321 -0.1113 -0.3714
69827POPC   C4B29906  23.867  14.685  18.163 -0.3109 -0.2798 -0.0095
69828POPC   NC329907  27.907  10.070  14.857 -0.1907  0.0972  0.2157
69828POPC   PO429908  27.723  10.087  15.233 -0.4631 -0.1138 -0.2840
69828POPC   GL129909  27.542   9.947  15.499  0.0801 -0.0891  0.0503
69828POPC   GL229910  27.701   9.793  15.721  0.1063 -0.4529  0.1254
69828POPC   C1A29911  27.308   9.541  15.495  0.0983 -0.0768  0.0762
69828POPC   D2A29912  27.174   9.102  15.589  0.0757  0.0508 -0.1685
69828POPC   C3A29913  27.312   8.678  15.699 -0.1780 -0.2119 -0.2845
69828POPC   C4A29914  27.514   8.323  15.599  0.0520 -0.1778 -0.3451
69828POPC   C1B29915  27.402   9.592  15.974 -0.1518  0.2181 -0.0118
69828POPC   C2B29916  27.331   9.219  16.166  0.0203 -0.2638 -0.2220
69828POPC   C3B29917  26.954   8.948  16.028 -0.1535  0.1316 -0.0291
69828POPC   C4B29918  26.806   8.534  15.805  0.1544 -0.1358 -0.1708
69829POPC   NC329919  17.910   4.474  15.617  0.0500 -0.0180 -0.0472
69829POPC   PO429920  17.575   4.444  15.841 -0.3045  0.2157  0.3520
69829POPC   GL129921  17.355   4.606  16.248 -0.4920  0.1793 -0.1235
69829POPC   GL229922  17.619   4.516  16.354 -0.0686  0.3391  0.4114
69829POPC   C1A29923  17.518   4.989  16.497  0.1155 -0.1059 -0.0984
69829POPC   D2A29924  17.909   5.111  16.559 -0.1522 -0.1176 -0.0592
69829POPC   C3A29925  17.930   5.215  17.024 -0.1942  0.2907  0.1212
69829POPC   C4A29926  18.120   5.242  17.456 -0.2335 -0.0529  0.2779
69829POPC   C1B29927  17.445   4.522  16.772 -0.0301 -0.2329  0.0271
69829POPC   C2B29928  17.387   4.905  17.040  0.0885  0.0520 -0.1708
69829POPC   C3B29929  17.632   5.170  17.403 -0.0323 -0.1504  0.0775
69829POPC   C4B29930  17.504   5.603  17.508 -0.3772 -0.1057  0.0049
69830POPC   NC329931  30.094  11.682  16.365  0.0887  0.0100 -0.1217
69830POPC   PO429932  29.916  11.489  16.134  0.1440 -0.0753 -0.0179
69830POPC   GL129933  29.633  11.499  16.523  0.0238 -0.0859 -0.0252
69830POPC   GL229934  29.507  11.789  16.401  0.2215 -0.1232 -0.3289
69830POPC   C1A29935  29.639  11.353  16.941  0.0671  0.2301 -0.2140
69830POPC   D2A29936  29.826  11.163  17.321 -0.0562 -0.0632 -0.0621
69830POPC   C3A29937  29.736  11.233  17.773 -0.1427 -0.0062 -0.1249
69830POPC   C4A29938  29.533  11.293  18.122  0.0545 -0.0267  0.0497
69830POPC   C1B29939  29.487  11.881  16.839 -0.0312 -0.1490 -0.1601
69830POPC   C2B29940  29.337  11.971  17.252 -0.0106  0.0768 -0.2452
69830POPC   C3B29941  29.250  12.035  17.708  0.3873  0.4042 -0.0642
69830POPC   C4B29942  29.203  12.269  18.109 -0.0076 -0.3208 -0.0781
69831POPC   NC329943  25.585  15.624  14.944 -0.1662  0.1989  0.0396
69831POPC   PO429944  25.808  15.976  14.960 -0.1817 -0.2509  0.0632
69831POPC   GL129945  25.590  16.201  15.113  0.1554  0.3065 -0.0359
69831POPC   GL229946  25.414  16.425  15.114  0.1345 -0.3645  0.0229
69831POPC   C1A29947  25.700  16.311  15.527 -0.0860  0.0742  0.0315
69831POPC   D2A29948  25.715  16.599  15.879  0.2254 -0.2536 -0.1830
69831POPC   C3A29949  25.529  16.822  16.177 -0.0146 -0.1126 -0.1621
69831POPC   C4A29950  25.227  16.761  16.521  0.2951 -0.2172  0.2074
69831POPC   C1B29951  25.407  16.833  15.334 -0.6242 -0.0342  0.4892
69831POPC   C2B29952  25.329  17.005  15.748  0.1134  0.1239 -0.3299
69831POPC   C3B29953  25.148  17.253  16.097  0.1922  0.2069 -0.3280
69831POPC   C4B29954  25.025  17.633  16.255 -0.0750 -0.2458  0.1477
69832POPC   NC329955  23.629  10.162  11.136 -0.0800 -0.1062  0.3918
69832POPC   PO429956  23.915  10.444  11.201  0.0815  0.3375  0.0944
69832POPC   GL129957  24.125  10.085  11.156  0.2442 -0.1629 -0.1173
69832POPC   GL229958  24.113  10.119  10.874 -0.2308  0.1694 -0.1827
69832POPC   C1A29959  24.520   9.835  11.183  0.0715  0.1162 -0.0559
69832POPC   D2A29960  24.788   9.470  11.181  0.3109 -0.0777 -0.0669
69832POPC   C3A29961  25.035   9.359  11.576 -0.0532  0.0270  0.0295
69832POPC   C4A29962  25.268   9.040  11.779 -0.2274 -0.3222 -0.0618
69832POPC   C1B29963  24.332   9.714  10.739  0.1950  0.1449  0.0133
69832POPC   C2B29964  24.599   9.348  10.727 -0.2099 -0.3016  0.1317
69832POPC   C3B29965  24.759   8.998  10.910 -0.0914 -0.3934  0.0775
69832POPC   C4B29966  24.932   8.591  10.956  0.0864 -0.2201  0.2240
69833POPC   NC329967  31.827   9.021  16.139 -0.0490 -0.2504  0.0141
69833POPC   PO429968  32.196   8.847  16.157 -0.0398 -0.1665  0.1079
69833POPC   GL129969  32.013   8.735  16.475  0.3888 -0.2245  0.0808
69833POPC   GL229970  31.924   8.464  16.322  0.0189 -0.1035 -0.2950
69833POPC   C1A29971  31.754   8.628  16.863 -0.3110 -0.0682 -0.1100
69833POPC   D2A29972  31.441   8.436  17.177 -0.0358 -0.2953 -0.0914
69833POPC   C3A29973  31.693   8.286  17.592 -0.0915  0.3469 -0.3522
69833POPC   C4A29974  32.122   8.298  17.671 -0.2492  0.0700 -0.1486
69833POPC   C1B29975  31.855   8.127  16.606 -0.2131 -0.0563  0.1877
69833POPC   C2B29976  31.588   7.881  16.838  0.2575 -0.4495 -0.3742
69833POPC   C3B29977  31.454   7.932  17.293  0.1561 -0.0689 -0.1101
69833POPC   C4B29978  31.021   7.992  17.514  0.0785 -0.0097 -0.1157
69834POPC   NC329979  21.646  11.290   9.310  0.1756 -0.2143  0.0891
69834POPC   PO429980  21.723  11.575   9.019  0.4139 -0.1213  0.0898
69834POPC   GL129981  21.825  11.415   8.684 -0.1757 -0.0163  0.6301
69834POPC   GL229982  22.101  11.476   8.724  0.1680 -0.1535 -0.1862
69834POPC   C1A29983  21.980  11.340   8.236  0.1904 -0.1430 -0.2347
69834POPC   D2A29984  22.213  11.478   7.848 -0.0458  0.3367 -0.0095
69834POPC   C3A29985  22.505  11.152   7.574 -0.0964 -0.4220 -0.3634
69834POPC   C4A29986  22.931  11.302   7.493 -0.0952  0.2445 -0.1466
69834POPC   C1B29987  22.387  11.162   8.475 -0.1839 -0.0222 -0.0865
69834POPC   C2B29988  22.441  11.032   8.054  0.0996  0.1717 -0.0270
69834POPC   C3B29989  22.762  10.820   7.831 -0.4567  0.1373  0.0961
69834POPC   C4B29990  23.006  10.587   7.570  0.1998  0.2379 -0.3233
69835POPC   NC329991  31.652   6.610  15.068  0.1421 -0.3841  0.3122
69835POPC   PO429992  32.048   6.531  15.073 -0.0401 -0.1164  0.2259
69835POPC   GL129993  31.897   6.421  15.425  0.1034  0.0082  0.0952
69835POPC   GL229994  32.003   6.206  15.565 -0.0012  0.0508  0.0589
69835POPC   C1A29995  31.501   6.374  15.526  0.6342  0.0117 -0.1452
69835POPC   D2A29996  31.083   6.587  15.664  0.0156  0.0350  0.1392
69835POPC   C3A29997  30.790   6.472  15.953 -0.1175  0.3145  0.0523
69835POPC   C4A29998  30.858   6.070  16.212  0.1222  0.1339  0.0728
69835POPC   C1B29999  31.747   6.097  15.933  0.2750 -0.1334 -0.0635
69835POPC   C2B30000  31.420   6.000  16.203  0.0467  0.2590 -0.1629
69835POPC   C3B30001  31.412   5.727  16.588 -0.0354  0.1098 -0.1562
69835POPC   C4B30002  30.993   5.741  16.876 -0.2404  0.2962  0.0862
69836POPC   NC330003  25.268  10.526  13.966  0.1274 -0.1280  0.0397
69836POPC   PO430004  25.048  10.235  14.175  0.1584 -0.0037 -0.1394
69836POPC   GL130005  25.261   9.939  13.937 -0.0133  0.1637  0.1538
69836POPC   GL230006  25.016   9.804  13.756 -0.1366 -0.0619 -0.2083
69836POPC   C1A30007  25.402   9.485  13.844 -0.3117  0.3730  0.2291
69836POPC   D2A30008  25.640   9.135  14.060 -0.3127 -0.0282 -0.3073
69836POPC   C3A30009  25.715   9.027  14.473  0.1473 -0.0831  0.0794
69836POPC   C4A30010  25.531   8.903  14.845  0.0988  0.1720 -0.1585
69836POPC   C1B30011  25.006   9.450  14.129 -0.0470  0.0111 -0.1517
69836POPC   C2B30012  24.816   9.147  14.388 -0.1353 -0.3581  0.1906
69836POPC   C3B30013  24.760   8.707  14.470  0.0272  0.0426 -0.0472
69836POPC   C4B30014  24.870   8.249  14.385  0.2841  0.0191  0.0746
69837POPC   NC330015  29.987   8.969  10.748 -0.1013 -0.1148  0.1024
69837POPC   PO430016  30.338   9.223  10.709 -0.0548  0.0924  0.1420
69837POPC   GL130017  29.990   9.229  10.363  0.1156 -0.0946 -0.2226
69837POPC   GL230018  29.682   9.288  10.470  0.0494 -0.2065  0.0845
69837POPC   C1A30019  29.961   8.891  10.120  0.0138 -0.0048 -0.3252
69837POPC   D2A30020  29.692   8.609   9.836  0.3966  0.1727  0.1035
69837POPC   C3A30021  29.868   8.708   9.421  0.0437 -0.0411  0.0991
69837POPC   C4A30022  29.679   8.669   8.978 -0.0019  0.1553 -0.2489
69837POPC   C1B30023  29.520   8.894  10.268 -0.2422 -0.1138  0.0242
69837POPC   C2B30024  29.407   8.462  10.303 -0.0836  0.1445 -0.2401
69837POPC   C3B30025  29.365   8.038  10.123  0.0891 -0.1015 -0.2539
69837POPC   C4B30026  29.434   7.847   9.681 -0.2933 -0.0480 -0.0617
69838POPC   NC330027  18.116   3.026  15.844  0.1689  0.0355  0.2105
69838POPC   PO430028  18.207   2.636  15.894  0.2564 -0.1668 -0.1103
69838POPC   GL130029  18.028   2.389  16.185 -0.3264 -0.0091 -0.5840
69838POPC   GL230030  18.292   2.213  16.196  0.0093  0.1375  0.1231
69838POPC   C1A30031  17.916   2.528  16.615 -0.1005 -0.0344  0.0677
69838POPC   D2A30032  17.714   2.478  17.016 -0.0071  0.1582 -0.2289
69838POPC   C3A30033  18.051   2.625  17.353 -0.3900 -0.1156 -0.1217
69838POPC   C4A30034  18.201   2.985  17.640 -0.1306 -0.1169 -0.0022
69838POPC   C1B30035  18.417   2.610  16.436  0.3441 -0.1913  0.1917
69838POPC   C2B30036  18.687   2.780  16.725 -0.1597 -0.3170  0.3037
69838POPC   C3B30037  19.083   2.904  16.988  0.0274 -0.2609 -0.0173
69838POPC   C4B30038  19.391   3.032  17.286 -0.0699  0.1973  0.1996
69839POPC   NC330039  18.060  14.791  16.548 -0.1515 -0.0437  0.4900
69839POPC   PO430040  17.738  15.038  16.549 -0.1289 -0.0052  0.4032
69839POPC   GL130041  17.947  15.161  16.854  0.0313 -0.1696 -0.1219
69839POPC   GL230042  17.998  14.895  17.010 -0.0573  0.1720 -0.0678
69839POPC   C1A30043  18.149  15.399  17.239 -0.2111  0.2572 -0.2879
69839POPC   D2A30044  18.478  15.514  17.545  0.2168 -0.0587  0.0082
69839POPC   C3A30045  18.555  15.840  17.835  0.1194  0.1897  0.0617
69839POPC   C4A30046  18.559  16.170  18.154 -0.0327  0.1017  0.1152
69839POPC   C1B30047  17.728  14.840  17.365 -0.2084  0.0076  0.2964
69839POPC   C2B30048  17.547  14.504  17.662 -0.3617 -0.2894  0.0606
69839POPC   C3B30049  17.458  14.272  18.032 -0.0964  0.0752  0.2088
69839POPC   C4B30050  17.460  14.314  18.466  0.2227 -0.2272  0.0852
69840POPC   NC330051  28.548  11.848  16.002 -0.2194 -0.0300 -0.5261
69840POPC   PO430052  28.579  11.561  16.267 -0.0465 -0.1534 -0.1846
69840POPC   GL130053  28.536  11.599  16.647 -0.1103  0.1206 -0.0752
69840POPC   GL230054  28.379  11.341  16.666 -0.2401  0.0413 -0.0294
69840POPC   C1A30055  28.667  11.520  17.154 -0.1343  0.0817 -0.0340
69840POPC   D2A30056  28.541  11.400  17.627  0.3739  0.0808  0.1560
69840POPC   C3A30057  28.316  11.685  17.934 -0.0569 -0.1305 -0.0222
69840POPC   C4A30058  27.976  11.844  18.136  0.2542 -0.1796  0.6206
69840POPC   C1B30059  28.150  11.328  17.070 -0.0565  0.1736  0.0247
69840POPC   C2B30060  28.081  11.108  17.514  0.2134  0.1052 -0.0446
69840POPC   C3B30061  28.256  11.038  17.910 -0.2804 -0.1467 -0.0286
69840POPC   C4B30062  28.164  11.187  18.373  0.1202 -0.0241 -0.1924
69841POPC   NC330063  19.439   9.537  16.501 -0.2814  0.5172  0.3750
69841POPC   PO430064  19.718   9.811  16.378 -0.0258 -0.1233  0.0178
69841POPC   GL130065  19.894   9.699  16.753 -0.0289  0.2489  0.0245
69841POPC   GL230066  19.745   9.621  16.999  0.0772 -0.0885  0.0985
69841POPC   C1A30067  20.122   9.812  17.211  0.0142  0.0306  0.1378
69841POPC   D2A30068  20.220   9.738  17.667  0.3527 -0.2120  0.0541
69841POPC   C3A30069  20.506   9.477  17.893 -0.0336 -0.0608 -0.0525
69841POPC   C4A30070  20.964   9.558  17.951 -0.0634 -0.0759  0.0792
69841POPC   C1B30071  19.971   9.365  17.317 -0.0008 -0.1898 -0.1476
69841POPC   C2B30072  20.166   9.207  17.691  0.1652 -0.0304  0.2400
69841POPC   C3B30073  20.487   8.943  17.948  0.1355  0.0485 -0.1038
69841POPC   C4B30074  20.949   9.058  17.952 -0.2881  0.0509 -0.2336
69842POPC   NC330075  22.175  12.994  16.370  0.0620  0.0961 -0.2496
69842POPC   PO430076  22.087  13.375  16.385  0.0161  0.1715  0.4099
69842POPC   GL130077  22.129  13.228  16.818 -0.0850  0.1751 -0.3311
69842POPC   GL230078  22.391  13.454  16.830 -0.0353 -0.0101  0.1155
69842POPC   C1A30079  22.392  13.032  17.133  0.2172 -0.0018 -0.1320
69842POPC   D2A30080  22.612  12.641  17.043 -0.0091  0.1784 -0.1592
69842POPC   C3A30081  22.796  12.410  17.382 -0.1366 -0.0900  0.0449
69842POPC   C4A30082  22.743  12.459  17.847 -0.4546 -0.0792  0.1545
69842POPC   C1B30083  22.161  13.454  17.230  0.1903  0.0615 -0.0298
69842POPC   C2B30084  22.135  13.172  17.585 -0.0704 -0.1895 -0.1854
69842POPC   C3B30085  21.902  12.818  17.778  0.0978  0.0049  0.0240
69842POPC   C4B30086  21.749  12.588  18.139  0.0251  0.3174 -0.1322
69843POPC   NC330087  26.483  10.501  11.950  0.2441 -0.2644  0.2016
69843POPC   PO430088  26.213  10.620  11.767  0.2216  0.1359 -0.4797
69843POPC   GL130089  26.093  10.141  11.878  0.3618 -0.1353  0.0062
69843POPC   GL230090  26.240  10.060  12.088 -0.0991  0.0453  0.1687
69843POPC   C1A30091  26.094   9.929  11.443  0.2012 -0.4004  0.3702
69843POPC   D2A30092  25.858   9.624  11.159  0.0145  0.0041 -0.0736
69843POPC   C3A30093  26.058   9.264  11.004 -0.0455 -0.2115 -0.1496
69843POPC   C4A30094  25.974   8.825  10.930  0.0306  0.0308  0.0196
69843POPC   C1B30095  26.325   9.695  11.793 -0.0652 -0.1698  0.2884
69843POPC   C2B30096  26.190   9.321  11.521  0.3119 -0.1474 -0.2477
69843POPC   C3B30097  26.024   8.928  11.469  0.2567 -0.4364 -0.0113
69843POPC   C4B30098  25.854   8.485  11.469  0.2021  0.1171  0.1261
69844POPC   NC330099  19.659  16.117  16.475  0.1102 -0.0328 -0.0737
69844POPC   PO430100  19.854  16.159  16.163 -0.1430  0.0611  0.0083
69844POPC   GL130101  20.192  16.333  16.363 -0.1019  0.2237 -0.1547
69844POPC   GL230102  20.310  16.093  16.434 -0.1689  0.2696 -0.1052
69844POPC   C1A30103  20.040  16.561  16.702  0.2324  0.1572 -0.0090
69844POPC   D2A30104  20.120  16.692  17.161 -0.0276 -0.1595 -0.1593
69844POPC   C3A30105  19.791  16.929  17.361  0.3339  0.1646 -0.0409
69844POPC   C4A30106  19.401  16.729  17.373 -0.4110 -0.1315  0.0275
69844POPC   C1B30107  20.477  16.418  16.719 -0.1535 -0.0743 -0.0617
69844POPC   C2B30108  20.870  16.624  16.858 -0.3498 -0.0926  0.0923
69844POPC   C3B30109  21.195  16.573  17.214 -0.0698 -0.1326 -0.2470
69844POPC   C4B30110  21.521  16.643  17.491 -0.0773  0.1420 -0.5944
69845POPC   NC330111  21.495  31.414  16.065  0.1283  0.1582  0.1298
69845POPC   PO430112  21.124  31.326  16.147  0.0335 -0.0318  0.4022
69845POPC   GL130113  21.231  31.249  16.549  0.1541  0.0906  0.0542
69845POPC   GL230114  21.521  31.411  16.648  0.2328 -0.0291  0.1660
69845POPC   C1A30115  21.092  31.493  16.950 -0.2158 -0.2766 -0.3428
69845POPC   D2A30116  21.010  31.324  17.347 -0.1092 -0.1051  0.0094
69845POPC   C3A30117  21.261  30.986  17.487  0.2362  0.1080 -0.1421
69845POPC   C4A30118  21.525  30.592  17.472  0.1270  0.0240  0.0489
69845POPC   C1B30119  21.455  31.797  16.861 -0.0976 -0.1350  0.0866
69845POPC   C2B30120  21.405  31.788  17.294  0.0919  0.0350 -0.0412
69845POPC   C3B30121  21.175  31.832  17.697 -0.1306 -0.3007 -0.2617
69845POPC   C4B30122  21.103  31.736  18.170  0.3174  0.2575 -0.0030
69846POPC   NC330123  17.319   3.385  15.539 -0.1282  0.2110  0.2108
69846POPC   PO430124  17.168   3.463  15.932 -0.3344 -0.0508  0.5350
69846POPC   GL130125  17.175   3.612  16.292 -0.1261  0.0421  0.3939
69846POPC   GL230126  17.366   3.566  16.497  0.3568  0.1539 -0.0782
69846POPC   C1A30127  16.857   3.524  16.665  0.2705  0.1572 -0.0339
69846POPC   D2A30128  16.615   3.447  17.037  0.1647 -0.0254 -0.0823
69846POPC   C3A30129  16.935   3.183  17.242  0.0098  0.2679 -0.1971
69846POPC   C4A30130  17.033   3.052  17.645 -0.0542  0.1250 -0.1212
69846POPC   C1B30131  17.429   3.709  16.902 -0.1421 -0.1029 -0.2648
69846POPC   C2B30132  17.614   4.034  17.136  0.3409 -0.3757 -0.0690
69846POPC   C3B30133  17.552   4.459  17.289 -0.1167 -0.2599  0.0028
69846POPC   C4B30134  17.433   4.679  17.614  0.0577 -0.1234 -0.3207
69847POPC   NC330135  17.255  11.388  16.580  0.2650  0.2443  0.2979
69847POPC   PO430136  17.249  11.012  16.391 -0.0547  0.1510 -0.3513
69847POPC   GL130137  17.255  10.853  16.746 -0.1871 -0.0801  0.0539
69847POPC   GL230138  17.383  10.560  16.656  0.0465 -0.3014  0.0475
69847POPC   C1A30139  17.322  10.675  17.137 -0.2212 -0.0009  0.2999
69847POPC   D2A30140  17.191  10.554  17.558 -0.3175  0.2071  0.2212
69847POPC   C3A30141  17.460  10.272  17.865 -0.0257  0.2159  0.0771
69847POPC   C4A30142  17.449   9.885  18.130  0.2254 -0.2231 -0.0766
69847POPC   C1B30143  16.944  10.492  16.792  0.0156 -0.0936 -0.1316
69847POPC   C2B30144  16.783  10.456  17.202  0.2308  0.0796 -0.0124
69847POPC   C3B30145  16.532  10.240  17.519 -0.0504  0.1615 -0.3167
69847POPC   C4B30146  16.505   9.990  17.921 -0.0389  0.1326  0.0993
69848POPC   NC330147  25.112  11.747   9.946  0.3349  0.1807  0.0363
69848POPC   PO430148  24.724  11.752   9.821  0.3847  0.1239 -0.0179
69848POPC   GL130149  24.851  11.541   9.590  0.0409 -0.2388  0.2646
69848POPC   GL230150  25.037  11.303   9.682  0.1659 -0.2149  0.1450
69848POPC   C1A30151  25.285  11.559   9.367 -0.0584 -0.1951 -0.0441
69848POPC   D2A30152  25.773  11.507   9.315 -0.0006 -0.1009 -0.0704
69848POPC   C3A30153  26.086  11.529   8.948  0.1183  0.0656 -0.1662
69848POPC   C4A30154  26.228  11.538   8.547  0.1008  0.3371  0.0745
69848POPC   C1B30155  24.989  10.919   9.489 -0.1361  0.0656 -0.0266
69848POPC   C2B30156  24.919  10.633   9.105  0.0920  0.2498 -0.1089
69848POPC   C3B30157  24.998  10.438   8.719  0.0025  0.2393  0.1969
69848POPC   C4B30158  24.879  10.519   8.252 -0.0929  0.1855 -0.1270
69849POPC   NC330159  24.011   9.779  13.868  0.3515  0.0551  0.1009
69849POPC   PO430160  24.233   9.911  14.183  0.1722 -0.0342 -0.2894
69849POPC   GL130161  24.416   9.583  14.467 -0.1234 -0.1647  0.0905
69849POPC   GL230162  24.409   9.371  14.671  0.1923 -0.1347 -0.0766
69849POPC   C1A30163  24.351   9.163  14.266 -0.1009 -0.1104  0.0131
69849POPC   D2A30164  24.449   8.847  13.912 -0.1244 -0.2177  0.1531
69849POPC   C3A30165  24.667   8.440  13.962 -0.3588 -0.1647  0.0522
69849POPC   C4A30166  24.585   7.976  13.944  0.0645  0.3495 -0.1059
69849POPC   C1B30167  24.475   8.948  14.795  0.0789 -0.0465  0.4769
69849POPC   C2B30168  24.509   8.523  14.858 -0.2990  0.0383  0.2210
69849POPC   C3B30169  24.761   8.203  15.103  0.0982 -0.1255  0.1186
69849POPC   C4B30170  24.921   7.951  15.473 -0.2223  0.0751  0.2929
69850POPC   NC330171  27.224  13.066  16.163 -0.2695 -0.0701 -0.4714
69850POPC   PO430172  27.212  12.720  16.406  0.0061 -0.0503  0.2212
69850POPC   GL130173  27.256  12.360  16.597  0.3574 -0.1422 -0.0162
69850POPC   GL230174  26.961  12.311  16.731 -0.0379  0.1407  0.1620
69850POPC   C1A30175  27.365  12.314  17.031 -0.0367  0.0674  0.3721
69850POPC   D2A30176  27.292  12.277  17.459  0.0522 -0.1185  0.1784
69850POPC   C3A30177  27.379  12.651  17.708 -0.1132 -0.0571 -0.2565
69850POPC   C4A30178  27.778  12.832  17.915 -0.0934 -0.0936  0.1216
69850POPC   C1B30179  26.920  12.417  17.166  0.0724 -0.0054 -0.0572
69850POPC   C2B30180  26.846  12.454  17.603 -0.0692 -0.2093  0.0900
69850POPC   C3B30181  26.980  12.253  18.015  0.1538 -0.0826  0.2083
69850POPC   C4B30182  26.964  11.883  18.298  0.1774 -0.1393  0.4181
69851POPC   NC330183  30.860   3.788  14.476  0.0505 -0.0104 -0.0344
69851POPC   PO430184  30.809   3.581  14.775  0.5986  0.0851  0.0180
69851POPC   GL130185  30.613   3.793  15.088  0.3665  0.2306  0.1355
69851POPC   GL230186  30.775   3.574  15.294  0.1844 -0.4071  0.0092
69851POPC   C1A30187  30.213   3.957  14.951  0.3414 -0.0678 -0.1000
69851POPC   D2A30188  29.754   4.041  14.998  0.0605 -0.0759 -0.1138
69851POPC   C3A30189  29.445   3.786  15.190 -0.1196  0.0029 -0.3462
69851POPC   C4A30190  29.028   3.777  15.344 -0.2964  0.4939 -0.1644
69851POPC   C1B30191  30.363   3.708  15.446  0.1951  0.0040  0.2162
69851POPC   C2B30192  30.181   3.898  15.782 -0.0139 -0.0503  0.1560
69851POPC   C3B30193  29.956   3.813  16.161 -0.0435 -0.0627 -0.0164
69851POPC   C4B30194  29.846   3.864  16.574 -0.1026  0.1761 -0.2044
69852POPC   NC330195  17.732   9.590   8.686  0.1161 -0.1794 -0.0949
69852POPC   PO430196  17.892   9.211   8.785  0.1370  0.4963  0.2833
69852POPC   GL130197  17.597   9.176   8.435  0.1974  0.0344 -0.3791
69852POPC   GL230198  17.789   9.146   8.221 -0.2279 -0.2877  0.1362
69852POPC   C1A30199  17.313   9.232   8.081 -0.0111  0.0682 -0.0886
69852POPC   D2A30200  17.238   9.077   7.673  0.0055  0.0104 -0.0970
69852POPC   C3A30201  16.926   9.007   7.337  0.0343 -0.2249 -0.2551
69852POPC   C4A30202  16.916   8.715   6.978 -0.0842  0.1248 -0.0771
69852POPC   C1B30203  17.535   8.797   7.970 -0.0273  0.0241 -0.3504
69852POPC   C2B30204  17.407   8.608   7.542  0.1138 -0.0915 -0.1247
69852POPC   C3B30205  17.139   8.274   7.350  0.1280  0.3412  0.0887
69852POPC   C4B30206  16.825   8.094   6.966  0.0403 -0.1287 -0.0988
69853POPC   NC330207  19.348   5.586  14.445 -0.0157  0.0150 -0.1460
69853POPC   PO430208  19.485   5.497  14.793  0.2029 -0.0981 -0.0093
69853POPC   GL130209  19.755   5.309  15.111  0.2627  0.0180 -0.4759
69853POPC   GL230210  19.700   5.389  15.398 -0.0646  0.1121 -0.0173
69853POPC   C1A30211  20.235   5.325  15.070 -0.0592 -0.1200  0.2899
69853POPC   D2A30212  20.583   5.549  15.277  0.1126 -0.2150 -0.1844
69853POPC   C3A30213  20.571   5.570  15.731  0.0758 -0.0443  0.1705
69853POPC   C4A30214  20.931   5.580  16.045 -0.0967 -0.0513  0.2392
69853POPC   C1B30215  19.986   5.330  15.816  0.1577  0.2531  0.0429
69853POPC   C2B30216  20.110   5.410  16.235 -0.2683 -0.3622  0.1999
69853POPC   C3B30217  20.129   5.216  16.674 -0.1181  0.3056 -0.0319
69853POPC   C4B30218  20.125   4.982  17.057  0.2373  0.0278 -0.0085
69854POPC   NC330219  24.072   1.440  11.624 -0.2183  0.0048  0.1729
69854POPC   PO430220  23.747   1.481  11.381 -0.3083 -0.3037 -0.0275
69854POPC   GL130221  23.913   1.742  11.096  0.0772  0.0649 -0.3406
69854POPC   GL230222  24.230   1.746  11.236 -0.0307 -0.1262  0.0334
69854POPC   C1A30223  23.954   2.042  10.795 -0.1773 -0.0750 -0.2019
69854POPC   D2A30224  24.293   2.332  10.623 -0.1091  0.1284  0.4475
69854POPC   C3A30225  24.614   2.676  10.680  0.1797  0.2180 -0.1590
69854POPC   C4A30226  24.592   3.106  10.626  0.3176 -0.1370 -0.0367
69854POPC   C1B30227  24.031   1.990  11.631 -0.0646  0.1974  0.0379
69854POPC   C2B30228  23.899   2.227  11.985 -0.1893  0.1004  0.1251
69854POPC   C3B30229  24.059   2.659  11.974 -0.3191 -0.1611 -0.1783
69854POPC   C4B30230  24.030   3.104  11.875 -0.1334  0.1451 -0.1374
69855POPC   NC330231  22.289  15.151  15.694 -0.0628 -0.1514 -0.1527
69855POPC   PO430232  22.000  15.365  15.853 -0.0532  0.0029  0.2928
69855POPC   GL130233  22.302  15.564  16.041  0.2170 -0.0645  0.0784
69855POPC   GL230234  22.325  15.487  16.343 -0.0707  0.0009  0.3763
69855POPC   C1A30235  22.752  15.681  16.177  0.2683  0.1499 -0.0497
69855POPC   D2A30236  23.063  15.582  16.497 -0.1992  0.0405  0.1283
69855POPC   C3A30237  23.150  15.573  16.953 -0.0353 -0.1543  0.0160
69855POPC   C4A30238  23.071  15.846  17.280  0.2156  0.2042 -0.0191
69855POPC   C1B30239  22.516  15.804  16.642  0.1251  0.1652 -0.0771
69855POPC   C2B30240  22.812  16.088  16.879  0.3420 -0.1609 -0.1247
69855POPC   C3B30241  22.981  16.359  17.191 -0.0504 -0.3313 -0.1816
69855POPC   C4B30242  23.432  16.340  17.363 -0.2378  0.0121  0.0472
69856POPC   NC330243  31.123   6.433  11.113 -0.1461 -0.2709 -0.2440
69856POPC   PO430244  31.072   6.125  11.331  0.0120 -0.2943  0.0566
69856POPC   GL130245  30.691   6.087  11.448 -0.0934  0.1597  0.2989
69856POPC   GL230246  30.602   6.305  11.580  0.0446 -0.0127  0.0922
69856POPC   C1A30247  30.296   6.054  11.254  0.1655 -0.0359  0.0629
69856POPC   D2A30248  29.814   6.011  11.392  0.0423 -0.0173  0.4172
69856POPC   C3A30249  29.444   6.148  11.194 -0.2181  0.1732  0.1114
69856POPC   C4A30250  29.172   6.534  11.098  0.3942  0.2018  0.1754
69856POPC   C1B30251  30.115   6.417  11.604 -0.0877  0.1095 -0.0562
69856POPC   C2B30252  29.642   6.513  11.481  0.2764  0.1474  0.1328
69856POPC   C3B30253  29.277   6.299  11.611 -0.0394 -0.0071 -0.3412
69856POPC   C4B30254  28.881   6.303  11.538 -0.3783 -0.0705  0.1509
69857POPC   NC330255  20.883   6.963  14.511  0.4570 -0.0763  0.3937
69857POPC   PO430256  20.812   6.644  14.668 -0.0248 -0.0405  0.0826
69857POPC   GL130257  20.976   6.408  14.903  0.0268  0.1125  0.0551
69857POPC   GL230258  20.798   6.342  15.206  0.1206 -0.1701  0.2957
69857POPC   C1A30259  21.375   6.298  15.138 -0.1235 -0.1744 -0.1018
69857POPC   D2A30260  21.750   6.518  15.220 -0.1599 -0.3447 -0.0169
69857POPC   C3A30261  22.127   6.430  15.503 -0.1132  0.0471  0.2294
69857POPC   C4A30262  22.601   6.431  15.668  0.4259 -0.0187  0.3897
69857POPC   C1B30263  20.989   6.178  15.577 -0.2201  0.0488  0.0334
69857POPC   C2B30264  21.254   6.009  15.935 -0.1201  0.1014 -0.1865
69857POPC   C3B30265  21.591   5.972  16.290 -0.3591  0.0789 -0.0594
69857POPC   C4B30266  21.661   5.826  16.703 -0.2646  0.0367  0.1917
69858POPC   NC330267  25.748  11.229  15.442 -0.4922 -0.1069 -0.0301
69858POPC   PO430268  25.713  11.101  15.776  0.0762  0.0810  0.0308
69858POPC   GL130269  25.936  11.015  16.131 -0.0229 -0.2281 -0.2839
69858POPC   GL230270  25.699  11.306  16.220 -0.0619 -0.1572 -0.0394
69858POPC   C1A30271  25.851  10.681  16.448  0.1339  0.0520  0.0260
69858POPC   D2A30272  26.023  10.311  16.616  0.0531  0.0357 -0.0494
69858POPC   C3A30273  25.838  10.246  17.026 -0.0473 -0.0105 -0.0474
69858POPC   C4A30274  25.849  10.030  17.396  0.0353  0.0863  0.1180
69858POPC   C1B30275  25.480  11.112  16.588 -0.2510  0.0136  0.1099
69858POPC   C2B30276  25.377  10.848  16.975  0.4918  0.1921  0.5011
69858POPC   C3B30277  25.405  10.595  17.356  0.1000  0.2568  0.1690
69858POPC   C4B30278  25.537  10.370  17.707 -0.2957  0.3487 -0.0711
69859POPC   NC330279  19.213   5.512  15.565 -0.1103 -0.1300 -0.1426
69859POPC   PO430280  19.352   5.771  15.253  0.0659  0.1377 -0.1726
69859POPC   GL130281  19.616   5.865  15.530  0.0308 -0.1441 -0.0119
69859POPC   GL230282  19.599   5.703  15.785 -0.2049 -0.0823  0.1994
69859POPC   C1A30283  19.932   6.210  15.644  0.1916  0.1309  0.0623
69859POPC   D2A30284  20.256   6.268  15.957 -0.1930  0.1476 -0.2001
69859POPC   C3A30285  20.074   6.153  16.373 -0.0054  0.0034 -0.0134
69859POPC   C4A30286  20.147   6.326  16.794 -0.2191  0.0497 -0.0796
69859POPC   C1B30287  19.353   5.883  16.079  0.0271 -0.0774  0.1038
69859POPC   C2B30288  19.344   5.740  16.513  0.0174 -0.1145 -0.1046
69859POPC   C3B30289  19.099   5.491  16.838 -0.0146 -0.0132 -0.0925
69859POPC   C4B30290  18.789   5.189  16.928 -0.2769 -0.2710  0.1841
69860POPC   NC330291  24.909   0.521  13.344 -0.1389  0.4083  0.1069
69860POPC   PO430292  25.079   0.684  13.000 -0.1468  0.2880 -0.3073
69860POPC   GL130293  25.377   0.812  13.279  0.4108  0.2384  0.0171
69860POPC   GL230294  25.251   0.787  13.606 -0.0549 -0.2990 -0.0457
69860POPC   C1A30295  25.619   1.146  13.367 -0.2512 -0.1031 -0.0457
69860POPC   D2A30296  25.763   1.612  13.424  0.1456  0.1512 -0.1390
69860POPC   C3A30297  25.931   1.945  13.722  0.1785 -0.0464  0.1173
69860POPC   C4A30298  25.949   2.236  14.075  0.1478  0.1064  0.0798
69860POPC   C1B30299  25.409   1.216  13.831 -0.1584 -0.2540 -0.1518
69860POPC   C2B30300  25.421   1.697  13.817 -0.1916 -0.0392 -0.0593
69860POPC   C3B30301  25.426   2.146  13.874  0.2624  0.0830  0.3395
69860POPC   C4B30302  25.140   2.538  13.825 -0.0247  0.3263  0.1244
69861POPC   NC330303  17.902   5.036  15.576 -0.0557  0.2536  0.2741
69861POPC   PO430304  17.643   5.248  15.623 -0.0929 -0.0457 -0.3730
69861POPC   GL130305  17.462   5.295  15.969  0.1743 -0.1573  0.0326
69861POPC   GL230306  17.175   5.325  15.829  0.1229  0.1722  0.1157
69861POPC   C1A30307  17.645   5.515  16.274  0.0332  0.1892 -0.0473
69861POPC   D2A30308  17.750   5.667  16.719  0.1609 -0.0417  0.1068
69861POPC   C3A30309  17.400   5.486  16.961  0.0253 -0.0124  0.0980
69861POPC   C4A30310  17.028   5.376  17.222  0.0382  0.1327 -0.0805
69861POPC   C1B30311  17.165   5.585  16.243 -0.0026 -0.0566 -0.3061
69861POPC   C2B30312  17.348   5.888  16.586 -0.0370 -0.0471  0.0577
69861POPC   C3B30313  17.295   6.002  17.062 -0.3928 -0.2011 -0.2109
69861POPC   C4B30314  17.351   6.429  17.179 -0.0367 -0.0533  0.0290
69862POPC   NC330315  24.044  10.913  11.578 -0.0378 -0.1903  0.0963
69862POPC   PO430316  24.346  10.674  11.611 -0.1042 -0.1695 -0.0710
69862POPC   GL130317  24.506  10.640  11.965  0.0597 -0.0006 -0.4733
69862POPC   GL230318  24.813  10.501  11.968  0.1407 -0.1424 -0.1501
69862POPC   C1A30319  24.493  10.297  12.279  0.1386 -0.0246  0.0431
69862POPC   D2A30320  24.445  10.028  12.586  0.2035 -0.0673 -0.3596
69862POPC   C3A30321  24.009   9.966  12.868  0.2311  0.3617 -0.3280
69862POPC   C4A30322  23.886   9.503  12.934 -0.2835  0.1837 -0.2421
69862POPC   C1B30323  24.795  10.061  11.902  0.0750  0.0759  0.2980
69862POPC   C2B30324  24.586   9.694  11.720 -0.1025  0.1189 -0.0430
69862POPC   C3B30325  24.510   9.235  11.723 -0.2695  0.3959 -0.0585
69862POPC   C4B30326  24.468   8.983  11.376 -0.1388  0.1649 -0.0656
69863POPC   NC330327  31.591  13.677  21.077 -0.0018  0.0749 -0.2432
69863POPC   PO430328  31.396  13.930  20.808 -0.2119 -0.0714 -0.4273
69863POPC   GL130329  31.199  13.858  20.453 -0.1861  0.0746  0.1365
69863POPC   GL230330  30.931  13.942  20.403  0.1125 -0.1979  0.0042
69863POPC   C1A30331  31.403  13.833  19.970  0.2459  0.3761 -0.0797
69863POPC   D2A30332  31.644  13.819  19.566 -0.1971 -0.0975 -0.0349
69863POPC   C3A30333  31.798  14.248  19.464 -0.0391  0.0086 -0.3821
69863POPC   C4A30334  31.783  14.380  19.001  0.2742 -0.5329  0.1854
69863POPC   C1B30335  30.912  14.143  20.044  0.0205  0.2723  0.0727
69863POPC   C2B30336  30.674  14.524  19.928  0.3484  0.0073 -0.0323
69863POPC   C3B30337  30.531  14.833  19.614  0.0184 -0.2735  0.1451
69863POPC   C4B30338  30.562  14.861  19.114 -0.2372 -0.1081  0.5499
69864POPC   NC330339  28.707  13.355  20.442 -0.2509  0.1001  0.1102
69864POPC   PO430340  29.040  13.222  20.568  0.0369  0.0276  0.0209
69864POPC   GL130341  29.492  13.208  20.531  0.0305  0.1315 -0.0063
69864POPC   GL230342  29.430  13.042  20.297 -0.1829  0.0912  0.1037
69864POPC   C1A30343  29.853  13.242  20.261  0.3697 -0.1070  0.3278
69864POPC   D2A30344  30.284  13.162  20.298 -0.2722 -0.0667 -0.0280
69864POPC   C3A30345  30.546  13.251  19.923  0.2547 -0.1604  0.2772
69864POPC   C4A30346  30.676  13.391  19.474 -0.4474 -0.1531  0.2738
69864POPC   C1B30347  29.624  12.827  19.914  0.1355 -0.1734  0.1863
69864POPC   C2B30348  29.490  12.552  19.605 -0.0988 -0.1422  0.0514
69864POPC   C3B30349  29.612  12.523  19.204  0.3523 -0.0939  0.1195
69864POPC   C4B30350  29.829  12.287  18.947 -0.1223  0.0278 -0.2359
69865POPC   NC330351  20.449   9.142  20.593  0.0343  0.0677 -0.1700
69865POPC   PO430352  20.634   9.298  20.289 -0.0467 -0.2461  0.2700
69865POPC   GL130353  20.672   9.504  19.973 -0.0780  0.1098  0.0505
69865POPC   GL230354  20.623   9.793  20.033 -0.2462  0.0476 -0.1560
69865POPC   C1A30355  20.550   9.277  19.569  0.0534 -0.0323  0.0892
69865POPC   D2A30356  20.504   8.890  19.343  0.2130  0.1302  0.3114
69865POPC   C3A30357  20.484   8.999  18.884 -0.2255  0.2185 -0.2016
69865POPC   C4A30358  20.598   9.188  18.417  0.0477 -0.0773  0.2333
69865POPC   C1B30359  20.623   9.836  19.608  0.1734 -0.0119 -0.3027
69865POPC   C2B30360  20.502   9.691  19.161  0.0418 -0.1057 -0.0618
69865POPC   C3B30361  20.401   9.549  18.739 -0.0603 -0.0360  0.2066
69865POPC   C4B30362  20.278   9.622  18.313 -0.1034  0.2577 -0.3967
69866POPC   NC330363  23.664  12.975  19.625 -0.1658  0.3938  0.2838
69866POPC   PO430364  23.573  13.094  19.962 -0.0492  0.2498 -0.3546
69866POPC   GL130365  23.260  13.257  19.863  0.1459  0.1930 -0.0927
69866POPC   GL230366  23.084  12.995  19.917  0.1107  0.0255  0.1283
69866POPC   C1A30367  23.207  13.547  19.456 -0.0852 -0.0795  0.1210
69866POPC   D2A30368  23.103  13.877  19.168  0.0360 -0.2074  0.0288
69866POPC   C3A30369  22.742  13.916  18.894  0.4396 -0.4166  0.1247
69866POPC   C4A30370  22.409  13.679  18.745 -0.1659 -0.1873 -0.1795
69866POPC   C1B30371  23.236  12.980  19.427 -0.0349  0.3241  0.1019
69866POPC   C2B30372  23.356  13.179  19.070  0.2484 -0.1573  0.0197
69866POPC   C3B30373  23.439  13.588  18.865  0.1048 -0.1400  0.0540
69866POPC   C4B30374  23.378  14.080  18.784 -0.1154  0.1328  0.0045
69867POPC   NC330375  29.766  14.864  20.394  0.1387  0.0507 -0.1138
69867POPC   PO430376  29.955  14.762  20.715 -0.3097 -0.0322  0.0132
69867POPC   GL130377  30.204  14.623  20.420 -0.0913 -0.4995  0.1736
69867POPC   GL230378  30.311  14.824  20.170 -0.2039 -0.0233  0.1591
69867POPC   C1A30379  30.429  14.242  20.346  0.0297 -0.0334  0.0427
69867POPC   D2A30380  30.485  13.779  20.149  0.1397 -0.0980 -0.3044
69867POPC   C3A30381  30.618  13.815  19.724 -0.1911 -0.1022  0.0374
69867POPC   C4A30382  30.926  14.040  19.466 -0.2256  0.0198 -0.0934
69867POPC   C1B30383  30.078  14.561  19.868  0.1110 -0.2395 -0.2322
69867POPC   C2B30384  29.915  14.550  19.457  0.1968 -0.0493  0.0243
69867POPC   C3B30385  30.070  14.624  19.077  0.2044  0.0764  0.1674
69867POPC   C4B30386  29.757  14.689  18.704  0.0500 -0.0700  0.2973
69868POPC   NC330387  32.049   5.800  19.539 -0.0881 -0.4781  0.0130
69868POPC   PO430388  31.973   5.496  19.278 -0.1556  0.1874 -0.0949
69868POPC   GL130389  31.948   5.928  19.041 -0.1254  0.0386  0.1071
69868POPC   GL230390  32.234   5.872  18.983  0.2110 -0.1102  0.0151
69868POPC   C1A30391  31.941   6.137  18.573 -0.0449  0.3333 -0.4843
69868POPC   D2A30392  32.218   6.091  18.191 -0.0325  0.1582 -0.3320
69868POPC   C3A30393  32.263   6.485  17.940 -0.0111 -0.0011  0.2239
69868POPC   C4A30394  32.378   6.861  17.713  0.0786  0.1752  0.0736
69868POPC   C1B30395  32.323   5.717  18.534  0.1943  0.2225 -0.0244
69868POPC   C2B30396  32.494   5.663  18.099 -0.1412 -0.0351 -0.0744
69868POPC   C3B30397  32.881   5.644  17.838  0.2780  0.2292 -0.0277
69868POPC   C4B30398  33.258   5.448  17.973 -0.0925  0.0557  0.0015
69869POPC   NC330399  18.035   0.348  20.072 -0.3312  0.0635  0.0368
69869POPC   PO430400  17.687   0.202  20.176  0.0318 -0.3124  0.2318
69869POPC   GL130401  17.729  -0.140  20.022  0.5112  0.1273  0.0674
69869POPC   GL230402  17.719  -0.031  19.751 -0.0655  0.0485 -0.0433
69869POPC   C1A30403  17.700  -0.579  19.956 -0.0554  0.0535 -0.1805
69869POPC   D2A30404  17.824  -0.895  19.636 -0.0848 -0.0626 -0.0432
69869POPC   C3A30405  17.924  -0.959  19.180  0.0864 -0.1848 -0.1251
69869POPC   C4A30406  17.997  -1.174  18.761 -0.2524 -0.2559  0.1136
69869POPC   C1B30407  17.952   0.023  19.302  0.0920  0.1982 -0.0598
69869POPC   C2B30408  18.200  -0.234  19.017 -0.1030  0.2026  0.0995
69869POPC   C3B30409  18.356  -0.205  18.570  0.0059 -0.0696 -0.5936
69869POPC   C4B30410  18.678   0.061  18.339 -0.0539 -0.1365  0.2605
69870POPC   NC330411  17.275  12.885  20.804  0.1805  0.0165  0.0103
69870POPC   PO430412  16.899  12.880  20.726  0.3752  0.0844  0.2342
69870POPC   GL130413  16.914  12.807  20.405 -0.1480  0.5744  0.1195
69870POPC   GL230414  16.779  13.022  20.230 -0.1721  0.1680 -0.2083
69870POPC   C1A30415  16.971  12.483  20.054  0.1768 -0.1205  0.2246
69870POPC   D2A30416  16.905  12.398  19.609  0.0562  0.3099  0.0807
69870POPC   C3A30417  16.852  12.105  19.243 -0.2120  0.0287 -0.4310
69870POPC   C4A30418  16.761  12.000  18.857  0.2270  0.0332 -0.0636
69870POPC   C1B30419  16.748  12.946  19.759  0.0899  0.2811 -0.0233
69870POPC   C2B30420  16.514  12.749  19.374  0.0340  0.0990  0.0845
69870POPC   C3B30421  16.483  12.429  19.056  0.3778 -0.2489  0.0281
69870POPC   C4B30422  16.171  12.237  18.747  0.0962  0.0302 -0.0379
69871POPC   NC330423  23.025   4.758  17.542  0.1579 -0.2831 -0.1243
69871POPC   PO430424  23.149   4.459  17.337 -0.0544  0.3192  0.3527
69871POPC   GL130425  22.913   4.642  17.030  0.0390  0.0773  0.1934
69871POPC   GL230426  22.672   4.498  17.142  0.1112 -0.0419  0.2085
69871POPC   C1A30427  22.732   4.373  16.657 -0.1551 -0.1273  0.0392
69871POPC   D2A30428  22.532   4.289  16.216 -0.0852 -0.0439 -0.0764
69871POPC   C3A30429  22.574   4.615  15.866 -0.0298 -0.2181 -0.0429
69871POPC   C4A30430  22.445   4.608  15.423  0.2003 -0.1616 -0.0166
69871POPC   C1B30431  22.416   4.775  16.894 -0.0811 -0.2250  0.0070
69871POPC   C2B30432  22.222   4.532  16.561 -0.1455 -0.0267 -0.1203
69871POPC   C3B30433  22.130   4.668  16.084 -0.0616 -0.0725  0.1069
69871POPC   C4B30434  21.862   4.598  15.663 -0.0288 -0.2111  0.0139
69872POPC   NC330435  17.499   7.852  20.251  0.0871 -0.0853  0.0349
69872POPC   PO430436  17.895   7.781  20.139  0.3449  0.2813  0.2494
69872POPC   GL130437  17.769   8.118  19.912  0.0970  0.0888 -0.1097
69872POPC   GL230438  17.865   8.394  19.886 -0.3337  0.2166  0.0811
69872POPC   C1A30439  17.646   7.925  19.497 -0.0060 -0.3769 -0.0382
69872POPC   D2A30440  17.664   7.622  19.191 -0.0640  0.0314 -0.2625
69872POPC   C3A30441  17.709   7.705  18.732 -0.1595  0.0760 -0.0937
69872POPC   C4A30442  17.541   7.804  18.317  0.2189 -0.0181  0.0703
69872POPC   C1B30443  17.700   8.411  19.486  0.2273  0.0899  0.1305
69872POPC   C2B30444  17.658   8.231  19.047 -0.1129 -0.1620 -0.1162
69872POPC   C3B30445  17.509   8.448  18.642 -0.1464  0.0542 -0.0526
69872POPC   C4B30446  17.535   8.867  18.560 -0.1097 -0.0735 -0.1565
69873POPC   NC330447  26.061   8.916  19.964  0.0659  0.0161  0.0089
69873POPC   PO430448  26.160   8.846  19.572 -0.1860 -0.1875 -0.0591
69873POPC   GL130449  26.155   9.201  19.361  0.0940  0.1577  0.2170
69873POPC   GL230450  26.141   9.045  19.096  0.0053  0.1732 -0.2422
69873POPC   C1A30451  26.091   9.642  19.184 -0.0299  0.0525  0.1428
69873POPC   D2A30452  25.813  10.053  19.167 -0.1578 -0.3292  0.0175
69873POPC   C3A30453  25.618  10.177  18.696 -0.3204  0.0596 -0.2606
69873POPC   C4A30454  25.700  10.112  18.220 -0.1614 -0.1930  0.1591
69873POPC   C1B30455  25.799   9.059  18.792 -0.0016  0.2642  0.1086
69873POPC   C2B30456  25.513   9.284  18.480  0.0122 -0.0155 -0.0624
69873POPC   C3B30457  25.342   9.653  18.173  0.0937 -0.0721 -0.2258
69873POPC   C4B30458  25.468   9.828  17.802 -0.0385  0.1583  0.0537
69874POPC   NC330459  25.687   8.891  19.370  0.0705  0.0822 -0.0805
69874POPC   PO430460  25.443   8.620  19.282  0.2157  0.2300 -0.2793
69874POPC   GL130461  25.363   8.954  19.049 -0.4135  0.1419  0.0551
69874POPC   GL230462  25.479   9.277  19.073  0.1213  0.0711 -0.1240
69874POPC   C1A30463  25.076   8.965  18.717  0.3201  0.1966 -0.0417
69874POPC   D2A30464  25.077   9.161  18.312  0.1545 -0.1388  0.0842
69874POPC   C3A30465  24.830   9.292  17.972 -0.0763 -0.1975 -0.0380
69874POPC   C4A30466  24.489   9.540  17.819  0.0351 -0.0060  0.2518
69874POPC   C1B30467  25.674   9.630  18.874  0.1681 -0.3118  0.1850
69874POPC   C2B30468  26.053   9.937  18.710 -0.0196 -0.1379 -0.0783
69874POPC   C3B30469  26.282  10.057  18.297  0.0594 -0.1695 -0.1435
69874POPC   C4B30470  26.455   9.798  17.914 -0.3280 -0.0190 -0.3386
69875POPC   NC330471  19.359   4.478  20.004 -0.0497 -0.0561 -0.0941
69875POPC   PO430472  19.055   4.671  19.857  0.0942 -0.1353 -0.0865
69875POPC   GL130473  18.923   4.488  19.395 -0.2214 -0.2682  0.0031
69875POPC   GL230474  18.581   4.502  19.355  0.0707 -0.1737  0.1249
69875POPC   C1A30475  18.910   4.459  18.963  0.0843  0.2137  0.3968
69875POPC   D2A30476  18.864   4.377  18.564 -0.0173  0.0651 -0.1363
69875POPC   C3A30477  19.012   4.666  18.223 -0.1905 -0.0967 -0.0265
69875POPC   C4A30478  18.890   4.851  17.845  0.1319 -0.1343 -0.0220
69875POPC   C1B30479  18.418   4.689  18.925 -0.0287  0.1437 -0.1777
69875POPC   C2B30480  18.479   5.127  18.794 -0.1231 -0.0544  0.0735
69875POPC   C3B30481  18.367   5.438  18.456 -0.2839 -0.1810  0.0641
69875POPC   C4B30482  18.536   5.527  18.039 -0.0694 -0.1168  0.3341
69876POPC   NC330483  23.879   1.991  18.144  0.2027  0.2366  0.0852
69876POPC   PO430484  24.206   1.933  17.976  0.0095  0.0192  0.1916
69876POPC   GL130485  23.999   1.823  17.648 -0.1178 -0.0078 -0.0594
69876POPC   GL230486  24.107   1.565  17.603  0.0576 -0.1370 -0.0344
69876POPC   C1A30487  23.574   1.739  17.489  0.0588  0.2582 -0.0135
69876POPC   D2A30488  23.455   1.614  17.062 -0.1749  0.2831  0.0222
69876POPC   C3A30489  23.656   1.757  16.642 -0.0631  0.2251  0.2930
69876POPC   C4A30490  23.897   1.551  16.258 -0.0831  0.3190  0.0726
69876POPC   C1B30491  24.285   1.145  17.575  0.2065 -0.0370 -0.0176
69876POPC   C2B30492  24.305   0.663  17.576 -0.0402  0.0065 -0.1595
69876POPC   C3B30493  24.558   0.433  17.309  0.0541  0.2718  0.1330
69876POPC   C4B30494  24.322   0.079  17.128  0.1472 -0.2161 -0.3999
69877POPC   NC330495  28.963   4.927  18.807 -0.1261 -0.0216  0.2121
69877POPC   PO430496  29.312   4.868  18.608  0.0911  0.0210  0.0473
69877POPC   GL130497  29.613   4.737  18.412  0.3491 -0.2714  0.0956
69877POPC   GL230498  29.722   4.596  18.219 -0.2271  0.0927  0.1958
69877POPC   C1A30499  29.815   5.129  18.248  0.0323 -0.3489  0.3172
69877POPC   D2A30500  29.802   5.516  18.454 -0.2149  0.0979 -0.1883
69877POPC   C3A30501  30.086   5.879  18.417 -0.1911  0.0062  0.4172
69877POPC   C4A30502  30.425   6.205  18.455  0.0292  0.2002  0.3725
69877POPC   C1B30503  29.774   4.796  17.785  0.0704  0.0344 -0.0128
69877POPC   C2B30504  30.005   4.742  17.414  0.0946  0.1780 -0.0897
69877POPC   C3B30505  30.218   4.819  17.010 -0.4305  0.0379  0.1954
69877POPC   C4B30506  30.559   4.657  16.763 -0.2069 -0.0790 -0.2850
69878POPC   NC330507  23.133  15.878  20.348 -0.0301  0.0768 -0.3521
69878POPC   PO430508  22.833  15.617  20.397 -0.0800  0.0707 -0.4284
69878POPC   GL130509  22.949  15.495  20.021 -0.4296 -0.3374 -0.2707
69878POPC   GL230510  23.051  15.226  19.981  0.0649 -0.2898  0.0815
69878POPC   C1A30511  22.752  15.644  19.607  0.0615  0.1980 -0.0887
69878POPC   D2A30512  22.741  15.425  19.208 -0.2719 -0.1256  0.4119
69878POPC   C3A30513  22.362  15.117  19.102 -0.0871 -0.2049  0.2286
69878POPC   C4A30514  21.923  15.167  18.896 -0.0614 -0.4297 -0.1716
69878POPC   C1B30515  23.048  15.177  19.515  0.1406 -0.3734 -0.2111
69878POPC   C2B30516  22.795  14.905  19.184 -0.0669  0.1267  0.1858
69878POPC   C3B30517  22.686  14.753  18.781  0.2392 -0.1008 -0.0239
69878POPC   C4B30518  22.222  14.795  18.608  0.0456 -0.0134 -0.1532
69879POPC   NC330519  27.713   5.804  15.784 -0.0207  0.4472  0.1794
69879POPC   PO430520  27.417   5.709  15.545 -0.0693  0.1128 -0.0367
69879POPC   GL130521  27.731   5.741  15.283 -0.0849  0.0450  0.1863
69879POPC   GL230522  27.800   5.470  15.359  0.2021 -0.1580 -0.0405
69879POPC   C1A30523  28.138   5.912  15.457 -0.3560  0.0707 -0.1597
69879POPC   D2A30524  28.616   6.050  15.395 -0.0044  0.1059  0.1085
69879POPC   C3A30525  28.842   5.700  15.125  0.1431  0.0509 -0.1733
69879POPC   C4A30526  29.032   5.283  15.210 -0.4511  0.1361  0.0642
69879POPC   C1B30527  28.187   5.268  15.326  0.0057 -0.1067 -0.1881
69879POPC   C2B30528  28.593   5.211  15.516 -0.0011 -0.3844  0.2372
69879POPC   C3B30529  28.952   5.200  15.774  0.0924  0.0019 -0.1851
69879POPC   C4B30530  29.300   5.319  15.637 -0.1060 -0.1040 -0.0280
69880POPC   NC330531  20.505  10.298  20.339  0.1057  0.0499 -0.0164
69880POPC   PO430532  20.191  10.108  20.471 -0.0725  0.0774  0.0525
69880POPC   GL130533  20.204   9.918  20.106  0.3681  0.0373  0.0789
69880POPC   GL230534  20.241  10.164  19.951  0.2453 -0.2044 -0.1783
69880POPC   C1A30535  20.152   9.574  19.779 -0.1967  0.1682  0.1682
69880POPC   D2A30536  20.089   9.407  19.346 -0.1617 -0.3148 -0.1923
69880POPC   C3A30537  19.974   9.744  18.978  0.0385 -0.3851  0.1691
69880POPC   C4A30538  19.638  10.110  18.896  0.3367 -0.0608  0.1541
69880POPC   C1B30539  20.613  10.318  19.729 -0.1877  0.0044  0.0805
69880POPC   C2B30540  20.964  10.404  19.504  0.1410  0.1744 -0.0196
69880POPC   C3B30541  21.018  10.721  19.176 -0.1936 -0.0686  0.1549
69880POPC   C4B30542  21.244  10.807  18.761  0.0903  0.0963 -0.0994
69881POPC   NC330543  30.633   1.858  20.243 -0.1820 -0.1916  0.0754
69881POPC   PO430544  30.840   1.580  20.077 -0.2552 -0.2913  0.2968
69881POPC   GL130545  30.835   1.564  19.760 -0.1535 -0.2797  0.0573
69881POPC   GL230546  30.932   1.345  19.607 -0.0432  0.1413 -0.3091
69881POPC   C1A30547  30.987   1.816  19.363  0.2150 -0.0080 -0.0777
69881POPC   D2A30548  31.226   1.859  19.001  0.0459  0.0631 -0.0189
69881POPC   C3A30549  31.252   2.033  18.551  0.1564  0.1389 -0.0304
69881POPC   C4A30550  31.387   2.312  18.139  0.0929  0.0642 -0.0510
69881POPC   C1B30551  30.681   1.026  19.323 -0.0326  0.0641  0.0911
69881POPC   C2B30552  30.619   0.875  18.957 -0.2084  0.0621  0.4359
69881POPC   C3B30553  30.461   0.694  18.616 -0.1759  0.3897 -0.3361
69881POPC   C4B30554  30.339   0.826  18.174 -0.1247 -0.2006  0.3060
69882POPC   NC330555  18.349   7.784  20.314 -0.0682 -0.3323 -0.1623
69882POPC   PO430556  18.180   8.141  20.311 -0.0588 -0.1568 -0.1123
69882POPC   GL130557  18.336   8.157  19.989 -0.2749 -0.2076 -0.1020
69882POPC   GL230558  18.232   7.981  19.779 -0.0348 -0.1347  0.1410
69882POPC   C1A30559  18.282   8.443  19.630 -0.2643 -0.2520  0.1064
69882POPC   D2A30560  18.523   8.666  19.331 -0.0324 -0.2323 -0.1153
69882POPC   C3A30561  18.267   9.027  19.146 -0.1183 -0.1409 -0.3002
69882POPC   C4A30562  18.515   9.383  19.001  0.1042  0.1151  0.1022
69882POPC   C1B30563  18.192   7.943  19.313 -0.1633 -0.0698  0.2648
69882POPC   C2B30564  18.146   8.034  18.904  0.0189  0.0037  0.0439
69882POPC   C3B30565  18.074   8.021  18.464  0.2961  0.1042 -0.0124
69882POPC   C4B30566  17.888   8.148  18.050  0.2679  0.0583 -0.3644
69883POPC   NC330567  26.684   5.995  11.829  0.0407  0.0404 -0.1773
69883POPC   PO430568  26.971   6.121  11.667  0.0328 -0.1143  0.1349
69883POPC   GL130569  27.210   6.423  11.763  0.0965 -0.1768 -0.0408
69883POPC   GL230570  27.417   6.308  11.578 -0.0030  0.0538 -0.0033
69883POPC   C1A30571  27.543   6.464  12.066 -0.1625 -0.0829 -0.1188
69883POPC   D2A30572  27.832   6.504  12.409  0.2048  0.1262 -0.1018
69883POPC   C3A30573  27.828   6.880  12.618  0.2244 -0.1739 -0.0535
69883POPC   C4A30574  27.844   7.312  12.356 -0.1361 -0.2211 -0.0469
69883POPC   C1B30575  27.861   6.487  11.589  0.2211  0.0178 -0.0123
69883POPC   C2B30576  28.253   6.834  11.490 -0.0579 -0.0261  0.1678
69883POPC   C3B30577  28.346   7.237  11.254 -0.2227  0.1250 -0.2103
69883POPC   C4B30578  28.405   7.690  11.033  0.2164  0.2662  0.2288
69884POPC   NC330579  26.831   4.808  13.015  0.0812 -0.1097 -0.0456
69884POPC   PO430580  26.652   4.618  13.286 -0.0124  0.1344  0.2397
69884POPC   GL130581  27.006   4.409  13.195  0.3384 -0.2559  0.2649
69884POPC   GL230582  27.247   4.501  13.156  0.0939 -0.0915  0.2496
69884POPC   C1A30583  27.317   4.044  13.356 -0.2738 -0.1153  0.0420
69884POPC   D2A30584  27.768   3.932  13.526 -0.0444 -0.0257  0.2160
69884POPC   C3A30585  28.263   3.994  13.473  0.4693  0.4493  0.2444
69884POPC   C4A30586  28.371   4.425  13.349 -0.2853 -0.2106  0.1189
69884POPC   C1B30587  27.523   4.203  12.953  0.0614 -0.6198 -0.2239
69884POPC   C2B30588  27.760   4.125  12.591  0.1036  0.2058  0.3925
69884POPC   C3B30589  28.018   4.005  12.240  0.0791 -0.3995 -0.0613
69884POPC   C4B30590  28.275   4.098  11.877 -0.0002  0.1400  0.3835
69885POPC   NC330591  32.049   4.604  19.543  0.0691  0.4799 -0.0641
69885POPC   PO430592  31.649   4.727  19.477 -0.3164 -0.1871 -0.2488
69885POPC   GL130593  31.773   4.568  19.163  0.1097 -0.0705  0.1255
69885POPC   GL230594  31.837   4.308  19.183 -0.0663  0.5544  0.1025
69885POPC   C1A30595  32.194   4.582  19.006 -0.0022  0.3279 -0.0300
69885POPC   D2A30596  32.515   4.601  18.650 -0.2751  0.0749  0.0886
69885POPC   C3A30597  32.269   4.791  18.251  0.0989  0.0289 -0.0536
69885POPC   C4A30598  32.110   4.975  17.830 -0.1367  0.1263 -0.1361
69885POPC   C1B30599  31.858   4.349  18.713 -0.1669  0.1031  0.0801
69885POPC   C2B30600  31.818   4.219  18.258 -0.0332 -0.0824 -0.0873
69885POPC   C3B30601  31.922   3.894  17.913 -0.2445  0.0185 -0.1970
69885POPC   C4B30602  31.969   3.479  17.656 -0.0238  0.2066 -0.3441
69886POPC   NC330603  21.013   2.629  19.145  0.1680 -0.3591 -0.1265
69886POPC   PO430604  20.668   2.670  19.425 -0.0509 -0.0308 -0.0929
69886POPC   GL130605  20.710   2.314  19.293 -0.1177  0.2756  0.0747
69886POPC   GL230606  20.905   2.161  19.315  0.1715 -0.1376 -0.1480
69886POPC   C1A30607  20.367   2.159  19.023  0.0980  0.4250 -0.3174
69886POPC   D2A30608  20.159   1.824  18.807 -0.1047 -0.1442  0.0884
69886POPC   C3A30609  19.981   1.575  18.432  0.2373  0.0331 -0.1299
69886POPC   C4A30610  20.075   1.278  18.085 -0.0888  0.1559 -0.0127
69886POPC   C1B30611  20.891   2.152  18.790  0.0434 -0.0442 -0.0564
69886POPC   C2B30612  20.828   2.336  18.359 -0.1510  0.0854  0.0925
69886POPC   C3B30613  20.599   2.100  17.993 -0.1549 -0.0509 -0.1326
69886POPC   C4B30614  20.390   2.226  17.555  0.5141 -0.4342 -0.2000
69887POPC   NC330615  24.331   2.586  17.724 -0.1845  0.0531 -0.0157
69887POPC   PO430616  24.037   2.396  17.891  0.1507 -0.2327  0.1665
69887POPC   GL130617  23.803   2.177  17.712  0.3443 -0.0427  0.3132
69887POPC   GL230618  23.473   2.214  17.725  0.2856  0.2479  0.1246
69887POPC   C1A30619  23.680   2.149  17.249  0.0133  0.2306 -0.0035
69887POPC   D2A30620  23.514   2.376  17.017 -0.0996 -0.1697  0.2715
69887POPC   C3A30621  23.645   2.270  16.556  0.3286 -0.2026 -0.4772
69887POPC   C4A30622  23.661   1.990  16.187  0.3253 -0.2622 -0.1208
69887POPC   C1B30623  23.207   2.146  17.354  0.2399  0.0361  0.3205
69887POPC   C2B30624  22.979   2.422  17.093  0.0874  0.1452 -0.1545
69887POPC   C3B30625  22.881   2.805  16.854 -0.2747 -0.1780  0.0525
69887POPC   C4B30626  22.930   3.071  16.468  0.0391 -0.0565  0.2415
69888POPC   NC330627  25.935   2.983  16.401  0.1520 -0.0147  0.1382
69888POPC   PO430628  25.880   3.215  16.066 -0.0774 -0.0064  0.0341
69888POPC   GL130629  25.932   2.885  15.886 -0.3130  0.1976  0.2117
69888POPC   GL230630  26.232   2.838  15.958 -0.0926 -0.1364 -0.0873
69888POPC   C1A30631  25.754   2.546  15.619  0.3121  0.2509  0.1249
69888POPC   D2A30632  25.368   2.663  15.297 -0.0777 -0.0663  0.1685
69888POPC   C3A30633  24.979   2.597  15.513 -0.3085 -0.0378  0.4241
69888POPC   C4A30634  24.587   2.682  15.329  0.0440 -0.1651  0.0906
69888POPC   C1B30635  26.237   2.531  15.665 -0.1887  0.1657  0.0249
69888POPC   C2B30636  26.150   2.170  15.401  0.4747  0.1179  0.0533
69888POPC   C3B30637  26.096   1.845  15.110 -0.1660  0.0762  0.0405
69888POPC   C4B30638  25.806   1.730  14.772 -0.1294  0.0108 -0.1856
69889POPC   NC330639  20.333   4.785  18.987 -0.0898  0.0207  0.0078
69889POPC   PO430640  20.559   5.110  19.040  0.4180 -0.0601  0.1732
69889POPC   GL130641  20.413   5.208  18.747 -0.1419 -0.2586  0.3178
69889POPC   GL230642  20.555   5.325  18.509 -0.0797 -0.0615 -0.0163
69889POPC   C1A30643  20.166   5.554  18.565 -0.1669 -0.3389 -0.0596
69889POPC   D2A30644  19.801   5.451  18.337 -0.1738 -0.2493 -0.0341
69889POPC   C3A30645  19.956   5.721  18.010  0.3365 -0.1667  0.0112
69889POPC   C4A30646  20.144   5.834  17.619 -0.0745  0.0953 -0.4402
69889POPC   C1B30647  20.756   5.269  18.121  0.4622 -0.3350  0.1427
69889POPC   C2B30648  20.693   4.972  17.755  0.3113 -0.1742 -0.2290
69889POPC   C3B30649  20.568   4.931  17.277 -0.0875 -0.2835  0.2588
69889POPC   C4B30650  20.583   5.147  16.905 -0.1346 -0.0326  0.0516
69890POPC   NC330651  17.942   8.669  20.355 -0.5619  0.0276  0.0668
69890POPC   PO430652  18.053   9.024  20.285  0.1890 -0.4202 -0.2059
69890POPC   GL130653  18.075   8.883  19.894  0.3075 -0.4223 -0.1108
69890POPC   GL230654  18.335   8.941  19.726 -0.2424  0.4019  0.3125
69890POPC   C1A30655  17.911   8.824  19.431 -0.0429  0.0053  0.1145
69890POPC   D2A30656  18.069   8.525  19.133 -0.0778 -0.2160 -0.0940
69890POPC   C3A30657  18.189   8.530  18.723 -0.2213  0.1475  0.1652
69890POPC   C4A30658  17.935   8.580  18.332  0.0235  0.2445 -0.1609
69890POPC   C1B30659  18.079   9.313  19.574 -0.2111  0.0848  0.2064
69890POPC   C2B30660  18.064   9.473  19.127 -0.3620 -0.2471  0.0094
69890POPC   C3B30661  18.068   9.483  18.643 -0.1214 -0.2939  0.0611
69890POPC   C4B30662  17.972   9.669  18.239  0.3115 -0.1362  0.2049
69891POPC   NC330663  25.555   4.378  13.742  0.3170 -0.2572  0.0995
69891POPC   PO430664  25.195   4.311  13.887 -0.0329  0.0182 -0.5055
69891POPC   GL130665  25.167   4.116  13.592 -0.1134  0.1577  0.0745
69891POPC   GL230666  25.328   3.985  13.460 -0.2270  0.0747 -0.0550
69891POPC   C1A30667  24.719   4.039  13.379  0.2261 -0.5798  0.0672
69891POPC   D2A30668  24.412   3.699  13.239  0.3835 -0.0463 -0.1585
69891POPC   C3A30669  23.974   3.829  13.340  0.0124 -0.4773  0.0443
69891POPC   C4A30670  23.690   3.836  13.757 -0.5195  0.0753  0.4439
69891POPC   C1B30671  25.104   3.963  13.061 -0.2139 -0.3767 -0.2135
69891POPC   C2B30672  25.012   3.803  12.638  0.0931  0.2089 -0.0475
69891POPC   C3B30673  24.881   3.540  12.268 -0.0177 -0.0122  0.1123
69891POPC   C4B30674  24.973   3.114  12.274 -0.1288  0.0191  0.0754
69892POPC   NC330675  25.085  14.012  20.479 -0.0202 -0.0279  0.1608
69892POPC   PO430676  25.341  13.717  20.512 -0.2730 -0.0262 -0.0918
69892POPC   GL130677  25.250  13.701  20.152  0.3424 -0.2866  0.0818
69892POPC   GL230678  25.505  13.830  20.034 -0.2776 -0.0422  0.1724
69892POPC   C1A30679  25.272  13.396  19.813  0.0885 -0.2212  0.0025
69892POPC   D2A30680  25.049  13.028  19.613  0.1911 -0.4727 -0.0753
69892POPC   C3A30681  25.153  12.789  19.205  0.0813  0.1261  0.0368
69892POPC   C4A30682  25.287  12.957  18.805 -0.0715  0.1169 -0.0234
69892POPC   C1B30683  25.599  13.813  19.527  0.0560 -0.1307  0.2462
69892POPC   C2B30684  25.319  13.560  19.265  0.0167  0.1091  0.2318
69892POPC   C3B30685  25.282  13.582  18.826 -0.0912  0.1151  0.0947
69892POPC   C4B30686  25.413  13.744  18.369 -0.2658 -0.1200  0.2349
69893POPC   NC330687  22.695   6.714  18.883 -0.1169 -0.3243 -0.2780
69893POPC   PO430688  22.338   6.824  18.768 -0.0884  0.0590  0.2593
69893POPC   GL130689  22.258   6.712  18.362  0.1760  0.0478  0.1657
69893POPC   GL230690  22.010   6.626  18.414 -0.1037 -0.1461  0.2852
69893POPC   C1A30691  22.418   6.921  17.944 -0.2591  0.1098 -0.0863
69893POPC   D2A30692  22.746   7.021  17.699  0.1629  0.1448  0.1103
69893POPC   C3A30693  22.689   7.235  17.306 -0.1215  0.0274  0.1501
69893POPC   C4A30694  22.595   7.607  17.019 -0.3131  0.0534  0.2783
69893POPC   C1B30695  21.542   6.755  18.371  0.2842 -0.0783  0.1633
69893POPC   C2B30696  21.060   6.844  18.340 -0.2123  0.0282  0.2548
69893POPC   C3B30697  20.808   7.111  18.091  0.2035  0.1077 -0.1805
69893POPC   C4B30698  20.712   7.365  17.633 -0.6299  0.0411 -0.0055
69894POPC   NC330699  28.037  15.268  20.060 -0.3728  0.1256  0.0486
69894POPC   PO430700  27.755  14.988  19.970 -0.2680  0.0343  0.1045
69894POPC   GL130701  28.015  14.908  19.745 -0.0856  0.2158  0.0696
69894POPC   GL230702  28.035  15.104  19.545  0.3028  0.2000  0.0916
69894POPC   C1A30703  27.934  14.573  19.431 -0.0695 -0.2308  0.0641
69894POPC   D2A30704  27.648  14.173  19.497  0.2102 -0.1109 -0.0424
69894POPC   C3A30705  27.575  13.845  19.154  0.0940 -0.3668  0.3671
69894POPC   C4A30706  27.724  13.915  18.705 -0.2493 -0.2162 -0.0321
69894POPC   C1B30707  28.029  14.936  19.116  0.2313 -0.0416 -0.0724
69894POPC   C2B30708  28.010  14.725  18.707  0.2626 -0.2339  0.2171
69894POPC   C3B30709  27.996  14.868  18.265  0.0750 -0.1808 -0.0798
69894POPC   C4B30710  28.048  14.929  17.846 -0.0072 -0.0380  0.2806
69895POPC   NC330711  25.231   7.984  18.813  0.1070 -0.2729 -0.1095
69895POPC   PO430712  25.374   7.821  18.494 -0.3005 -0.2973  0.4152
69895POPC   GL130713  25.657   8.109  18.586 -0.1602  0.0280 -0.3839
69895POPC   GL230714  25.462   8.303  18.482  0.0624  0.3010  0.0956
69895POPC   C1A30715  25.861   8.461  18.320  0.1221  0.1108  0.4322
69895POPC   D2A30716  25.882   8.960  18.290 -0.1521  0.0798  0.5004
69895POPC   C3A30717  25.801   9.329  18.004 -0.0371 -0.1530 -0.0877
69895POPC   C4A30718  25.730   9.418  17.555 -0.1830  0.2447 -0.2003
69895POPC   C1B30719  25.453   8.423  18.086  0.0537 -0.0233  0.0543
69895POPC   C2B30720  25.541   8.673  17.696  0.3014  0.2791 -0.0487
69895POPC   C3B30721  25.550   8.633  17.191  0.0336 -0.4477 -0.0928
69895POPC   C4B30722  25.705   8.410  16.824  0.0757  0.1853  0.1864
69896POPC   NC330723  29.648   4.115  18.975  0.0060 -0.0250  0.3065
69896POPC   PO430724  30.061   4.048  19.053  0.1934 -0.0671  0.0870
69896POPC   GL130725  29.920   3.970  18.623 -0.3854 -0.2371  0.0300
69896POPC   GL230726  29.718   3.782  18.568 -0.0342  0.0637 -0.1738
69896POPC   C1A30727  30.263   3.848  18.287  0.1654  0.1823 -0.0698
69896POPC   D2A30728  30.448   4.160  17.978  0.3026 -0.3415 -0.0528
69896POPC   C3A30729  30.580   4.580  17.894 -0.2111  0.3676 -0.2357
69896POPC   C4A30730  30.825   4.874  17.659 -0.0756  0.4388  0.0282
69896POPC   C1B30731  29.802   3.647  18.161  0.2015 -0.1774 -0.0980
69896POPC   C2B30732  29.947   3.847  17.751 -0.0918  0.0149 -0.1285
69896POPC   C3B30733  30.276   4.019  17.508  0.0698 -0.1022  0.1328
69896POPC   C4B30734  30.435   3.938  17.121 -0.3273 -0.4369  0.1588
69897POPC   NC330735  20.142  13.576  20.847  0.2601 -0.3693 -0.0059
69897POPC   PO430736  19.840  13.793  20.778 -0.0182 -0.1724  0.1098
69897POPC   GL130737  19.815  13.723  20.453  0.1191  0.2750 -0.0527
69897POPC   GL230738  20.098  13.613  20.369 -0.1594  0.5553 -0.1071
69897POPC   C1A30739  19.795  13.879  20.021  0.0826 -0.3745 -0.1924
69897POPC   D2A30740  19.920  13.849  19.604  0.0265 -0.2431 -0.2242
69897POPC   C3A30741  19.626  13.602  19.354  0.1130  0.1251 -0.2680
69897POPC   C4A30742  19.684  13.355  18.989  0.1986 -0.2888  0.0092
69897POPC   C1B30743  20.147  13.202  20.147  0.1842  0.0180  0.0988
69897POPC   C2B30744  20.312  13.194  19.719 -0.0807  0.0321  0.3249
69897POPC   C3B30745  20.486  13.161  19.265  0.0583 -0.0013  0.1609
69897POPC   C4B30746  20.562  13.299  18.852  0.0324 -0.1773 -0.0354
69898POPC   NC330747  21.520  16.049  20.062 -0.0857  0.2714  0.0779
69898POPC   PO430748  21.197  15.996  20.294  0.0688  0.1051 -0.0585
69898POPC   GL130749  21.001  15.913  19.984  0.2774 -0.2685 -0.2451
69898POPC   GL230750  20.709  16.005  19.983  0.1203 -0.0342 -0.1116
69898POPC   C1A30751  21.155  16.105  19.645  0.0254  0.1789  0.1045
69898POPC   D2A30752  21.425  15.904  19.355 -0.2180 -0.1559  0.1163
69898POPC   C3A30753  21.413  15.810  18.937  0.1783  0.1692  0.0441
69898POPC   C4A30754  21.443  15.432  18.652  0.0393 -0.0380 -0.0121
69898POPC   C1B30755  20.754  15.838  19.563  0.1302 -0.1223  0.0773
69898POPC   C2B30756  20.974  15.678  19.191  0.0036 -0.1140  0.2988
69898POPC   C3B30757  21.044  15.306  18.965 -0.0421 -0.1582 -0.2120
69898POPC   C4B30758  20.821  15.163  18.622 -0.0368 -0.3383 -0.1523
69899POPC   NC330759  23.240   0.399  19.713  0.1379 -0.3700 -0.0490
69899POPC   PO430760  23.543   0.613  19.540 -0.2069  0.1783  0.1432
69899POPC   GL130761  23.394   0.573  19.167  0.5314  0.1751  0.2201
69899POPC   GL230762  23.147   0.458  19.016 -0.1441 -0.1184 -0.2650
69899POPC   C1A30763  23.621   0.368  18.781  0.1732  0.0176 -0.0591
69899POPC   D2A30764  23.837   0.108  18.469 -0.0855 -0.1596 -0.0355
69899POPC   C3A30765  23.751  -0.148  18.085 -0.2492 -0.1012  0.3149
69899POPC   C4A30766  23.567  -0.276  17.701 -0.2041 -0.2397  0.0843
69899POPC   C1B30767  22.827   0.450  18.673  0.0294 -0.3202 -0.1081
69899POPC   C2B30768  22.508   0.669  18.427  0.0540  0.0805 -0.0333
69899POPC   C3B30769  22.488   0.709  17.946  0.0651  0.0857  0.0378
69899POPC   C4B30770  22.131   0.502  17.680 -0.1626 -0.2307 -0.0394
69900POPC   NC330771  26.163  12.036  20.368  0.4226 -0.2659  0.0257
69900POPC   PO430772  26.161  11.673  20.489  0.0384  0.1646 -0.1449
69900POPC   GL130773  26.304  11.544  20.038  0.0226 -0.1767 -0.1126
69900POPC   GL230774  26.237  11.778  19.922  0.3430  0.1008 -0.2579
69900POPC   C1A30775  26.513  11.291  19.703  0.3591 -0.0308  0.0181
69900POPC   D2A30776  26.617  11.100  19.279  0.0397 -0.1164  0.1335
69900POPC   C3A30777  27.084  10.994  19.300  0.0965  0.2296 -0.2778
69900POPC   C4A30778  27.486  10.841  19.106 -0.0341  0.3214 -0.0739
69900POPC   C1B30779  26.453  11.836  19.564 -0.0162 -0.0770  0.0870
69900POPC   C2B30780  26.475  11.937  19.173 -0.0047 -0.3072  0.0807
69900POPC   C3B30781  26.384  12.107  18.746  0.1800  0.1342  0.0746
69900POPC   C4B30782  26.253  12.380  18.433 -0.1105 -0.4440  0.0698
69901POPC   NC330783  26.087   6.957  16.830 -0.0635  0.1286  0.2446
69901POPC   PO430784  25.779   7.219  16.904  0.0937  0.1717 -0.1367
69901POPC   GL130785  25.907   7.526  16.714 -0.0210 -0.1282  0.0016
69901POPC   GL230786  25.839   7.440  16.398  0.1723 -0.2254 -0.2560
69901POPC   C1A30787  26.042   7.935  16.643  0.2329 -0.4335  0.2002
69901POPC   D2A30788  26.044   8.348  16.473  0.0695 -0.0862 -0.1202
69901POPC   C3A30789  26.344   8.211  16.131  0.3243 -0.0076 -0.0412
69901POPC   C4A30790  26.782   8.057  16.163  0.1202 -0.5977 -0.3092
69901POPC   C1B30791  25.489   7.667  16.240 -0.0324  0.0137 -0.4457
69901POPC   C2B30792  25.266   7.963  15.912  0.0118 -0.0890 -0.1679
69901POPC   C3B30793  25.144   8.440  15.764 -0.0852  0.0614  0.0232
69901POPC   C4B30794  25.262   8.864  15.803  0.0045  0.2245 -0.1888
69902POPC   NC330795  29.378   0.916  20.055 -0.0506  0.1186  0.1034
69902POPC   PO430796  29.099   0.699  19.885 -0.0374 -0.0162 -0.2068
69902POPC   GL130797  29.360   0.607  19.581 -0.2725  0.1383 -0.0726
69902POPC   GL230798  29.145   0.501  19.443  0.1527  0.0356 -0.1952
69902POPC   C1A30799  29.640   0.366  19.294 -0.1110  0.1892  0.3634
69902POPC   D2A30800  29.655   0.019  18.945 -0.1216 -0.1873 -0.1986
69902POPC   C3A30801  29.390  -0.068  18.576 -0.1709 -0.2090  0.2623
69902POPC   C4A30802  29.349  -0.377  18.320 -0.0268  0.1354  0.0467
69902POPC   C1B30803  28.804   0.607  19.149 -0.1015 -0.1269  0.2650
69902POPC   C2B30804  28.401   0.584  19.000  0.0162 -0.1087  0.3530
69902POPC   C3B30805  27.915   0.683  19.040 -0.3244  0.1341  0.1141
69902POPC   C4B30806  27.442   0.608  18.981 -0.1649 -0.2382 -0.2231
69903POPC   NC330807  27.045   3.181  18.229 -0.1524  0.0390 -0.1645
69903POPC   PO430808  27.249   2.810  18.212 -0.1499  0.1436  0.2373
69903POPC   GL130809  27.191   2.560  17.857  0.1790  0.1285  0.0499
69903POPC   GL230810  27.032   2.278  17.814 -0.2012 -0.0908 -0.0649
69903POPC   C1A30811  27.597   2.383  17.694 -0.0128  0.2808  0.0131
69903POPC   D2A30812  27.967   2.139  17.882  0.0884  0.1161  0.0827
69903POPC   C3A30813  28.331   2.163  17.634  0.0197 -0.0643 -0.0023
69903POPC   C4A30814  28.643   1.900  17.389  0.2784 -0.0511  0.1938
69903POPC   C1B30815  27.241   2.051  17.419  0.0402 -0.0165 -0.1618
69903POPC   C2B30816  27.498   1.833  17.118 -0.2948 -0.0662  0.1264
69903POPC   C3B30817  27.653   1.478  16.795  0.0654 -0.0406 -0.0284
69903POPC   C4B30818  27.929   1.126  16.770  0.3640  0.2113 -0.5954
69904POPC   NC330819  31.151   4.389  19.331  0.2734  0.2339  0.3691
69904POPC   PO430820  31.464   4.265  19.518  0.0468 -0.0579  0.1658
69904POPC   GL130821  31.461   3.899  19.241  0.1457 -0.0351 -0.0592
69904POPC   GL230822  31.237   3.959  19.030  0.0981 -0.2599 -0.5005
69904POPC   C1A30823  31.775   3.863  18.892  0.1645 -0.2320  0.0596
69904POPC   D2A30824  31.677   3.786  18.432  0.0308  0.3231 -0.2372
69904POPC   C3A30825  31.483   3.635  18.047  0.1323  0.1300  0.3341
69904POPC   C4A30826  31.454   3.465  17.591  0.1011  0.0866 -0.1088
69904POPC   C1B30827  31.191   3.735  18.633  0.3146 -0.2083 -0.3134
69904POPC   C2B30828  31.054   3.641  18.224 -0.3279 -0.1839  0.1180
69904POPC   C3B30829  31.066   3.806  17.819 -0.1169  0.0798  0.0381
69904POPC   C4B30830  31.063   3.678  17.330  0.1729 -0.2599  0.1407
69905POPC   NC330831  25.380   1.892  18.188  0.0046  0.1200 -0.1740
69905POPC   PO430832  25.015   1.908  18.062  0.0506  0.2803 -0.1299
69905POPC   GL130833  25.258   1.619  17.800 -0.0045 -0.0425 -0.2208
69905POPC   GL230834  25.544   1.546  17.735  0.0414 -0.1466  0.1010
69905POPC   C1A30835  25.059   1.332  17.481  0.0154 -0.1650  0.0582
69905POPC   D2A30836  24.875   1.050  17.144  0.2408  0.3010 -0.1613
69905POPC   C3A30837  24.633   0.774  16.844 -0.2135  0.3773  0.0136
69905POPC   C4A30838  24.681   0.730  16.417 -0.2493 -0.3074  0.0486
69905POPC   C1B30839  25.512   1.465  17.283 -0.1646 -0.1502  0.2082
69905POPC   C2B30840  25.749   1.282  16.905 -0.0506 -0.0751  0.0823
69905POPC   C3B30841  25.600   1.194  16.468 -0.0525 -0.2453  0.0859
69905POPC   C4B30842  25.369   0.880  16.241  0.1611  0.1602 -0.3015
69906POPC   NC330843  16.629   4.855  19.984  0.1745 -0.4003  0.1811
69906POPC   PO430844  16.959   4.647  19.867 -0.1866 -0.3202 -0.0440
69906POPC   GL130845  16.900   4.763  19.458 -0.0578 -0.1452  0.1623
69906POPC   GL230846  16.835   4.990  19.446  0.2308  0.0667  0.1629
69906POPC   C1A30847  16.717   4.583  19.084 -0.0763 -0.1391  0.1344
69906POPC   D2A30848  16.553   4.424  18.659  0.1504  0.1428  0.0026
69906POPC   C3A30849  16.406   4.832  18.466 -0.0413 -0.0471  0.1291
69906POPC   C4A30850  16.631   5.244  18.388  0.0952 -0.1338 -0.0576
69906POPC   C1B30851  16.956   5.061  19.025 -0.0236 -0.0252  0.1333
69906POPC   C2B30852  17.128   5.373  18.682 -0.0712 -0.3845  0.2489
69906POPC   C3B30853  17.206   5.623  18.306 -0.2445  0.1228 -0.3286
69906POPC   C4B30854  17.434   6.064  18.153  0.2497 -0.3525  0.0707
69907POPC   NC330855  17.953  10.831  20.642  0.1759  0.0127  0.1449
69907POPC   PO430856  18.186  10.782  20.342  0.0745  0.2359  0.3716
69907POPC   GL130857  18.166  10.652  19.944 -0.0190  0.3023 -0.0116
69907POPC   GL230858  18.289  10.348  20.002  0.1242 -0.0830 -0.0898
69907POPC   C1A30859  18.111  10.813  19.513 -0.2785 -0.0313 -0.1366
69907POPC   D2A30860  17.913  10.765  19.083  0.0533 -0.1426 -0.0795
69907POPC   C3A30861  17.542  10.939  18.828  0.1232  0.2090 -0.3127
69907POPC   C4A30862  17.375  11.298  18.526  0.0558  0.0192  0.0506
69907POPC   C1B30863  17.994  10.309  19.654  0.2547 -0.3725 -0.3415
69907POPC   C2B30864  18.058  10.329  19.226  0.2773  0.1508  0.3367
69907POPC   C3B30865  18.320  10.248  18.862  0.0638 -0.2774  0.2256
69907POPC   C4B30866  18.694  10.260  18.553 -0.0415  0.2160 -0.3621
69908POPC   NC330867  22.403   0.717  19.930 -0.1837 -0.1348 -0.0444
69908POPC   PO430868  22.369   0.935  19.539 -0.3209  0.4072 -0.2639
69908POPC   GL130869  22.270   0.719  19.197 -0.2163 -0.0719  0.0598
69908POPC   GL230870  21.965   0.605  19.200  0.0696 -0.0519 -0.0993
69908POPC   C1A30871  22.264   0.443  18.807  0.0995 -0.1452  0.1479
69908POPC   D2A30872  22.444   0.162  18.484 -0.2127 -0.0155  0.2365
69908POPC   C3A30873  22.285   0.153  18.051  0.0993 -0.0538 -0.1014
69908POPC   C4A30874  22.464  -0.045  17.710 -0.0001 -0.0964  0.1029
69908POPC   C1B30875  21.764   0.321  18.910  0.3169  0.0297  0.1140
69908POPC   C2B30876  21.873   0.417  18.469  0.0379 -0.4185  0.5345
69908POPC   C3B30877  21.824   0.285  18.021  0.0198 -0.2029 -0.1469
69908POPC   C4B30878  21.935  -0.033  17.766  0.0693  0.0898  0.2735
69909POPC   NC330879  26.949  15.214  20.100  0.1032  0.0540 -0.2140
69909POPC   PO430880  26.792  15.421  19.839  0.0457  0.0404 -0.0072
69909POPC   GL130881  26.899  15.320  19.455 -0.3722  0.3972 -0.4511
69909POPC   GL230882  27.006  15.573  19.206  0.0492  0.0977 -0.0965
69909POPC   C1A30883  27.181  15.022  19.246  0.2313  0.1382 -0.1326
69909POPC   D2A30884  27.417  14.957  18.902 -0.0390  0.1723  0.0950
69909POPC   C3A30885  27.617  15.226  18.538  0.1420 -0.3416 -0.0747
69909POPC   C4A30886  27.776  15.324  18.113 -0.0812  0.0252 -0.2952
69909POPC   C1B30887  26.873  15.316  18.895  0.0287  0.1601 -0.0407
69909POPC   C2B30888  26.966  14.949  18.615 -0.1302  0.1208 -0.1024
69909POPC   C3B30889  27.353  14.724  18.401  0.1553  0.2378 -0.0389
69909POPC   C4B30890  27.654  14.507  18.160 -0.0851  0.4182  0.1584
69910POPC   NC330891  24.694   5.041  13.917 -0.0544 -0.3053  0.0314
69910POPC   PO430892  24.925   5.034  13.574  0.1735  0.2567  0.2487
69910POPC   GL130893  24.648   4.841  13.398  0.1101 -0.1084 -0.0085
69910POPC   GL230894  24.419   5.071  13.396  0.2069  0.1422 -0.1350
69910POPC   C1A30895  24.423   4.443  13.336 -0.0732  0.1834  0.1066
69910POPC   D2A30896  24.135   4.175  13.623  0.1083  0.2407  0.0307
69910POPC   C3A30897  23.893   4.235  13.967 -0.1970 -0.1775 -0.1712
69910POPC   C4A30898  23.706   4.571  14.260  0.0072  0.2225  0.1048
69910POPC   C1B30899  24.337   5.329  13.083  0.3457 -0.2775 -0.1477
69910POPC   C2B30900  24.057   5.212  12.732  0.0732  0.2955 -0.1186
69910POPC   C3B30901  23.729   5.120  12.402 -0.2348  0.0392 -0.1414
69910POPC   C4B30902  23.494   5.172  12.017 -0.0763 -0.0288  0.0519
69911POPC   NC330903  26.638   2.356  18.121 -0.0682  0.1963  0.3508
69911POPC   PO430904  26.533   2.311  17.715 -0.1179  0.1991  0.0141
69911POPC   GL130905  26.763   2.038  17.542  0.1741  0.0173 -0.3424
69911POPC   GL230906  26.725   2.097  17.263  0.0952 -0.0570 -0.4213
69911POPC   C1A30907  26.499   1.629  17.371 -0.2285  0.2452  0.3233
69911POPC   D2A30908  26.389   1.143  17.306  0.2452  0.0501 -0.1784
69911POPC   C3A30909  26.174   1.006  16.937 -0.1664 -0.5325  0.1242
69911POPC   C4A30910  26.025   0.913  16.508 -0.0796 -0.4412  0.2695
69911POPC   C1B30911  26.979   1.732  17.137 -0.2403  0.0197 -0.0669
69911POPC   C2B30912  27.120   1.477  16.798  0.0747  0.0425  0.1021
69911POPC   C3B30913  27.130   1.500  16.358 -0.1692 -0.1318  0.0452
69911POPC   C4B30914  27.155   1.360  15.879  0.0770 -0.1380 -0.1243
69912POPC   NC330915  28.817   2.446  19.038 -0.2054  0.1315 -0.0331
69912POPC   PO430916  28.905   2.071  18.870 -0.0247  0.0371 -0.2411
69912POPC   GL130917  29.165   2.029  18.575  0.4269 -0.0777 -0.0265
69912POPC   GL230918  29.404   1.764  18.635 -0.0251  0.3619 -0.0358
69912POPC   C1A30919  29.250   2.192  18.164  0.1312  0.0738  0.0122
69912POPC   D2A30920  29.501   2.390  17.841 -0.1793 -0.1625  0.1860
69912POPC   C3A30921  29.626   2.098  17.509 -0.0768 -0.0756 -0.0579
69912POPC   C4A30922  29.629   2.165  17.044 -0.1317 -0.1319  0.2123
69912POPC   C1B30923  29.720   2.022  18.374 -0.1450  0.1706  0.0669
69912POPC   C2B30924  29.891   2.380  18.144  0.1967  0.0898  0.0484
69912POPC   C3B30925  30.026   2.406  17.696  0.1984 -0.1220 -0.1477
69912POPC   C4B30926  30.251   2.658  17.359 -0.1469  0.0952  0.0016
69913POPC   NC330927   0.436  13.691  20.358 -0.0320 -0.0090 -0.1034
69913POPC   PO430928   0.082  13.837  20.305 -0.0686 -0.3096  0.3674
69913POPC   GL130929   0.011  13.957  19.924  0.5305 -0.4473  0.1295
69913POPC   GL230930   0.338  13.973  19.863  0.0287 -0.1805 -0.1177
69913POPC   C1A30931  -0.018  13.998  19.487 -0.1222 -0.0440 -0.0143
69913POPC   D2A30932  -0.137  13.678  19.157  0.1098  0.0304  0.1944
69913POPC   C3A30933  -0.439  13.783  18.815 -0.2079  0.0698  0.2628
69913POPC   C4A30934  -0.576  13.654  18.400  0.0206 -0.1255 -0.2724
69913POPC   C1B30935   0.403  13.794  19.469 -0.0471 -0.0047 -0.0500
69913POPC   C2B30936   0.528  13.922  19.066 -0.0933 -0.1799  0.1084
69913POPC   C3B30937   0.745  14.296  18.982 -0.0022 -0.0874 -0.0105
69913POPC   C4B30938   0.862  14.542  18.636  0.1074  0.2026  0.0662
69914POPC   NC330939  21.691  14.376  20.968 -0.0281  0.1320 -0.2045
69914POPC   PO430940  21.812  14.116  20.754  0.3907  0.0299 -0.2874
69914POPC   GL130941  21.481  13.941  20.513 -0.4482 -0.3971  0.0716
69914POPC   GL230942  21.537  14.140  20.297 -0.0363 -0.3575 -0.0757
69914POPC   C1A30943  21.471  13.688  20.059 -0.0984 -0.2111 -0.0348
69914POPC   D2A30944  21.513  13.523  19.635 -0.2476  0.1010 -0.1595
69914POPC   C3A30945  21.788  13.702  19.330 -0.1164  0.2565  0.0156
69914POPC   C4A30946  22.117  13.940  19.019 -0.0506  0.1315 -0.0860
69914POPC   C1B30947  21.152  14.081  20.113  0.0054 -0.2018  0.1086
69914POPC   C2B30948  21.118  13.940  19.730 -0.1790 -0.0286  0.4480
69914POPC   C3B30949  21.276  13.945  19.335 -0.1460  0.0009  0.2890
69914POPC   C4B30950  21.063  14.025  18.930 -0.0830  0.1185  0.0800
69915POPC   NC330951  26.523   4.258  15.539 -0.0753 -0.0427  0.1548
69915POPC   PO430952  26.199   3.982  15.598  0.0370 -0.2322 -0.1322
69915POPC   GL130953  26.292   3.555  15.570 -0.1844  0.1424  0.1227
69915POPC   GL230954  26.248   3.318  15.722  0.0107 -0.3186  0.2038
69915POPC   C1A30955  26.403   3.289  15.187 -0.2603  0.2043  0.0832
69915POPC   D2A30956  26.551   3.364  14.783  0.2526 -0.1391 -0.0622
69915POPC   C3A30957  26.797   3.012  14.785 -0.0825 -0.2181 -0.0697
69915POPC   C4A30958  26.855   2.611  14.996 -0.0444 -0.1666 -0.1301
69915POPC   C1B30959  26.522   2.952  15.624  0.1214 -0.1239 -0.2465
69915POPC   C2B30960  26.818   2.531  15.645 -0.1633 -0.1960  0.4494
69915POPC   C3B30961  27.133   2.411  15.361 -0.3663 -0.0940  0.3447
69915POPC   C4B30962  27.206   2.158  14.925  0.0163 -0.0205  0.0546
69916POPC   NC330963  25.980   3.751  15.220  0.2305  0.1435 -0.3278
69916POPC   PO430964  26.149   3.795  14.854 -0.0271  0.4480  0.3264
69916POPC   GL130965  25.949   3.412  14.804  0.2467  0.0055 -0.0099
69916POPC   GL230966  25.685   3.449  14.825 -0.2598  0.0330 -0.1216
69916POPC   C1A30967  26.151   3.032  14.843  0.0967 -0.1259  0.2311
69916POPC   D2A30968  26.389   2.700  14.660  0.2019  0.3363  0.2331
69916POPC   C3A30969  26.854   2.637  14.476  0.0679 -0.0782 -0.0937
69916POPC   C4A30970  27.187   2.337  14.445 -0.1477  0.0975  0.1576
69916POPC   C1B30971  25.707   3.047  14.560 -0.1610  0.0349  0.0499
69916POPC   C2B30972  25.992   2.750  14.335  0.2584 -0.2186 -0.2512
69916POPC   C3B30973  26.358   2.532  14.175 -0.0673 -0.0175  0.0699
69916POPC   C4B30974  26.591   2.167  14.396 -0.0560 -0.1151  0.0171
69917POPC   NC330975   0.069   7.797  19.854  0.0542 -0.0241 -0.3352
69917POPC   PO430976  -0.009   7.421  19.736 -0.0058 -0.2060  0.1202
69917POPC   GL130977   0.122   7.671  19.369  0.0814  0.2598  0.3832
69917POPC   GL230978   0.328   7.417  19.258  0.2220 -0.1749 -0.0721
69917POPC   C1A30979   0.245   8.041  19.073  0.1019  0.2281 -0.0342
69917POPC   D2A30980   0.644   8.232  19.075  0.0449 -0.0873 -0.2396
69917POPC   C3A30981   0.668   8.672  19.027  0.1173  0.2484 -0.1005
69917POPC   C4A30982   0.797   9.025  19.349 -0.2803 -0.0106  0.1709
69917POPC   C1B30983   0.163   7.487  18.809 -0.0365  0.0255  0.3343
69917POPC   C2B30984   0.307   7.552  18.414  0.0275  0.1941 -0.1566
69917POPC   C3B30985   0.200   7.242  18.023 -0.0166 -0.0578 -0.0594
69917POPC   C4B30986   0.261   6.777  18.049  0.0215 -0.0131 -0.0487
69918POPC   NC330987  27.561   4.006  17.075 -0.1910 -0.0365 -0.2375
69918POPC   PO430988  27.404   4.164  16.786  0.0690  0.3888  0.0998
69918POPC   GL130989  27.609   4.452  16.504 -0.0553 -0.2934 -0.0393
69918POPC   GL230990  27.688   4.286  16.278  0.4164  0.0408 -0.0664
69918POPC   C1A30991  27.906   4.718  16.236 -0.0572 -0.0948  0.1096
69918POPC   D2A30992  27.979   5.147  16.225  0.2411 -0.0264 -0.1903
69918POPC   C3A30993  28.360   5.083  16.093 -0.2456 -0.1493  0.0288
69918POPC   C4A30994  28.784   5.063  16.352 -0.2754 -0.1269 -0.2742
69918POPC   C1B30995  28.123   4.116  16.163 -0.0423  0.0219 -0.2068
69918POPC   C2B30996  28.331   3.791  15.998 -0.3481  0.1306 -0.1637
69918POPC   C3B30997  28.732   3.540  15.885  0.3606  0.5164  0.3169
69918POPC   C4B30998  29.056   3.277  15.888 -0.0149  0.0283  0.1522
69919POPC   NC330999  15.249   4.046  19.693 -0.3812  0.2677  0.0124
69919POPC   PO431000  15.466   3.748  19.512  0.1169  0.1804  0.0077
69919POPC   GL131001  15.548   3.898  19.224  0.0772 -0.1223  0.1162
69919POPC   GL231002  15.246   4.014  19.145  0.0660  0.1714  0.0596
69919POPC   C1A31003  15.574   3.816  18.760  0.1047  0.1388  0.0853
69919POPC   D2A31004  15.397   3.545  18.456  0.1328  0.3047 -0.0033
69919POPC   C3A31005  15.617   3.394  18.016  0.0565 -0.0223 -0.2250
69919POPC   C4A31006  15.689   3.719  17.664 -0.2761  0.5277 -0.0686
69919POPC   C1B31007  15.082   4.380  18.861  0.2395  0.2363  0.0424
69919POPC   C2B31008  15.123   4.492  18.431  0.0823  0.0095  0.0809
69919POPC   C3B31009  15.228   4.442  18.009 -0.1165  0.1510 -0.1305
69919POPC   C4B31010  15.384   4.166  17.652  0.1852 -0.0288 -0.3108
69920POPC   NC331011  24.467  14.245  19.770 -0.1009 -0.4644  0.0876
69920POPC   PO431012  24.126  14.461  19.700  0.0216 -0.1457 -0.0474
69920POPC   GL131013  24.351  14.471  19.361  0.0925  0.0234  0.1361
69920POPC   GL231014  24.581  14.416  19.263  0.0197  0.2189 -0.3367
69920POPC   C1A31015  24.132  14.579  18.952 -0.1067  0.0513 -0.0170
69920POPC   D2A31016  23.955  14.400  18.547 -0.0013 -0.3103  0.0526
69920POPC   C3A31017  24.013  14.169  18.139 -0.0880 -0.1978  0.1112
69920POPC   C4A31018  23.975  14.138  17.663  0.0286 -0.0036 -0.2070
69920POPC   C1B31019  24.695  14.190  18.862 -0.0552 -0.1059 -0.0525
69920POPC   C2B31020  24.882  13.899  18.525 -0.3834  0.1351  0.1925
69920POPC   C3B31021  24.906  13.715  18.084 -0.1365 -0.0021  0.0074
69920POPC   C4B31022  25.152  14.077  17.923  0.1384 -0.3274  0.0764
69921POPC   NC331023  26.180   4.319  14.622  0.3156  0.1443  0.2644
69921POPC   PO431024  25.964   4.285  14.254 -0.1506  0.2171  0.2058
69921POPC   GL131025  26.349   4.092  14.195  0.2510 -0.1835 -0.1712
69921POPC   GL231026  26.238   3.842  14.315 -0.1560  0.2239  0.1364
69921POPC   C1A31027  26.549   3.802  13.886  0.0277  0.1245 -0.1462
69921POPC   D2A31028  26.489   3.326  13.817  0.0700 -0.2000 -0.0411
69921POPC   C3A31029  26.173   3.263  13.461 -0.2964  0.0350  0.0377
69921POPC   C4A31030  25.943   2.862  13.304  0.0125 -0.0689 -0.2781
69921POPC   C1B31031  26.172   3.383  14.351 -0.0995  0.2260 -0.0961
69921POPC   C2B31032  26.405   3.044  14.269 -0.0502 -0.1126 -0.0486
69921POPC   C3B31033  26.813   2.947  14.111 -0.0891 -0.0585  0.3015
69921POPC   C4B31034  27.228   2.767  14.182 -0.1310  0.2914 -0.0403
69922POPC   NC331035  23.924   0.619  19.196 -0.1345 -0.2538  0.0040
69922POPC   PO431036  24.240   0.761  18.986 -0.0771  0.2120  0.0239
69922POPC   GL131037  24.073   0.519  18.720 -0.4989  0.1985 -0.2764
69922POPC   GL231038  24.122   0.281  18.914 -0.3136 -0.0297  0.2634
69922POPC   C1A31039  24.182   0.421  18.249  0.3538 -0.1529  0.0867
69922POPC   D2A31040  24.174   0.243  17.837 -0.1458  0.1774 -0.2287
69922POPC   C3A31041  24.098  -0.224  17.735 -0.1760  0.4291 -0.0286
69922POPC   C4A31042  24.141  -0.707  17.764 -0.1495 -0.1579  0.0446
69922POPC   C1B31043  24.307  -0.038  18.584  0.0578 -0.0847  0.2637
69922POPC   C2B31044  24.303  -0.253  18.157 -0.0789  0.1075  0.0967
69922POPC   C3B31045  24.540  -0.472  17.838 -0.3937  0.3207  0.3761
69922POPC   C4B31046  24.829  -0.529  17.510 -0.3365  0.2388  0.1386
69923POPC   NC331047  22.045  10.928  20.543 -0.3095 -0.1303  0.1976
69923POPC   PO431048  21.647  10.876  20.525  0.0378  0.4168  0.3694
69923POPC   GL131049  21.418  10.977  20.353 -0.1209  0.4783 -0.0763
69923POPC   GL231050  21.206  10.806  20.238 -0.1111 -0.0172 -0.1461
69923POPC   C1A31051  21.198  11.225  20.043 -0.6153  0.0134 -0.0055
69923POPC   D2A31052  21.048  11.204  19.621 -0.1420 -0.1932 -0.0594
69923POPC   C3A31053  21.140  11.556  19.385  0.0432  0.0004  0.1228
69923POPC   C4A31054  21.143  11.805  18.997 -0.0539  0.4468 -0.0179
69923POPC   C1B31055  20.961  10.807  19.916 -0.0221 -0.1256 -0.1414
69923POPC   C2B31056  20.636  10.885  19.609  0.2190  0.2322  0.1006
69923POPC   C3B31057  20.618  11.009  19.211  0.1987  0.4138  0.2553
69923POPC   C4B31058  20.593  11.123  18.749  0.0127  0.1748 -0.1505
69924POPC   NC331059  20.819   6.206  19.382 -0.0867 -0.3601 -0.2122
69924POPC   PO431060  20.694   6.493  19.604  0.0978 -0.0717 -0.1206
69924POPC   GL131061  20.576   6.668  19.272 -0.3087  0.0988  0.1091
69924POPC   GL231062  20.328   6.842  19.407 -0.2000 -0.0498  0.1286
69924POPC   C1A31063  20.325   6.706  18.904 -0.1018 -0.0333  0.0687
69924POPC   D2A31064  20.182   6.547  18.449 -0.2189 -0.0456 -0.0666
69924POPC   C3A31065  20.141   6.797  18.028  0.0606 -0.1642  0.0408
69924POPC   C4A31066  19.818   7.142  17.902 -0.0680  0.1132  0.1035
69924POPC   C1B31067  20.430   7.137  19.060  0.0242 -0.1550  0.0860
69924POPC   C2B31068  20.442   7.517  18.723 -0.0771  0.0388 -0.0305
69924POPC   C3B31069  20.182   7.594  18.380 -0.1513 -0.2444 -0.0900
69924POPC   C4B31070  19.917   7.609  17.994 -0.1621 -0.0099  0.2395
69925POPC   NC331071  20.836   7.531  19.680 -0.1554  0.1408 -0.0680
69925POPC   PO431072  21.176   7.459  19.479  0.2446  0.3990 -0.1293
69925POPC   GL131073  20.798   7.548  19.223 -0.0196 -0.0894 -0.0733
69925POPC   GL231074  20.915   7.321  19.023  0.0384 -0.1912  0.0870
69925POPC   C1A31075  20.437   7.874  19.148 -0.2146  0.1025 -0.0390
69925POPC   D2A31076  20.076   7.906  18.799 -0.0212  0.4612 -0.1361
69925POPC   C3A31077  19.849   8.221  18.560 -0.2855 -0.1098  0.2695
69925POPC   C4A31078  19.822   8.496  18.154  0.1559 -0.1752  0.0357
69925POPC   C1B31079  20.856   7.824  18.898 -0.0833 -0.0159  0.0000
69925POPC   C2B31080  20.533   7.999  18.645  0.0772  0.1922 -0.2365
69925POPC   C3B31081  20.331   8.113  18.188  0.0429 -0.1346 -0.1718
69925POPC   C4B31082  20.006   8.114  17.910 -0.1800  0.0431 -0.2285
69926POPC   NC331083  23.983   4.238  15.776 -0.1432 -0.0872 -0.1720
69926POPC   PO431084  24.201   4.403  15.501  0.0491  0.1731  0.0932
69926POPC   GL131085  23.958   4.377  15.303 -0.2415  0.2585  0.3132
69926POPC   GL231086  23.997   4.233  15.042 -0.3076 -0.1056  0.0442
69926POPC   C1A31087  23.543   4.465  15.347  0.1676  0.0242 -0.1585
69926POPC   D2A31088  23.235   4.601  15.038  0.2275  0.1318  0.2117
69926POPC   C3A31089  23.402   5.053  14.900 -0.0303  0.2509  0.0357
69926POPC   C4A31090  23.330   5.480  14.694 -0.0304 -0.2011  0.0544
69926POPC   C1B31091  23.995   3.753  15.118  0.2230  0.0043  0.1022
69926POPC   C2B31092  23.976   3.335  14.929 -0.0161  0.2353 -0.1543
69926POPC   C3B31093  23.969   2.906  14.807 -0.1168 -0.0971  0.1166
69926POPC   C4B31094  24.297   2.515  14.735  0.0828  0.1259  0.1885
69927POPC   NC331095  27.352   6.998  17.945 -0.2274 -0.0800  0.1501
69927POPC   PO431096  27.699   7.036  18.080  0.1806 -0.0013 -0.2082
69927POPC   GL131097  27.746   7.487  18.226  0.1331 -0.4392 -0.2742
69927POPC   GL231098  27.558   7.505  17.976  0.0579  0.0547  0.1807
69927POPC   C1A31099  27.886   7.935  18.184  0.0752 -0.1829 -0.1343
69927POPC   D2A31100  28.236   8.212  18.050 -0.0241  0.1660 -0.2298
69927POPC   C3A31101  28.445   8.116  17.695 -0.1440  0.2338  0.2389
69927POPC   C4A31102  28.747   8.048  17.341  0.3406 -0.1088  0.0654
69927POPC   C1B31103  27.631   7.528  17.513 -0.0088 -0.2021 -0.0328
69927POPC   C2B31104  27.705   7.365  17.111 -0.0199  0.2386 -0.1084
69927POPC   C3B31105  27.609   7.465  16.661 -0.0653  0.1082 -0.0298
69927POPC   C4B31106  27.729   7.492  16.237  0.0640 -0.1321  0.2058
69928POPC   NC331107  18.265  12.305  20.409  0.1825 -0.0037  0.0143
69928POPC   PO431108  18.181  12.628  20.652  0.0604  0.1647  0.0559
69928POPC   GL131109  18.173  12.764  20.401  0.1631  0.3209  0.0337
69928POPC   GL231110  18.247  12.972  20.266  0.0387 -0.1624  0.1901
69928POPC   C1A31111  17.781  12.799  20.197  0.0742 -0.0380  0.2538
69928POPC   D2A31112  17.740  12.758  19.755 -0.0157  0.0126 -0.1590
69928POPC   C3A31113  17.560  13.044  19.443 -0.0748 -0.2586 -0.1001
69928POPC   C4A31114  17.563  13.149  18.961  0.0297  0.3473 -0.2795
69928POPC   C1B31115  18.200  12.789  19.808 -0.0251 -0.0513 -0.1713
69928POPC   C2B31116  18.093  12.874  19.345 -0.3477  0.1605  0.0887
69928POPC   C3B31117  18.190  12.913  18.889 -0.0528 -0.2449 -0.2415
69928POPC   C4B31118  18.338  13.104  18.516  0.0641  0.1828  0.0117
69929POPC   NC331119  29.059   1.648  19.139  0.0134 -0.2607  0.1637
69929POPC   PO431120  29.074   1.558  19.520  0.3192 -0.0786 -0.1346
69929POPC   GL131121  29.012   1.244  19.276 -0.1772 -0.0007 -0.4668
69929POPC   GL231122  28.942   1.164  19.030  0.0351 -0.0082 -0.3805
69929POPC   C1A31123  29.264   0.865  19.160  0.0672  0.0063  0.2191
69929POPC   D2A31124  29.200   0.436  18.921  0.0473 -0.0559  0.3386
69929POPC   C3A31125  29.608   0.361  18.570  0.2178 -0.3199  0.0161
69929POPC   C4A31126  30.043   0.349  18.377 -0.2699  0.0383 -0.1657
69929POPC   C1B31127  28.771   1.019  18.650  0.0035 -0.1528  0.0919
69929POPC   C2B31128  28.856   0.788  18.239 -0.0217 -0.1116  0.0245
69929POPC   C3B31129  28.546   0.725  17.880 -0.0942  0.0853  0.0372
69929POPC   C4B31130  28.351   0.434  17.608 -0.3076 -0.1292  0.2097
69930POPC   NC331131  24.583   1.756  18.317  0.1627  0.0743  0.0426
69930POPC   PO431132  24.639   1.419  18.528 -0.0542 -0.1286 -0.1910
69930POPC   GL131133  24.587   1.215  18.250 -0.5174 -0.1526 -0.1280
69930POPC   GL231134  24.418   0.977  18.281  0.0074  0.0539  0.1218
69930POPC   C1A31135  24.659   0.954  17.851  0.2416  0.2647  0.0736
69930POPC   D2A31136  24.920   0.627  17.594  0.2438 -0.0939  0.0064
69930POPC   C3A31137  25.068   0.414  17.194 -0.2425 -0.0059  0.2726
69930POPC   C4A31138  24.915   0.148  16.888 -0.2143 -0.0048  0.0183
69930POPC   C1B31139  24.004   0.871  18.006 -0.2370  0.0139  0.3590
69930POPC   C2B31140  23.833   0.659  17.596  0.3139 -0.1961  0.1487
69930POPC   C3B31141  23.976   0.401  17.274  0.0423 -0.1488 -0.1988
69930POPC   C4B31142  24.095   0.390  16.829 -0.2207 -0.1351 -0.0439
69931POPC   NC331143  27.199   5.943  13.345 -0.1633  0.0162 -0.2448
69931POPC   PO431144  26.999   5.739  13.067 -0.2367  0.3195 -0.0838
69931POPC   GL131145  27.405   5.945  12.957  0.1517  0.0844  0.3787
69931POPC   GL231146  27.601   5.781  12.855 -0.1947 -0.0808  0.0949
69931POPC   C1A31147  27.704   6.081  13.236 -0.3417 -0.3223  0.0575
69931POPC   D2A31148  28.010   6.409  13.335 -0.0083  0.3475 -0.1956
69931POPC   C3A31149  28.250   6.664  13.628 -0.1390  0.1536  0.2168
69931POPC   C4A31150  28.171   7.134  13.699 -0.0770 -0.1094 -0.2492
69931POPC   C1B31151  27.877   6.099  12.720 -0.1356  0.4565 -0.3129
69931POPC   C2B31152  28.125   6.539  12.802 -0.1685  0.0941 -0.2911
69931POPC   C3B31153  28.418   6.608  13.131  0.0880 -0.0748  0.0208
69931POPC   C4B31154  28.712   6.927  13.296  0.0866  0.1363 -0.2701
69932POPC   NC331155  24.676   5.986  15.186 -0.1820 -0.0471  0.0121
69932POPC   PO431156  24.927   6.026  14.877  0.0950  0.0673 -0.3347
69932POPC   GL131157  24.804   6.245  14.631 -0.2889  0.2534  0.2833
69932POPC   GL231158  24.894   6.528  14.587 -0.0881  0.0061  0.1646
69932POPC   C1A31159  24.464   6.291  14.330 -0.0502 -0.1254  0.0707
69932POPC   D2A31160  24.117   6.601  14.347  0.0201  0.0314  0.4077
69932POPC   C3A31161  23.659   6.714  14.452 -0.0796  0.0225 -0.1584
69932POPC   C4A31162  23.290   6.377  14.471 -0.1740 -0.0546 -0.3266
69932POPC   C1B31163  24.888   6.958  14.745  0.1022 -0.0745 -0.2684
69932POPC   C2B31164  24.701   7.341  14.575 -0.1218  0.0097  0.1200
69932POPC   C3B31165  24.530   7.571  14.202  0.1462  0.2892 -0.0002
69932POPC   C4B31166  24.181   7.695  13.878 -0.0584 -0.0762  0.1402
69933POPC   NC331167  22.684   5.054  18.466 -0.2421 -0.0847 -0.1755
69933POPC   PO431168  22.286   5.028  18.554 -0.0462 -0.1359 -0.0198
69933POPC   GL131169  21.914   4.847  18.441 -0.0604 -0.3289 -0.1029
69933POPC   GL231170  21.925   4.930  18.152 -0.0773  0.3277  0.1040
69933POPC   C1A31171  21.487   5.071  18.358 -0.0541 -0.1784 -0.0219
69933POPC   D2A31172  21.254   5.320  18.029  0.3084  0.0726  0.1778
69933POPC   C3A31173  21.072   5.300  17.531  0.0693 -0.1530  0.1019
69933POPC   C4A31174  21.034   5.161  17.091 -0.0772  0.1572  0.0403
69933POPC   C1B31175  21.728   5.223  17.857  0.1945 -0.2908  0.3947
69933POPC   C2B31176  21.630   5.205  17.384  0.0172  0.1697 -0.0711
69933POPC   C3B31177  21.476   5.014  16.989 -0.1216  0.3414 -0.1171
69933POPC   C4B31178  21.357   4.738  16.686  0.0723 -0.2104 -0.2632
69934POPC   NC331179  28.249   4.769  18.256 -0.0707 -0.2641 -0.2115
69934POPC   PO431180  28.516   4.966  18.066  0.1653  0.1139 -0.2161
69934POPC   GL131181  28.887   5.071  17.951 -0.2345  0.1717  0.3302
69934POPC   GL231182  28.907   5.111  17.579  0.1088 -0.2182  0.0559
69934POPC   C1A31183  29.263   4.843  17.935  0.0036  0.1219 -0.2185
69934POPC   D2A31184  29.500   4.437  17.753 -0.1278  0.0358 -0.2810
69934POPC   C3A31185  29.771   4.268  17.427 -0.1492 -0.1283  0.2785
69934POPC   C4A31186  30.036   4.270  17.061 -0.1101 -0.0512 -0.0591
69934POPC   C1B31187  29.107   5.471  17.292 -0.1110 -0.0397  0.2665
69934POPC   C2B31188  29.489   5.780  17.248  0.2223 -0.1531 -0.0296
69934POPC   C3B31189  29.783   5.899  16.967 -0.0513  0.1120 -0.2324
69934POPC   C4B31190  30.203   6.039  16.881 -0.1898  0.3268 -0.1691
69935POPC   NC331191  19.127   5.701  19.957 -0.1648  0.0562 -0.1527
69935POPC   PO431192  19.272   5.975  19.766 -0.1667  0.1516 -0.0275
69935POPC   GL131193  19.340   6.244  19.486 -0.2228  0.3293  0.1331
69935POPC   GL231194  19.268   6.092  19.219 -0.2588  0.1772  0.0779
69935POPC   C1A31195  19.235   6.663  19.328  0.1224 -0.2830 -0.0746
69935POPC   D2A31196  19.104   6.898  18.928  0.1598  0.0839 -0.0123
69935POPC   C3A31197  19.132   6.775  18.506  0.0576  0.1279  0.1527
69935POPC   C4A31198  19.116   6.836  18.028 -0.1268 -0.3804 -0.2035
69935POPC   C1B31199  19.045   6.357  18.961  0.1418 -0.2162 -0.1197
69935POPC   C2B31200  18.802   6.345  18.571  0.0030 -0.0954 -0.0524
69935POPC   C3B31201  18.627   6.495  18.212  0.0279 -0.2367 -0.0060
69935POPC   C4B31202  18.176   6.507  18.124  0.2703 -0.1845 -0.2438
69936POPC   NC331203  20.228   7.946  20.685  0.1535  0.1006  0.2571
69936POPC   PO431204  20.399   7.766  20.401  0.1969  0.3022  0.1134
69936POPC   GL131205  20.305   7.629  20.053 -0.2544  0.3540  0.2385
69936POPC   GL231206  20.395   7.452  19.973 -0.0241  0.0082 -0.1199
69936POPC   C1A31207  20.201   7.790  19.617 -0.1395 -0.0077 -0.0957
69936POPC   D2A31208  19.914   7.988  19.283  0.1165 -0.2441 -0.2034
69936POPC   C3A31209  19.555   8.215  19.090 -0.1859  0.0991  0.1879
69936POPC   C4A31210  19.303   8.420  18.751  0.0381  0.1044  0.0333
69936POPC   C1B31211  20.406   7.350  19.527  0.0884 -0.2903 -0.0767
69936POPC   C2B31212  20.108   7.503  19.190 -0.2626 -0.0483  0.2283
69936POPC   C3B31213  19.882   7.467  18.752 -0.0166  0.2388  0.0911
69936POPC   C4B31214  19.972   7.161  18.442 -0.1588  0.1158 -0.2277
69937POPC   NC331215  28.413   8.953  19.717 -0.1991  0.0116 -0.1946
69937POPC   PO431216  28.709   9.169  19.849  0.3060  0.0972  0.0543
69937POPC   GL131217  28.813   9.093  19.359  0.5832 -0.0297 -0.1220
69937POPC   GL231218  28.957   9.356  19.379  0.2409 -0.0483  0.0877
69937POPC   C1A31219  29.005   8.823  19.066  0.0366 -0.2207 -0.1567
69937POPC   D2A31220  29.219   8.788  18.680 -0.0732 -0.2009 -0.2453
69937POPC   C3A31221  29.022   8.934  18.304  0.0567  0.1866 -0.0656
69937POPC   C4A31222  29.179   8.973  17.876  0.0634  0.1633  0.2205
69937POPC   C1B31223  28.910   9.309  18.941  0.0012  0.0363  0.0804
69937POPC   C2B31224  28.765   9.467  18.512 -0.2021  0.0207 -0.0097
69937POPC   C3B31225  28.426   9.516  18.258  0.4154  0.1361 -0.0796
69937POPC   C4B31226  28.218   9.541  17.825 -0.1694  0.2342  0.0600
69938POPC   NC331227  28.995  14.271  20.254  0.1882  0.1575  0.1559
69938POPC   PO431228  28.606  14.387  20.183 -0.1964  0.1932 -0.2852
69938POPC   GL131229  28.777  14.350  19.825  0.2599  0.0095 -0.0184
69938POPC   GL231230  28.913  14.062  19.814  0.2524  0.0936  0.2373
69938POPC   C1A31231  28.954  14.498  19.461  0.0173 -0.0461 -0.3293
69938POPC   D2A31232  28.819  14.625  19.032 -0.0504 -0.0573 -0.0248
69938POPC   C3A31233  29.054  14.846  18.644 -0.0739  0.0907  0.1274
69938POPC   C4A31234  28.889  14.998  18.209 -0.1376 -0.2471 -0.0543
69938POPC   C1B31235  29.117  14.001  19.382  0.0010  0.0854 -0.1951
69938POPC   C2B31236  29.252  14.297  19.016  0.1425 -0.0367 -0.2036
69938POPC   C3B31237  29.337  14.335  18.551 -0.1816 -0.1125 -0.0976
69938POPC   C4B31238  29.282  14.620  18.184 -0.2637  0.2854  0.0033
69939POPC   NC331239  20.822   8.949  19.975  0.1302  0.2333 -0.1601
69939POPC   PO431240  20.527   8.763  20.190 -0.0737 -0.2306 -0.2596
69939POPC   GL131241  20.450   8.623  19.846 -0.0390  0.2406 -0.2444
69939POPC   GL231242  20.137   8.625  19.882  0.3602  0.0903 -0.3030
69939POPC   C1A31243  20.775   8.612  19.579  0.2375  0.2573  0.0826
69939POPC   D2A31244  21.014   8.774  19.191  0.0256  0.1525  0.2109
69939POPC   C3A31245  21.060   8.809  18.711 -0.2797  0.0402 -0.1286
69939POPC   C4A31246  20.861   8.703  18.335 -0.0742 -0.0495 -0.0247
69939POPC   C1B31247  20.050   8.890  19.491 -0.0542 -0.0038  0.3168
69939POPC   C2B31248  20.033   9.038  19.051  0.0970 -0.0409  0.1248
69939POPC   C3B31249  20.114   9.191  18.608  0.1649  0.2153  0.0911
69939POPC   C4B31250  20.120   9.199  18.176  0.1910  0.0829  0.0732
69940POPC   NC331251  23.122  32.443  20.081 -0.2710  0.0941 -0.0799
69940POPC   PO431252  23.107  32.749  19.837 -0.3694 -0.0415 -0.0041
69940POPC   GL131253  22.962  32.568  19.553 -0.1961  0.3367  0.3077
69940POPC   GL231254  22.974  32.819  19.332 -0.1761  0.0775 -0.4463
69940POPC   C1A31255  22.707  32.187  19.478 -0.0885  0.2835 -0.3382
69940POPC   D2A31256  22.651  31.908  19.139 -0.2272 -0.2345  0.1267
69940POPC   C3A31257  22.544  31.641  18.808  0.2639  0.2102 -0.0635
69940POPC   C4A31258  22.399  31.420  18.454  0.2830  0.4226 -0.1263
69940POPC   C1B31259  23.179  32.832  18.850 -0.0155  0.3188  0.0389
69940POPC   C2B31260  23.186  32.973  18.403  0.1413 -0.2483  0.1019
69940POPC   C3B31261  23.248  32.905  17.965  0.1131  0.0694  0.0993
69940POPC   C4B31262  23.172  32.853  17.533 -0.1312 -0.1732  0.3037
69941POPC   NC331263  28.699   4.088  18.758  0.0006  0.1636 -0.1526
69941POPC   PO431264  28.872   4.181  18.388  0.0669 -0.1452 -0.0522
69941POPC   GL131265  28.947   4.013  17.998 -0.1850 -0.1496 -0.3175
69941POPC   GL231266  28.990   3.683  17.923  0.2145 -0.0472  0.1715
69941POPC   C1A31267  29.124   4.142  17.575  0.0982  0.2202  0.2548
69941POPC   D2A31268  29.310   4.138  17.150 -0.2011 -0.0918  0.1383
69941POPC   C3A31269  29.638   4.278  16.857 -0.1259  0.0052 -0.1655
69941POPC   C4A31270  29.962   4.373  16.503 -0.0399 -0.1902 -0.0312
69941POPC   C1B31271  29.095   3.632  17.459  0.1517 -0.1341  0.0819
69941POPC   C2B31272  29.245   3.306  17.176  0.0370  0.0784  0.0075
69941POPC   C3B31273  29.662   3.065  17.071  0.1211  0.3469  0.1033
69941POPC   C4B31274  30.128   3.035  17.113  0.1161  0.1069  0.1566
69942POPC   NC331275  23.819   6.419  17.688  0.1569  0.2242  0.1118
69942POPC   PO431276  23.538   6.645  17.752  0.1808 -0.0368  0.0044
69942POPC   GL131277  23.314   6.954  17.721  0.2997  0.0688  0.1902
69942POPC   GL231278  23.195   6.895  17.428  0.0907  0.0152 -0.2281
69942POPC   C1A31279  23.170   7.383  17.536 -0.0925  0.0987 -0.3178
69942POPC   D2A31280  22.786   7.719  17.496 -0.0882 -0.1845  0.0406
69942POPC   C3A31281  22.501   8.078  17.465  0.1468  0.2290 -0.1031
69942POPC   C4A31282  22.319   8.385  17.694  0.1765  0.1429  0.1800
69942POPC   C1B31283  23.242   7.114  17.083  0.0305 -0.0911 -0.4355
69942POPC   C2B31284  22.958   7.319  16.810  0.0715  0.0304  0.4241
69942POPC   C3B31285  22.814   7.310  16.328 -0.3106  0.0340  0.0967
69942POPC   C4B31286  22.505   7.282  15.948  0.2229 -0.3266 -0.2151
69943POPC   NC331287  28.223   6.240  18.158 -0.2255 -0.0453 -0.1405
69943POPC   PO431288  28.411   6.274  17.814 -0.0086 -0.2042 -0.2149
69943POPC   GL131289  28.695   6.361  17.508 -0.0651 -0.1200  0.1865
69943POPC   GL231290  28.897   6.467  17.732 -0.1667 -0.1443  0.0751
69943POPC   C1A31291  28.809   6.844  17.452 -0.0045  0.1462 -0.0962
69943POPC   D2A31292  28.812   7.133  17.063  0.0031  0.0276  0.0149
69943POPC   C3A31293  29.208   7.235  16.847 -0.2228 -0.1127  0.4533
69943POPC   C4A31294  29.567   7.484  16.655 -0.0669  0.0762 -0.0588
69943POPC   C1B31295  29.187   6.310  17.358  0.2766 -0.1228  0.3257
69943POPC   C2B31296  29.603   6.294  17.150 -0.1961  0.0152 -0.0303
69943POPC   C3B31297  29.767   6.313  16.739 -0.0144 -0.1753 -0.3124
69943POPC   C4B31298  29.904   6.401  16.268  0.2204  0.2003 -0.2971
69944POPC   NC331299  26.199   1.934  17.679 -0.0085  0.2847  0.1251
69944POPC   PO431300  25.852   1.921  17.898 -0.0645 -0.1904  0.1456
69944POPC   GL131301  25.954   1.520  17.557 -0.0945 -0.1221 -0.2664
69944POPC   GL231302  25.930   1.247  17.580  0.2859 -0.0300 -0.0035
69944POPC   C1A31303  26.047   1.667  17.149  0.0860 -0.0049  0.0742
69944POPC   D2A31304  26.077   1.748  16.631  0.0151  0.0398  0.0199
69944POPC   C3A31305  26.182   1.354  16.427 -0.0156 -0.2351 -0.0200
69944POPC   C4A31306  26.667   1.191  16.369  0.1121 -0.1562 -0.2442
69944POPC   C1B31307  25.857   0.769  17.389  0.1303 -0.2680 -0.0761
69944POPC   C2B31308  25.521   0.487  17.373  0.1042 -0.2349 -0.0584
69944POPC   C3B31309  25.468   0.096  17.343 -0.1508 -0.0170  0.0290
69944POPC   C4B31310  25.044  -0.099  17.362 -0.0760 -0.1092  0.1603
69945POPC   NC331311  30.447   9.124  19.970  0.2098  0.0849 -0.3539
69945POPC   PO431312  30.129   9.023  20.184 -0.0195 -0.0968 -0.4491
69945POPC   GL131313  30.033   8.876  19.844 -0.2238  0.0784 -0.1737
69945POPC   GL231314  30.043   8.606  19.879  0.1377 -0.1467  0.1720
69945POPC   C1A31315  30.265   9.098  19.470 -0.2462 -0.1920  0.2174
69945POPC   D2A31316  30.303   9.558  19.383 -0.1253  0.1052 -0.1988
69945POPC   C3A31317  29.932   9.745  19.102  0.1640  0.0534  0.0936
69945POPC   C4A31318  29.723   9.498  18.731  0.3253  0.2209  0.1142
69945POPC   C1B31319  29.823   8.786  19.459 -0.1599  0.1589  0.1155
69945POPC   C2B31320  30.021   8.785  19.054 -0.3190 -0.1928  0.1086
69945POPC   C3B31321  30.164   8.970  18.599 -0.0850  0.0382  0.0625
69945POPC   C4B31322  30.309   9.103  18.174 -0.1122  0.2496  0.3043
69946POPC   NC331323  21.425  10.359  20.446  0.2310 -0.0070 -0.0387
69946POPC   PO431324  21.650  10.018  20.380 -0.1493 -0.0740  0.0482
69946POPC   GL131325  21.798   9.980  19.963  0.0201 -0.0764 -0.3287
69946POPC   GL231326  21.534   9.942  19.876 -0.1653  0.2309 -0.1378
69946POPC   C1A31327  21.951  10.032  19.470  0.1815  0.0180 -0.0407
69946POPC   D2A31328  21.803  10.263  19.069 -0.1581 -0.0425 -0.0046
69946POPC   C3A31329  22.061  10.339  18.693  0.0203  0.2327 -0.4044
69946POPC   C4A31330  22.276  10.663  18.424 -0.2067 -0.0034  0.0006
69946POPC   C1B31331  21.465  10.114  19.436 -0.0377  0.0193 -0.0387
69946POPC   C2B31332  21.304  10.212  19.004  0.1257 -0.0863 -0.0623
69946POPC   C3B31333  20.932  10.400  18.749  0.2197  0.1189  0.1209
69946POPC   C4B31334  20.515  10.600  18.885 -0.2872 -0.2235 -0.0153
69947POPC   NC331335  22.175   4.612  18.782  0.0039 -0.1136 -0.3446
69947POPC   PO431336  22.351   4.377  18.554  0.1125  0.0283  0.1380
69947POPC   GL131337  22.057   4.303  18.317 -0.4249  0.0149 -0.0178
69947POPC   GL231338  21.797   4.353  18.460 -0.1033  0.2073  0.1399
69947POPC   C1A31339  21.715   4.426  17.988  0.1041 -0.2189  0.0905
69947POPC   D2A31340  21.413   4.735  17.977  0.1022  0.0493 -0.0925
69947POPC   C3A31341  20.987   4.818  18.150  0.1150  0.2550  0.0474
69947POPC   C4A31342  20.664   4.549  17.963 -0.0077 -0.0238 -0.1984
69947POPC   C1B31343  21.467   4.050  18.368  0.1854 -0.2472 -0.0182
69947POPC   C2B31344  21.178   3.839  18.127  0.0448 -0.1779 -0.1447
69947POPC   C3B31345  20.852   3.536  17.897  0.2221  0.1632 -0.1320
69947POPC   C4B31346  20.374   3.471  17.936 -0.0454 -0.2677 -0.0009
69948POPC   NC331347  28.425   6.733  17.957  0.0365 -0.2189 -0.0407
69948POPC   PO431348  28.053   6.645  17.923 -0.4571 -0.0963  0.0803
69948POPC   GL131349  28.182   6.943  17.661 -0.3222  0.0248 -0.2330
69948POPC   GL231350  28.173   7.022  17.411 -0.0962  0.2025 -0.4966
69948POPC   C1A31351  28.587   7.187  17.781  0.2285  0.0098  0.1212
69948POPC   D2A31352  29.036   7.376  17.694  0.0534 -0.0353 -0.0433
69948POPC   C3A31353  29.220   7.102  17.367 -0.0594 -0.2117 -0.1292
69948POPC   C4A31354  29.132   6.752  17.069 -0.2144 -0.2283 -0.0953
69948POPC   C1B31355  28.240   7.196  16.986  0.1156  0.2640 -0.1482
69948POPC   C2B31356  28.575   7.323  16.660  0.3407  0.1924 -0.1003
69948POPC   C3B31357  28.801   7.358  16.259  0.2510  0.1836  0.4865
69948POPC   C4B31358  28.979   7.271  15.822  0.0564 -0.0982 -0.3266
69949POPC   NC331359  30.128  16.282  20.022  0.0002 -0.4596 -0.4020
69949POPC   PO431360  30.027  16.674  19.987  0.1737 -0.0478  0.4650
69949POPC   GL131361  30.170  16.742  19.676  0.3698  0.1986  0.1175
69949POPC   GL231362  29.992  16.502  19.527  0.0237 -0.0962 -0.1005
69949POPC   C1A31363  30.307  16.782  19.234  0.3172 -0.3042  0.0478
69949POPC   D2A31364  30.404  16.851  18.730 -0.0607  0.3543 -0.2121
69949POPC   C3A31365  30.541  16.450  18.484 -0.0176 -0.0402  0.1181
69949POPC   C4A31366  30.825  16.144  18.181 -0.0584  0.0149  0.1083
69949POPC   C1B31367  29.912  16.219  19.161  0.1551  0.2444  0.0352
69949POPC   C2B31368  29.883  16.144  18.739 -0.0635  0.0510  0.1339
69949POPC   C3B31369  29.859  15.938  18.311 -0.0250 -0.1503 -0.1113
69949POPC   C4B31370  30.178  15.816  18.013  0.2821  0.1044 -0.2104
69950POPC   NC331371  19.889   3.344  19.731  0.0896  0.1327 -0.1776
69950POPC   PO431372  19.976   3.735  19.739 -0.1522  0.0704  0.1610
69950POPC   GL131373  19.801   3.550  19.324  0.1451 -0.0168  0.0381
69950POPC   GL231374  19.652   3.821  19.274  0.3698  0.0306 -0.2311
69950POPC   C1A31375  19.833   3.173  19.073  0.2044  0.0376  0.1704
69950POPC   D2A31376  19.804   2.715  18.878  0.1577 -0.3081 -0.1545
69950POPC   C3A31377  20.250   2.584  18.871 -0.0697 -0.0348 -0.1970
69950POPC   C4A31378  20.675   2.646  18.749 -0.0499  0.1846  0.0318
69950POPC   C1B31379  19.381   3.607  18.952  0.0645 -0.3051  0.2026
69950POPC   C2B31380  19.185   3.465  18.537  0.0313  0.0584 -0.2085
69950POPC   C3B31381  18.851   3.347  18.226 -0.0358  0.4844 -0.0521
69950POPC   C4B31382  18.675   3.138  17.828  0.1357  0.2933 -0.0519
69951POPC   NC331383  17.032   2.244  19.989 -0.0271 -0.1074 -0.0487
69951POPC   PO431384  17.339   2.044  20.055 -0.0896 -0.0112  0.1281
69951POPC   GL131385  17.515   2.263  19.754 -0.2822 -0.0573  0.0583
69951POPC   GL231386  17.288   2.234  19.539  0.0109  0.2110  0.0103
69951POPC   C1A31387  17.735   2.014  19.414 -0.1700  0.0599  0.0010
69951POPC   D2A31388  17.899   1.735  19.105 -0.2213  0.0439 -0.1790
69951POPC   C3A31389  18.109   1.554  18.789 -0.0376  0.0013  0.0055
69951POPC   C4A31390  18.093   1.504  18.315  0.1172 -0.0844 -0.0216
69951POPC   C1B31391  17.264   2.213  19.063  0.0833  0.0821 -0.1777
69951POPC   C2B31392  17.257   1.943  18.648  0.0815  0.0311 -0.0669
69951POPC   C3B31393  17.493   1.872  18.248  0.3539 -0.1124  0.0854
69951POPC   C4B31394  17.368   2.130  17.903  0.0870 -0.4202  0.0309
69952POPC   NC331395  28.114   1.875  19.507  0.0674  0.0410 -0.3934
69952POPC   PO431396  28.153   1.519  19.387 -0.1867  0.0399 -0.4752
69952POPC   GL131397  28.168   1.338  18.949 -0.3088 -0.0592  0.0474
69952POPC   GL231398  28.068   1.473  18.685 -0.0301  0.3934  0.1824
69952POPC   C1A31399  28.210   0.952  18.752  0.2662 -0.0872 -0.0923
69952POPC   D2A31400  28.270   0.642  18.465  0.3010 -0.1791  0.1457
69952POPC   C3A31401  28.048   0.757  18.129  0.0654  0.0433  0.0810
69952POPC   C4A31402  28.053   0.859  17.721  0.0409 -0.3307 -0.1291
69952POPC   C1B31403  27.947   1.210  18.347 -0.4092  0.0599  0.1435
69952POPC   C2B31404  27.695   1.118  17.975 -0.0561  0.2884  0.1048
69952POPC   C3B31405  27.583   0.946  17.535  0.1022 -0.2413 -0.0011
69952POPC   C4B31406  27.526   0.692  17.162  0.3376  0.0509 -0.0781
69953POPC   NC331407  17.765  13.537  20.338  0.1129  0.1690 -0.0980
69953POPC   PO431408  18.152  13.489  20.196 -0.0510  0.0070  0.1552
69953POPC   GL131409  18.482  13.410  20.066 -0.1977  0.0423  0.0163
69953POPC   GL231410  18.704  13.260  20.175 -0.3272  0.3468 -0.4157
69953POPC   C1A31411  18.673  13.431  19.663  0.1187 -0.0315  0.3367
69953POPC   D2A31412  19.069  13.582  19.437  0.0934 -0.0825  0.1074
69953POPC   C3A31413  19.232  13.209  19.198 -0.1669 -0.1939 -0.0936
69953POPC   C4A31414  19.416  12.881  18.873 -0.1929 -0.2154 -0.1000
69953POPC   C1B31415  18.658  12.904  19.955 -0.0474 -0.1142 -0.0627
69953POPC   C2B31416  18.551  12.742  19.493  0.0201  0.1909 -0.2049
69953POPC   C3B31417  18.551  12.563  19.125  0.3517  0.0694 -0.1336
69953POPC   C4B31418  18.713  12.790  18.758  0.3560  0.0344 -0.0576
69954POPC   NC331419  21.141   1.956  20.080  0.3267 -0.2606 -0.4146
69954POPC   PO431420  21.223   1.547  20.106  0.0374  0.0427  0.4345
69954POPC   GL131421  21.039   1.630  19.720  0.0030 -0.0165 -0.0403
69954POPC   GL231422  21.172   1.497  19.525 -0.1985 -0.2245  0.0303
69954POPC   C1A31423  20.726   1.401  19.477  0.0828  0.1158  0.0568
69954POPC   D2A31424  20.667   1.274  19.048 -0.4714  0.0086  0.0784
69954POPC   C3A31425  20.279   1.339  18.865 -0.1213 -0.0530 -0.0099
69954POPC   C4A31426  19.843   1.331  19.026 -0.1050 -0.1147  0.0962
69954POPC   C1B31427  21.171   1.190  19.137 -0.4098  0.1478  0.0311
69954POPC   C2B31428  21.004   1.032  18.751  0.1023  0.1870  0.1023
69954POPC   C3B31429  20.922   0.645  18.501 -0.5290 -0.2400  0.0336
69954POPC   C4B31430  20.961   0.303  18.223  0.1620  0.0082 -0.3164
69955POPC   NC331431  22.730  15.210  20.682  0.0251 -0.1502 -0.0318
69955POPC   PO431432  22.783  15.028  20.324  0.0761 -0.4157  0.2953
69955POPC   GL131433  22.628  14.736  20.285  0.4801  0.2225  0.0863
69955POPC   GL231434  22.786  14.519  20.116  0.0313  0.2674  0.2027
69955POPC   C1A31435  22.267  14.598  19.987 -0.4466 -0.1798  0.1594
69955POPC   D2A31436  22.019  14.455  19.635  0.2485  0.2626  0.2848
69955POPC   C3A31437  21.785  14.163  19.357  0.1487  0.2251  0.0021
69955POPC   C4A31438  21.566  14.057  18.952  0.1236 -0.0251  0.2681
69955POPC   C1B31439  23.004  14.731  19.745  0.2382  0.0409 -0.2103
69955POPC   C2B31440  23.256  14.760  19.331 -0.2457 -0.2383 -0.0565
69955POPC   C3B31441  23.246  14.735  18.890 -0.0062 -0.1522  0.0533
69955POPC   C4B31442  23.142  14.844  18.460  0.0777  0.0117  0.2139
69956POPC   NC331443  19.400  10.005  20.434 -0.0025 -0.3800  0.2116
69956POPC   PO431444  19.129   9.779  20.236 -0.1635  0.0012 -0.2127
69956POPC   GL131445  19.422   9.968  19.985  0.0543 -0.5083 -0.0160
69956POPC   GL231446  19.186   9.901  19.744  0.0189  0.0466  0.1977
69956POPC   C1A31447  19.833   9.987  19.715  0.0314  0.0317  0.0077
69956POPC   D2A31448  20.182   9.991  19.459 -0.0644 -0.1710  0.1028
69956POPC   C3A31449  20.029  10.232  19.118  0.1727 -0.0363 -0.0669
69956POPC   C4A31450  20.022  10.507  18.729 -0.0911  0.1624  0.0983
69956POPC   C1B31451  19.414  10.007  19.374 -0.4188 -0.2033  0.0682
69956POPC   C2B31452  19.147  10.250  19.085  0.0186 -0.0464  0.1819
69956POPC   C3B31453  18.827  10.489  18.959 -0.1396 -0.3357 -0.0762
69956POPC   C4B31454  18.443  10.688  18.823  0.0241  0.0109  0.0540
69957POPC   NC331455  26.684   3.614  15.831  0.0197  0.0828  0.1001
69957POPC   PO431456  26.660   3.992  15.941  0.0560  0.0916 -0.1371
69957POPC   GL131457  26.856   3.903  15.517  0.0297  0.2538  0.0896
69957POPC   GL231458  27.142   3.865  15.472 -0.1154  0.0709 -0.2804
69957POPC   C1A31459  26.869   3.475  15.356 -0.2113 -0.0014  0.0114
69957POPC   D2A31460  27.173   3.291  15.029 -0.0419  0.4272 -0.0940
69957POPC   C3A31461  27.429   2.871  15.213  0.1627 -0.1020 -0.2334
69957POPC   C4A31462  27.327   2.709  15.657  0.1332 -0.2576 -0.0250
69957POPC   C1B31463  27.283   3.436  15.511  0.0578  0.2215 -0.1184
69957POPC   C2B31464  27.702   3.247  15.405 -0.2778  0.1230  0.0066
69957POPC   C3B31465  28.122   3.091  15.139 -0.2613 -0.1565 -0.1692
69957POPC   C4B31466  28.599   3.146  15.117  0.1597 -0.3282 -0.0998
69958POPC   NC331467  21.606   5.274  18.888 -0.3293 -0.1003  0.1033
69958POPC   PO431468  21.745   5.608  18.845 -0.0543 -0.0748 -0.2391
69958POPC   GL131469  21.324   5.651  18.738 -0.2058 -0.1022 -0.4148
69958POPC   GL231470  21.314   5.573  18.503 -0.3038  0.3365 -0.0929
69958POPC   C1A31471  21.059   6.001  18.640  0.4796  0.2130  0.1404
69958POPC   D2A31472  21.160   6.215  18.222  0.0833 -0.0450 -0.2819
69958POPC   C3A31473  20.762   6.178  17.974  0.1203  0.1428  0.1596
69958POPC   C4A31474  20.473   6.317  17.606 -0.0804  0.1722 -0.0010
69958POPC   C1B31475  20.985   5.690  18.295 -0.1966 -0.0797 -0.2319
69958POPC   C2B31476  21.183   5.855  17.887 -0.2591 -0.3070  0.0244
69958POPC   C3B31477  21.191   6.191  17.549  0.3535  0.0630  0.0293
69958POPC   C4B31478  20.905   6.473  17.339 -0.2068  0.0694  0.2521
69959POPC   NC331479  25.614   1.066  18.860 -0.2307  0.0808  0.0494
69959POPC   PO431480  25.698   1.358  18.649 -0.1022  0.0651  0.2287
69959POPC   GL131481  25.585   1.395  18.277 -0.1374  0.0569 -0.4009
69959POPC   GL231482  25.837   1.321  18.074 -0.1954 -0.1064 -0.3212
69959POPC   C1A31483  25.292   1.168  17.962  0.2482  0.1082 -0.1127
69959POPC   D2A31484  25.408   0.931  17.594 -0.0991 -0.2075  0.2097
69959POPC   C3A31485  25.309   0.863  17.144  0.0354  0.3521  0.0450
69959POPC   C4A31486  25.584   0.764  16.822 -0.1145  0.2013  0.1494
69959POPC   C1B31487  25.731   0.888  17.966  0.0507 -0.0904 -0.0978
69959POPC   C2B31488  25.669   0.447  17.877 -0.1834  0.1198  0.0345
69959POPC   C3B31489  25.555   0.020  17.824 -0.0954 -0.1841  0.0148
69959POPC   C4B31490  25.393  -0.345  17.638 -0.2113 -0.1826  0.1300
69960POPC   NC331491  29.273   4.410  18.172 -0.1295 -0.1208  0.0022
69960POPC   PO431492  29.406   4.300  18.531 -0.0044 -0.0908  0.2216
69960POPC   GL131493  29.606   4.138  18.270  0.2813  0.1415  0.1769
69960POPC   GL231494  29.842   4.152  18.108 -0.1930  0.1379  0.1319
69960POPC   C1A31495  29.455   3.933  17.870 -0.0698 -0.1446  0.0694
69960POPC   D2A31496  29.510   3.855  17.450 -0.1656 -0.3009  0.0875
69960POPC   C3A31497  29.803   3.820  17.119 -0.0890  0.0779  0.2707
69960POPC   C4A31498  29.730   3.495  16.832  0.1676 -0.1316  0.3261
69960POPC   C1B31499  30.069   4.394  17.769  0.1947 -0.1670  0.0430
69960POPC   C2B31500  30.430   4.462  17.439  0.0212 -0.0722 -0.0671
69960POPC   C3B31501  30.824   4.464  17.171 -0.0238 -0.1189 -0.2340
69960POPC   C4B31502  31.270   4.233  17.121  0.3035  0.2981  0.1379
69961POPC   NC331503   0.299   4.153  19.968  0.1404 -0.1378 -0.0974
69961POPC   PO431504   0.684   4.147  19.875  0.1106 -0.0664  0.2506
69961POPC   GL131505   0.819   4.242  19.553  0.3675  0.2528 -0.0779
69961POPC   GL231506   1.123   4.222  19.529  0.1479 -0.1511 -0.3573
69961POPC   C1A31507   0.662   4.416  19.187 -0.3265  0.1464 -0.0284
69961POPC   D2A31508   0.794   4.698  18.883 -0.1792 -0.2303 -0.1029
69961POPC   C3A31509   0.853   4.648  18.431  0.1434 -0.1439  0.0134
69961POPC   C4A31510   1.059   4.392  18.151  0.0083 -0.2860  0.3050
69961POPC   C1B31511   1.226   4.364  19.065 -0.2465 -0.2352 -0.3526
69961POPC   C2B31512   1.244   4.435  18.627 -0.0474  0.3373 -0.0111
69961POPC   C3B31513   1.403   4.752  18.328 -0.1430  0.1594  0.1310
69961POPC   C4B31514   1.370   5.000  17.911  0.2637  0.1689  0.2665
69962POPC   NC331515  22.097   3.727  18.899 -0.0987  0.0190  0.0033
69962POPC   PO431516  21.760   3.779  19.096  0.0544  0.0963 -0.0627
69962POPC   GL131517  21.577   3.740  18.684 -0.0056  0.0742  0.1608
69962POPC   GL231518  21.544   3.419  18.644 -0.0429 -0.1162 -0.1244
69962POPC   C1A31519  21.125   3.617  18.618 -0.0425  0.0859 -0.1040
69962POPC   D2A31520  20.754   3.531  18.376 -0.0169 -0.2010  0.1288
69962POPC   C3A31521  20.662   3.131  18.197  0.0610 -0.0562  0.0794
69962POPC   C4A31522  20.548   2.683  18.097 -0.1355 -0.0438 -0.2387
69962POPC   C1B31523  21.630   3.521  18.214  0.1022 -0.1101  0.2080
69962POPC   C2B31524  21.370   3.460  17.786  0.0792  0.1607 -0.0872
69962POPC   C3B31525  21.154   3.271  17.407  0.0766 -0.0336 -0.1429
69962POPC   C4B31526  20.951   2.972  17.136 -0.4328  0.0390  0.0273
69963POPC   NC331527  24.558   4.322  15.020 -0.3730 -0.0985  0.1217
69963POPC   PO431528  24.743   4.536  14.748  0.3908  0.0254 -0.0443
69963POPC   GL131529  24.422   4.496  14.590 -0.2489 -0.2250 -0.0201
69963POPC   GL231530  24.362   4.166  14.569 -0.1828  0.0175  0.0155
69963POPC   C1A31531  24.050   4.751  14.576 -0.1360  0.0047 -0.1547
69963POPC   D2A31532  23.733   4.638  14.805  0.0451  0.0875  0.2696
69963POPC   C3A31533  23.345   4.663  14.584  0.1642  0.2777  0.2961
69963POPC   C4A31534  22.947   4.414  14.663  0.3129  0.0241 -0.4314
69963POPC   C1B31535  23.879   4.224  14.560 -0.1817  0.0291  0.1217
69963POPC   C2B31536  23.556   4.115  14.852 -0.0253  0.0201 -0.0615
69963POPC   C3B31537  23.588   3.964  15.332 -0.0835  0.1887  0.0868
69963POPC   C4B31538  23.661   3.463  15.403  0.3136 -0.0214 -0.3401
69964POPC   NC331539  25.597  11.069  20.210 -0.3641 -0.0716 -0.1258
69964POPC   PO431540  25.807  10.754  20.327  0.1096  0.2506 -0.0606
69964POPC   GL131541  25.679  10.650  20.014 -0.4377  0.0321  0.3543
69964POPC   GL231542  26.006  10.533  19.896  0.0098 -0.1796  0.0090
69964POPC   C1A31543  25.333  10.648  19.725 -0.0012 -0.1444 -0.1139
69964POPC   D2A31544  25.055  10.617  19.358  0.2183 -0.1002  0.0555
69964POPC   C3A31545  25.327  10.742  19.007  0.1042 -0.1603 -0.0464
69964POPC   C4A31546  25.750  10.722  18.794 -0.0919 -0.2175 -0.2633
69964POPC   C1B31547  26.197  10.423  19.432 -0.2741 -0.1900  0.3190
69964POPC   C2B31548  26.187  10.355  18.965  0.2316 -0.1277  0.1200
69964POPC   C3B31549  26.147  10.508  18.538  0.0113  0.0743 -0.0176
69964POPC   C4B31550  26.345  10.556  18.126  0.3286 -0.2304 -0.0227
69965POPC   NC331551  26.604   0.589  19.713 -0.1939 -0.2726 -0.0309
69965POPC   PO431552  26.737   0.545  19.322  0.2107  0.2019  0.1263
69965POPC   GL131553  26.833   0.180  19.089  0.2046 -0.1024 -0.2852
69965POPC   GL231554  26.810  -0.122  19.125  0.3734  0.3974  0.2954
69965POPC   C1A31555  26.674   0.043  18.681  0.0925  0.0018 -0.2378
69965POPC   D2A31556  26.850  -0.041  18.281 -0.3711  0.0271 -0.0509
69965POPC   C3A31557  27.176  -0.329  18.040 -0.0306 -0.3128 -0.0438
69965POPC   C4A31558  27.565  -0.578  18.113 -0.3297 -0.1817 -0.1571
69965POPC   C1B31559  27.184  -0.019  18.831  0.2057 -0.0718  0.1363
69965POPC   C2B31560  27.532  -0.128  18.612 -0.2707 -0.1755 -0.0768
69965POPC   C3B31561  27.598  -0.076  18.165  0.2244 -0.0401 -0.0041
69965POPC   C4B31562  27.699  -0.011  17.727 -0.0626 -0.0391 -0.1215
69966POPC   NC331563  27.806   9.121  19.364  0.1257  0.1850 -0.0921
69966POPC   PO431564  27.933   8.779  19.490 -0.3124  0.1324  0.2650
69966POPC   GL131565  27.882   8.740  19.017  0.3600 -0.2622  0.0548
69966POPC   GL231566  27.627   8.637  18.938 -0.1185 -0.1258 -0.1958
69966POPC   C1A31567  28.004   8.736  18.584  0.1290  0.0162 -0.0620
69966POPC   D2A31568  27.885   8.488  18.193  0.2023  0.0730 -0.0538
69966POPC   C3A31569  27.858   8.870  17.891 -0.0922  0.2866 -0.0641
69966POPC   C4A31570  27.869   9.062  17.488  0.0784 -0.0596 -0.0536
69966POPC   C1B31571  27.480   8.632  18.497 -0.5115 -0.0455 -0.0120
69966POPC   C2B31572  27.420   8.636  18.027 -0.1018  0.2045  0.0076
69966POPC   C3B31573  27.301   8.988  17.764 -0.2539  0.1761  0.0250
69966POPC   C4B31574  27.334   9.394  17.505 -0.2202  0.0443 -0.1414
69967POPC   NC331575   0.844  15.574  20.334 -0.1416  0.0349  0.3036
69967POPC   PO431576   0.466  15.500  20.251  0.0048 -0.1056  0.0892
69967POPC   GL131577   0.461  15.615  19.901 -0.2283 -0.0727 -0.0828
69967POPC   GL231578   0.309  15.801  19.706 -0.0896 -0.2469  0.0626
69967POPC   C1A31579   0.507  15.423  19.494 -0.0873  0.0218  0.0654
69967POPC   D2A31580   0.404  15.154  19.101  0.0660  0.1044 -0.1167
69967POPC   C3A31581   0.434  14.685  19.097 -0.1959  0.1781  0.3350
69967POPC   C4A31582   0.358  14.310  19.355 -0.0054  0.0457 -0.0293
69967POPC   C1B31583   0.579  15.937  19.352 -0.0684  0.0337 -0.3635
69967POPC   C2B31584   0.939  15.687  19.276 -0.0132 -0.1806  0.0485
69967POPC   C3B31585   1.223  15.595  18.942  0.0457 -0.1559  0.1097
69967POPC   C4B31586   1.661  15.656  18.962  0.4303  0.0852 -0.1327
69968POPC   NC331587  30.158   6.861  19.325  0.1648  0.0252  0.1929
69968POPC   PO431588  30.550   6.824  19.433 -0.1207 -0.0465 -0.0249
69968POPC   GL131589  30.699   6.674  19.161  0.2089  0.0211 -0.6164
69968POPC   GL231590  30.505   6.510  18.948  0.1065 -0.0749  0.0102
69968POPC   C1A31591  30.913   6.883  18.836  0.1877  0.0683  0.2605
69968POPC   D2A31592  31.079   6.851  18.422  0.3456  0.1445 -0.1354
69968POPC   C3A31593  31.051   7.232  18.110  0.1261 -0.1013 -0.1237
69968POPC   C4A31594  30.961   7.617  17.879  0.0162  0.1186 -0.1296
69968POPC   C1B31595  30.496   6.709  18.556  0.0106  0.1482  0.0128
69968POPC   C2B31596  30.624   6.999  18.186  0.1722 -0.1084  0.1917
69968POPC   C3B31597  30.720   7.153  17.710  0.1407 -0.0577 -0.0449
69968POPC   C4B31598  30.944   7.430  17.436 -0.3432  0.2668  0.1651
69969POPC   NC331599  21.031  15.203  20.976 -0.1294  0.0657 -0.3389
69969POPC   PO431600  21.068  15.192  20.601  0.0343 -0.0559 -0.3073
69969POPC   GL131601  20.899  15.015  20.248 -0.0927  0.1697  0.1847
69969POPC   GL231602  20.546  14.961  20.187 -0.0560  0.1883 -0.1239
69969POPC   C1A31603  21.128  14.719  19.883  0.0842 -0.2046 -0.0832
69969POPC   D2A31604  21.065  14.453  19.502 -0.2144  0.0340 -0.1907
69969POPC   C3A31605  21.247  14.454  19.074  0.0887 -0.0956  0.0678
69969POPC   C4A31606  21.182  14.408  18.615  0.1273  0.0447 -0.0364
69969POPC   C1B31607  20.360  15.035  19.761 -0.2343 -0.2666  0.0361
69969POPC   C2B31608  20.314  15.312  19.367  0.1709 -0.1076 -0.3351
69969POPC   C3B31609  20.289  15.194  18.927 -0.0133 -0.0439  0.1294
69969POPC   C4B31610  20.216  15.076  18.472  0.3519  0.4005  0.1108
69970POPC   NC331611  22.151   3.421  18.112 -0.2608 -0.0351 -0.0541
69970POPC   PO431612  22.549   3.523  18.174  0.5023  0.3407 -0.1432
69970POPC   GL131613  22.420   3.562  17.727  0.0154 -0.0376  0.0893
69970POPC   GL231614  22.336   3.293  17.679  0.2063  0.4772 -0.2341
69970POPC   C1A31615  22.222   3.548  17.245  0.1109  0.0839 -0.0953
69970POPC   D2A31616  22.207   3.624  16.788  0.0551  0.3250  0.3499
69970POPC   C3A31617  21.886   3.310  16.592 -0.0487  0.0238 -0.4333
69970POPC   C4A31618  21.660   3.278  16.279 -0.0599 -0.0727 -0.1984
69970POPC   C1B31619  21.920   3.411  17.619  0.0373  0.0215  0.0349
69970POPC   C2B31620  21.703   3.443  17.216 -0.1529 -0.1308  0.1959
69970POPC   C3B31621  21.442   3.363  16.870  0.2248  0.0768  0.0155
69970POPC   C4B31622  21.164   3.567  16.504  0.0531  0.0484  0.0400
69971POPC   NC331623   0.824  13.021  20.429  0.1933 -0.2073  0.0947
69971POPC   PO431624   0.471  13.226  20.474 -0.1960  0.0691 -0.1120
69971POPC   GL131625   0.662  13.310  20.115 -0.1417  0.2038  0.0498
69971POPC   GL231626   0.465  13.303  19.909 -0.1832  0.0266 -0.0778
69971POPC   C1A31627   0.891  13.409  19.743  0.3278 -0.2439  0.1582
69971POPC   D2A31628   1.189  13.302  19.434 -0.1564  0.1830  0.2178
69971POPC   C3A31629   1.052  13.156  19.029 -0.1586  0.3113  0.0611
69971POPC   C4A31630   0.936  12.900  18.702 -0.2425 -0.2820  0.2671
69971POPC   C1B31631   0.500  12.954  19.542 -0.0920  0.1085 -0.3123
69971POPC   C2B31632   0.590  12.958  19.076  0.2925  0.2319 -0.2230
69971POPC   C3B31633   0.468  12.823  18.607  0.1746 -0.4900 -0.1657
69971POPC   C4B31634   0.239  12.519  18.391  0.2134  0.0410  0.2087
69972POPC   NC331635  23.292  10.702  19.624 -0.0932  0.2602 -0.1072
69972POPC   PO431636  23.646  10.772  19.769 -0.1934 -0.0565  0.1358
69972POPC   GL131637  23.698  10.885  19.410 -0.1817  0.2371  0.0290
69972POPC   GL231638  23.660  11.219  19.456  0.2706  0.1027  0.2259
69972POPC   C1A31639  23.440  11.048  19.043  0.2121 -0.0747 -0.0936
69972POPC   D2A31640  23.529  11.237  18.640 -0.0144  0.0719  0.1360
69972POPC   C3A31641  23.674  11.558  18.314  0.0349  0.3862  0.1440
69972POPC   C4A31642  23.714  11.720  17.909 -0.2165 -0.0374  0.3293
69972POPC   C1B31643  23.902  11.203  19.069  0.0103 -0.0221  0.0558
69972POPC   C2B31644  23.930  10.978  18.679 -0.0072  0.0653 -0.0094
69972POPC   C3B31645  24.130  10.970  18.261 -0.1681  0.0841  0.0206
69972POPC   C4B31646  24.622  11.021  18.198  0.0355 -0.1144 -0.0236
69973POPC   NC331647  21.064   9.841  20.928  0.0065 -0.3971 -0.0610
69973POPC   PO431648  21.152   9.970  20.528 -0.2139 -0.1098 -0.0425
69973POPC   GL131649  21.224  10.013  20.169  0.0179 -0.1899 -0.2891
69973POPC   GL231650  21.049  10.254  20.123 -0.0153 -0.1793  0.5080
69973POPC   C1A31651  21.062   9.932  19.707 -0.3427 -0.1034 -0.0130
69973POPC   D2A31652  21.006   9.915  19.267 -0.1173 -0.3504 -0.1645
69973POPC   C3A31653  20.912   9.897  18.847  0.1665 -0.1970 -0.1675
69973POPC   C4A31654  20.775   9.756  18.451  0.2238 -0.0733  0.0980
69973POPC   C1B31655  21.316  10.473  19.834 -0.2505 -0.4135 -0.0366
69973POPC   C2B31656  21.443  10.898  19.752 -0.2078 -0.0578 -0.2225
69973POPC   C3B31657  21.540  11.367  19.727 -0.1561  0.0208  0.0754
69973POPC   C4B31658  21.620  11.611  19.407  0.0084  0.0082  0.0859
69974POPC   NC331659  29.944  12.725  20.370  0.1940  0.2810 -0.1358
69974POPC   PO431660  30.322  12.683  20.511 -0.0936 -0.1534  0.0029
69974POPC   GL131661  30.343  12.658  20.148  0.0103  0.1749 -0.2710
69974POPC   GL231662  30.635  12.698  20.023 -0.0303 -0.0486  0.2264
69974POPC   C1A31663  30.094  12.899  19.890  0.0271 -0.1127  0.1525
69974POPC   D2A31664  29.896  12.811  19.456 -0.0854 -0.0569  0.3568
69974POPC   C3A31665  29.977  12.882  19.035  0.0260  0.2458 -0.1414
69974POPC   C4A31666  30.136  12.964  18.626  0.1354  0.0585 -0.1303
69974POPC   C1B31667  31.003  12.492  19.826 -0.0014 -0.1462 -0.0344
69974POPC   C2B31668  30.981  12.222  19.400  0.2974  0.1350  0.3380
69974POPC   C3B31669  31.103  12.301  18.932 -0.2166 -0.1323 -0.2808
69974POPC   C4B31670  31.068  12.253  18.531 -0.0266  0.1214 -0.1583
69975POPC   NC331671  24.952  11.464  20.523  0.2291 -0.2139 -0.0184
69975POPC   PO431672  25.238  11.687  20.357  0.2576  0.0188  0.1422
69975POPC   GL131673  25.364  11.741  19.992  0.1071 -0.4931 -0.4261
69975POPC   GL231674  25.301  11.969  19.877  0.1396  0.1032 -0.1334
69975POPC   C1A31675  25.682  11.798  19.625 -0.1636  0.0853  0.2552
69975POPC   D2A31676  26.022  11.914  19.352  0.1881  0.2290  0.2005
69975POPC   C3A31677  26.055  11.765  18.892 -0.1465  0.0255 -0.3837
69975POPC   C4A31678  26.023  11.907  18.468  0.2430  0.0497 -0.2036
69975POPC   C1B31679  25.221  11.629  19.536 -0.0156 -0.1920 -0.1558
69975POPC   C2B31680  25.216  11.403  19.156 -0.1208  0.0434 -0.1533
69975POPC   C3B31681  25.423  11.188  18.804  0.2399  0.4219 -0.2766
69975POPC   C4B31682  25.492  11.075  18.404  0.0020  0.0905 -0.2915
69976POPC   NC331683  27.534   4.588  12.652  0.2261 -0.0160 -0.1668
69976POPC   PO431684  27.344   4.905  12.840  0.0729  0.0057  0.0495
69976POPC   GL131685  27.602   5.062  12.630 -0.1581 -0.1450  0.0357
69976POPC   GL231686  27.665   5.270  12.926 -0.0075 -0.1918  0.0402
69976POPC   C1A31687  27.707   4.987  12.154 -0.3497  0.1456  0.1948
69976POPC   D2A31688  27.644   5.066  11.689 -0.0414  0.0667 -0.3315
69976POPC   C3A31689  27.977   4.971  11.407  0.3775  0.2767 -0.1535
69976POPC   C4A31690  28.341   4.815  11.199 -0.0925 -0.0422  0.0022
69976POPC   C1B31691  28.107   5.342  13.066  0.3473  0.0040  0.2458
69976POPC   C2B31692  28.486   5.500  13.227 -0.1885 -0.1565 -0.0006
69976POPC   C3B31693  28.777   5.817  13.330  0.0057  0.1606 -0.1041
69976POPC   C4B31694  28.967   5.974  13.682  0.2035 -0.0122  0.0518
69977POPC   NC331695  17.266   1.094  19.961  0.1470 -0.0614  0.1130
69977POPC   PO431696  17.448   0.758  20.054  0.3036  0.2035 -0.0009
69977POPC   GL131697  17.477   0.696  19.694  0.0628 -0.1298  0.0521
69977POPC   GL231698  17.754   0.511  19.666  0.0114 -0.3027  0.0515
69977POPC   C1A31699  17.760   0.907  19.370 -0.1435 -0.0375  0.3129
69977POPC   D2A31700  17.862   1.216  19.083 -0.1487 -0.0250 -0.0513
69977POPC   C3A31701  17.936   1.129  18.638  0.0655 -0.1739  0.2070
69977POPC   C4A31702  18.229   0.997  18.284 -0.1924  0.0029  0.0611
69977POPC   C1B31703  17.462   0.390  19.323 -0.0216  0.0005  0.3295
69977POPC   C2B31704  17.419   0.544  18.911  0.0277 -0.1130  0.2052
69977POPC   C3B31705  17.610   0.710  18.513 -0.2637 -0.1056 -0.2490
69977POPC   C4B31706  17.661   1.085  18.246  0.0777 -0.0060 -0.1113
69978POPC   NC331707  21.852   6.497  18.880 -0.2962 -0.0320 -0.5405
69978POPC   PO431708  21.623   6.472  19.213  0.3985 -0.1058  0.0032
69978POPC   GL131709  21.438   6.558  18.792 -0.1372 -0.0880 -0.0303
69978POPC   GL231710  21.109   6.477  18.734  0.3305  0.1058  0.2013
69978POPC   C1A31711  21.373   7.043  18.760  0.1751 -0.1506 -0.2667
69978POPC   D2A31712  21.596   7.367  18.480 -0.3761 -0.2711  0.1330
69978POPC   C3A31713  21.428   7.366  18.155  0.3523 -0.0196 -0.0446
69978POPC   C4A31714  21.185   7.429  17.794 -0.1282 -0.2044  0.2456
69978POPC   C1B31715  20.796   6.871  18.783 -0.0211  0.3619 -0.1366
69978POPC   C2B31716  20.512   7.074  18.475 -0.2092  0.0642 -0.1010
69978POPC   C3B31717  20.330   7.256  18.068  0.1961 -0.0182 -0.1052
69978POPC   C4B31718  20.260   7.355  17.596 -0.2058 -0.1489  0.0252
69979POPC   NC331719  16.661  14.497  20.945  0.1802  0.0520  0.1202
69979POPC   PO431720  16.822  14.680  20.674 -0.1027 -0.0062  0.0985
69979POPC   GL131721  16.820  14.543  20.270 -0.1805  0.4422  0.0716
69979POPC   GL231722  16.559  14.485  20.117 -0.0707  0.4218 -0.0253
69979POPC   C1A31723  17.078  14.590  19.883 -0.0106  0.1871 -0.1257
69979POPC   D2A31724  17.332  14.861  19.642  0.2273  0.1223 -0.1028
69979POPC   C3A31725  17.181  14.878  19.179 -0.0070  0.1134  0.1933
69979POPC   C4A31726  16.813  14.818  18.900 -0.0760 -0.0382  0.2501
69979POPC   C1B31727  16.654  14.763  19.765 -0.1072 -0.0619 -0.0951
69979POPC   C2B31728  16.759  15.062  19.432  0.1727 -0.2891 -0.1113
69979POPC   C3B31729  16.639  15.304  18.987  0.1316  0.0098 -0.1923
69979POPC   C4B31730  16.524  15.561  18.645 -0.3989 -0.4063 -0.3298
69980POPC   NC331731  22.910   2.706  18.774  0.0690  0.1891 -0.0376
69980POPC   PO431732  22.632   2.642  18.517 -0.1733 -0.1332  0.0712
69980POPC   GL131733  22.615   2.589  18.141 -0.3116 -0.1507 -0.1826
69980POPC   GL231734  22.592   2.359  18.006  0.3877  0.2384  0.0398
69980POPC   C1A31735  22.290   2.659  17.800  0.1127 -0.1746  0.1211
69980POPC   D2A31736  22.007   2.925  17.554  0.0400  0.2300  0.1607
69980POPC   C3A31737  22.060   3.058  17.082  0.0088 -0.2245  0.1289
69980POPC   C4A31738  22.398   2.861  16.799  0.0992 -0.3152  0.2866
69980POPC   C1B31739  22.170   2.252  18.087 -0.2952 -0.0358  0.1285
69980POPC   C2B31740  21.808   2.078  17.848  0.2755 -0.2193  0.0737
69980POPC   C3B31741  21.613   1.689  17.650 -0.0631  0.0773  0.2928
69980POPC   C4B31742  21.462   1.620  17.249  0.2036 -0.0978  0.1325
69981POPC   NC331743  26.949   3.624  17.415 -0.1531  0.4494 -0.0049
69981POPC   PO431744  26.950   3.468  17.092 -0.2778  0.1398 -0.1818
69981POPC   GL131745  27.283   3.255  16.917 -0.3341 -0.4414 -0.0934
69981POPC   GL231746  27.409   3.589  16.811 -0.0764  0.1359 -0.1792
69981POPC   C1A31747  27.561   3.047  16.614  0.0941  0.0795 -0.1854
69981POPC   D2A31748  27.786   2.857  16.213 -0.0950  0.0115  0.1743
69981POPC   C3A31749  27.871   2.420  16.141 -0.1608 -0.1517 -0.4183
69981POPC   C4A31750  28.032   2.076  16.393 -0.3061 -0.1887  0.2258
69981POPC   C1B31751  27.897   3.466  16.922 -0.2671  0.1128 -0.0458
69981POPC   C2B31752  28.326   3.395  16.954 -0.1099  0.2764 -0.1179
69981POPC   C3B31753  28.754   3.506  16.893  0.1153 -0.2556  0.1508
69981POPC   C4B31754  29.223   3.704  16.822  0.0260  0.2353 -0.1429
69982POPC   NC331755  18.189  32.564  20.949 -0.2265 -0.1742  0.3558
69982POPC   PO431756  18.377  32.450  20.595  0.1379 -0.1150 -0.2509
69982POPC   GL131757  18.425  32.360  20.187  0.1425  0.1703 -0.2658
69982POPC   GL231758  18.633  32.230  19.971  0.0525  0.1202  0.1006
69982POPC   C1A31759  18.174  32.327  19.775 -0.0868  0.0039 -0.0173
69982POPC   D2A31760  17.817  32.394  19.487  0.3076  0.0804 -0.1169
69982POPC   C3A31761  17.741  32.382  19.020  0.0122 -0.0967 -0.0907
69982POPC   C4A31762  17.891  32.470  18.595  0.0385  0.3628  0.1665
69982POPC   C1B31763  19.030  32.330  19.687  0.1771 -0.0486 -0.2209
69982POPC   C2B31764  19.038  32.507  19.251  0.3520  0.0174  0.3676
69982POPC   C3B31765  19.247  32.426  18.879 -0.0583  0.1806 -0.1798
69982POPC   C4B31766  19.378  32.423  18.424  0.1360 -0.1322  0.1629
69983POPC   NC331767  25.014   4.523  13.458 -0.1756 -0.0702  0.0039
69983POPC   PO431768  25.086   4.807  13.163  0.1078  0.0584 -0.0801
69983POPC   GL131769  24.819   4.498  12.971  0.2004 -0.1948 -0.0572
69983POPC   GL231770  24.987   4.535  12.735  0.0889  0.1835 -0.1267
69983POPC   C1A31771  24.597   4.088  12.862  0.1872  0.1652 -0.1054
69983POPC   D2A31772  24.591   3.610  12.755 -0.0835 -0.1164  0.0027
69983POPC   C3A31773  24.257   3.343  12.887  0.1635  0.0782 -0.1050
69983POPC   C4A31774  24.014   3.328  13.281 -0.0146 -0.1503 -0.0263
69983POPC   C1B31775  24.855   4.197  12.409  0.2803 -0.0329  0.2079
69983POPC   C2B31776  24.468   3.942  12.379  0.4042 -0.0011 -0.1013
69983POPC   C3B31777  24.048   3.779  12.476  0.0895 -0.0458  0.0939
69983POPC   C4B31778  23.747   3.885  12.808  0.0305  0.4132 -0.0097
69984POPC   NC331779  16.362   2.678  19.722 -0.0610  0.1416 -0.1614
69984POPC   PO431780  16.717   2.701  19.938  0.0810 -0.1505 -0.0157
69984POPC   GL131781  16.875   2.478  19.602  0.0406  0.2397 -0.0171
69984POPC   GL231782  16.732   2.265  19.618  0.6245  0.1722 -0.0653
69984POPC   C1A31783  16.649   2.537  19.163  0.0718  0.2221  0.2138
69984POPC   D2A31784  16.801   2.338  18.728  0.0878 -0.0042 -0.0265
69984POPC   C3A31785  17.018   2.359  18.294  0.3164  0.2213  0.0902
69984POPC   C4A31786  16.889   2.369  17.861  0.1616  0.0870  0.1949
69984POPC   C1B31787  16.802   2.029  19.254  0.2110 -0.2694  0.1874
69984POPC   C2B31788  16.691   1.848  18.838 -0.1772  0.0066  0.1592
69984POPC   C3B31789  16.578   1.419  18.685 -0.3150  0.0843 -0.0552
69984POPC   C4B31790  16.220   1.182  18.860 -0.2644  0.0535 -0.2465
69985POPC   NC331791  28.219   5.476  17.447 -0.0383 -0.1196 -0.1253
69985POPC   PO431792  28.076   5.171  17.294  0.2621 -0.1762  0.7494
69985POPC   GL131793  28.270   5.056  16.932 -0.1139 -0.0471  0.0284
69985POPC   GL231794  28.102   5.236  16.758  0.2531  0.2044 -0.2339
69985POPC   C1A31795  28.363   4.853  16.562 -0.0303 -0.1495  0.1254
69985POPC   D2A31796  28.354   4.568  16.210  0.3378 -0.0191 -0.4483
69985POPC   C3A31797  28.575   4.259  15.983  0.0207 -0.2262 -0.1227
69985POPC   C4A31798  28.683   4.123  15.567 -0.2547  0.4679 -0.0250
69985POPC   C1B31799  28.245   5.530  16.426 -0.0606  0.0666 -0.0267
69985POPC   C2B31800  28.565   5.534  16.150 -0.0424 -0.1265  0.0053
69985POPC   C3B31801  28.665   5.675  15.740  0.0942 -0.3159  0.2580
69985POPC   C4B31802  29.104   5.828  15.604 -0.0588 -0.1353  0.1886
69986POPC   NC331803  29.391  10.779  20.015  0.4421 -0.0929 -0.0343
69986POPC   PO431804  29.616  10.471  20.163  0.2073 -0.2679 -0.2399
69986POPC   GL131805  29.887  10.682  19.981 -0.0331  0.1533  0.2227
69986POPC   GL231806  29.789  10.553  19.688  0.2059 -0.0210  0.2061
69986POPC   C1A31807  29.912  11.069  19.698 -0.2083 -0.0495 -0.0343
69986POPC   D2A31808  29.679  11.297  19.384 -0.1692 -0.3167  0.4170
69986POPC   C3A31809  30.018  11.381  18.992 -0.1111 -0.0491 -0.2377
69986POPC   C4A31810  30.234  11.335  18.556  0.2856 -0.0721  0.0455
69986POPC   C1B31811  29.694  10.725  19.296 -0.2267 -0.1717  0.0914
69986POPC   C2B31812  29.960  10.914  18.901 -0.0808  0.0325  0.1864
69986POPC   C3B31813  30.047  10.862  18.461 -0.0809 -0.0906 -0.3353
69986POPC   C4B31814  30.304  10.954  18.150 -0.0895 -0.0080  0.1046
69987POPC   NC331815  24.754   8.111  18.844  0.0375 -0.1594 -0.1913
69987POPC   PO431816  24.490   7.811  18.746 -0.1084  0.1629 -0.0185
69987POPC   GL131817  24.686   7.853  18.311  0.0260 -0.1999  0.1800
69987POPC   GL231818  24.822   8.089  18.368 -0.0164  0.0499  0.3436
69987POPC   C1A31819  24.624   7.949  17.847 -0.0619  0.1400  0.1718
69987POPC   D2A31820  24.505   8.178  17.476  0.0750 -0.0938  0.2041
69987POPC   C3A31821  24.097   8.342  17.570  0.0121 -0.2265  0.0797
69987POPC   C4A31822  23.639   8.352  17.410 -0.1295 -0.1474  0.1689
69987POPC   C1B31823  24.996   8.516  18.258  0.1741  0.0195  0.2126
69987POPC   C2B31824  25.044   8.843  17.867 -0.0515 -0.1221 -0.1091
69987POPC   C3B31825  25.270   9.009  17.480 -0.1318  0.2390 -0.0931
69987POPC   C4B31826  25.240   9.251  17.129 -0.0973 -0.1488 -0.2243
69988POPC   NC331827  24.934   8.779  19.192  0.1912  0.1660 -0.2116
69988POPC   PO431828  24.631   8.578  19.055 -0.3088  0.1997  0.0933
69988POPC   GL131829  24.648   8.650  18.673  0.1876  0.0111  0.0872
69988POPC   GL231830  24.558   8.961  18.690 -0.4357 -0.1105 -0.1680
69988POPC   C1A31831  24.636   8.867  18.214 -0.0600 -0.0138  0.0974
69988POPC   D2A31832  24.465   9.026  17.800  0.1521  0.1713 -0.0653
69988POPC   C3A31833  24.768   9.117  17.446 -0.0534 -0.3344  0.0853
69988POPC   C4A31834  24.757   9.501  17.188  0.2920  0.1453  0.0516
69988POPC   C1B31835  24.685   9.305  18.474  0.0228  0.3153  0.0536
69988POPC   C2B31836  24.842   9.704  18.270  0.3279 -0.0016  0.3509
69988POPC   C3B31837  24.899   9.806  17.805 -0.0332  0.1618 -0.0244
69988POPC   C4B31838  24.637  10.042  17.529  0.1799  0.2817  0.1156
69989POPC   NC331839  26.351   7.003  18.257 -0.0667 -0.2289  0.2697
69989POPC   PO431840  26.689   7.161  18.352 -0.2642  0.0698 -0.0379
69989POPC   GL131841  26.762   7.464  18.099  0.1537  0.1281  0.0424
69989POPC   GL231842  27.008   7.532  17.970  0.1013 -0.0586 -0.0407
69989POPC   C1A31843  26.517   7.631  17.730  0.0160  0.1056 -0.2844
69989POPC   D2A31844  26.308   7.573  17.329  0.3736 -0.1099 -0.2604
69989POPC   C3A31845  26.339   7.883  17.008  0.2847 -0.4287  0.1692
69989POPC   C4A31846  26.510   8.308  17.117 -0.0646 -0.2438 -0.0008
69989POPC   C1B31847  27.143   7.641  17.525  0.1748 -0.1761 -0.0497
69989POPC   C2B31848  27.419   7.888  17.224 -0.1429 -0.0299  0.0529
69989POPC   C3B31849  27.632   8.046  16.853 -0.1498  0.0716  0.1323
69989POPC   C4B31850  27.941   7.996  16.455  0.0450 -0.3935 -0.0691
69990POPC   NC331851  29.541   8.687  19.929 -0.2956  0.1917 -0.3249
69990POPC   PO431852  29.578   9.089  20.028  0.1270  0.2947  0.2032
69990POPC   GL131853  29.564   9.136  19.642  0.1457 -0.1321  0.1435
69990POPC   GL231854  29.319   9.039  19.542  0.4038  0.1435  0.0630
69990POPC   C1A31855  29.865   9.257  19.295  0.0095  0.1483 -0.0365
69990POPC   D2A31856  30.203   9.328  18.965  0.2083  0.3104  0.2378
69990POPC   C3A31857  30.237   9.489  18.538 -0.2430  0.0553  0.0304
69990POPC   C4A31858  30.095   9.941  18.436  0.0563  0.0276  0.0994
69990POPC   C1B31859  29.349   9.192  19.067  0.1038  0.0068  0.1644
69990POPC   C2B31860  29.236   9.265  18.577  0.0583 -0.2690  0.0463
69990POPC   C3B31861  29.339   9.395  18.176  0.0923 -0.1334  0.4602
69990POPC   C4B31862  29.464   9.487  17.755 -0.2704  0.0249 -0.0500
69991POPC   NC331863  22.209  13.860  20.789  0.1990  0.2517 -0.1013
69991POPC   PO431864  22.567  13.813  20.596  0.1429 -0.1163 -0.1076
69991POPC   GL131865  22.500  13.847  20.241 -0.2965  0.2185  0.1218
69991POPC   GL231866  22.414  14.055  20.023 -0.5057  0.1204  0.1741
69991POPC   C1A31867  22.343  13.591  19.873  0.1321  0.3034 -0.1089
69991POPC   D2A31868  22.316  13.527  19.424  0.1724  0.1795  0.0249
69991POPC   C3A31869  22.003  13.292  19.196  0.0940  0.3205  0.3353
69991POPC   C4A31870  21.949  13.007  18.779  0.0868 -0.1879 -0.1262
69991POPC   C1B31871  22.602  14.357  19.650 -0.0487 -0.0677  0.1843
69991POPC   C2B31872  22.475  14.280  19.140  0.1622 -0.0425 -0.2527
69991POPC   C3B31873  22.369  14.298  18.726 -0.3730  0.2620  0.0709
69991POPC   C4B31874  22.497  14.068  18.309  0.2286 -0.0429 -0.1967
69992POPC   NC331875  23.688   9.028  19.685 -0.0458  0.2079  0.0770
69992POPC   PO431876  23.320   9.138  19.594  0.1195 -0.5621 -0.0896
69992POPC   GL131877  23.279   9.325  19.261  0.3446 -0.0678  0.0076
69992POPC   GL231878  23.588   9.348  19.263  0.0953 -0.0896 -0.2433
69992POPC   C1A31879  23.294   9.737  19.073 -0.0516  0.0724  0.1159
69992POPC   D2A31880  23.391  10.037  18.756 -0.1106 -0.0492 -0.0937
69992POPC   C3A31881  23.089  10.209  18.429  0.0868  0.1163  0.1265
69992POPC   C4A31882  22.669  10.298  18.332  0.0674 -0.1551 -0.0871
69992POPC   C1B31883  23.682   9.559  18.845  0.4159  0.3375  0.0210
69992POPC   C2B31884  23.818   9.504  18.357  0.1106  0.4591  0.4732
69992POPC   C3B31885  23.710   9.743  17.924  0.0391 -0.1396 -0.1112
69992POPC   C4B31886  23.606  10.099  17.655  0.0795  0.0792  0.3012
69993POPC   NC331887  31.209  11.951  20.613  0.1831  0.1232 -0.0325
69993POPC   PO431888  30.827  11.920  20.681 -0.1214 -0.0375  0.2610
69993POPC   GL131889  30.804  11.899  20.249 -0.0273  0.0770 -0.0651
69993POPC   GL231890  30.970  12.102  20.173  0.0940  0.0354  0.1437
69993POPC   C1A31891  30.533  12.205  19.976 -0.2870  0.1879  0.1489
69993POPC   D2A31892  30.504  12.375  19.558  0.1562  0.1120 -0.2800
69993POPC   C3A31893  30.431  12.864  19.508 -0.1921  0.1968  0.2910
69993POPC   C4A31894  30.188  13.251  19.459  0.2429 -0.1209  0.2247
69993POPC   C1B31895  31.213  11.938  19.845  0.1104 -0.1028 -0.2195
69993POPC   C2B31896  31.511  11.591  19.749 -0.1238  0.2740  0.2157
69993POPC   C3B31897  31.791  11.607  19.345  0.0833 -0.0402  0.0783
69993POPC   C4B31898  32.026  11.916  19.140 -0.3118  0.1978 -0.0543
69994POPC   NC331899  15.446   2.518  19.973  0.0828  0.1236 -0.2708
69994POPC   PO431900  15.623   2.201  19.776 -0.0524  0.1411  0.1388
69994POPC   GL131901  15.218   2.254  19.512 -0.2388  0.1666 -0.3441
69994POPC   GL231902  15.227   2.513  19.388  0.2515  0.0328 -0.1355
69994POPC   C1A31903  14.977   2.124  19.130  0.0731  0.0053  0.0049
69994POPC   D2A31904  14.747   1.752  19.008  0.0353 -0.2489  0.2189
69994POPC   C3A31905  14.874   1.437  18.675 -0.0677 -0.2819 -0.0137
69994POPC   C4A31906  14.743   1.361  18.323 -0.1228 -0.2193 -0.2527
69994POPC   C1B31907  15.356   2.419  18.956  0.0994 -0.0860  0.2779
69994POPC   C2B31908  15.120   2.244  18.566  0.2494 -0.1270  0.1442
69994POPC   C3B31909  14.982   2.222  18.077  0.2354 -0.1736 -0.0525
69994POPC   C4B31910  14.703   2.209  17.687  0.3155  0.1148 -0.1281
69995POPC   NC331911  26.214   1.888  18.729 -0.0791  0.0910  0.2673
69995POPC   PO431912  26.564   1.991  18.557  0.0478 -0.4636  0.0261
69995POPC   GL131913  26.726   1.874  18.215  0.4159  0.1268  0.1147
69995POPC   GL231914  26.658   1.805  17.944 -0.3042 -0.3323 -0.4958
69995POPC   C1A31915  27.126   1.854  17.988  0.1306  0.2718 -0.2532
69995POPC   D2A31916  27.491   1.872  17.782 -0.0858 -0.1634 -0.2998
69995POPC   C3A31917  27.629   1.532  17.560 -0.0669  0.1196  0.1033
69995POPC   C4A31918  27.409   1.287  17.236 -0.3864 -0.0505  0.1744
69995POPC   C1B31919  26.953   1.618  17.633  0.2190 -0.0118  0.4233
69995POPC   C2B31920  26.928   1.196  17.347  0.0714 -0.3203 -0.0115
69995POPC   C3B31921  27.045   0.972  16.960 -0.0242 -0.2098 -0.0351
69995POPC   C4B31922  27.406   1.031  16.750 -0.4116 -0.0542 -0.4601
69996POPC   NC331923  18.287   5.700  19.766  0.0565  0.1002  0.3403
69996POPC   PO431924  17.999   5.935  20.012  0.1717  0.1296  0.2674
69996POPC   GL131925  17.970   6.056  19.644 -0.0700 -0.1412  0.0594
69996POPC   GL231926  17.842   6.270  19.534 -0.1381 -0.2912  0.2478
69996POPC   C1A31927  18.160   5.947  19.225 -0.1070  0.1185  0.0380
69996POPC   D2A31928  18.065   5.692  18.868 -0.1308  0.0382  0.1167
69996POPC   C3A31929  17.611   5.528  18.884 -0.0840  0.0517  0.1655
69996POPC   C4A31930  17.256   5.446  19.164 -0.2880  0.2040  0.2560
69996POPC   C1B31931  17.936   6.570  19.153  0.2502 -0.2405 -0.1596
69996POPC   C2B31932  17.901   6.735  18.766  0.0108 -0.3436  0.2237
69996POPC   C3B31933  18.217   6.859  18.470  0.2578  0.1541  0.1298
69996POPC   C4B31934  18.266   7.055  18.063  0.0026 -0.2551  0.2238
69997POPC   NC331935  32.328  15.325  20.400 -0.1010  0.2633  0.1951
69997POPC   PO431936  32.410  15.719  20.316  0.1251 -0.1419  0.1308
69997POPC   GL131937  32.262  15.677  19.906 -0.0083 -0.0481  0.0245
69997POPC   GL231938  32.416  15.385  19.929  0.1663  0.0803 -0.4219
69997POPC   C1A31939  32.100  15.488  19.529 -0.4173  0.4997 -0.1344
69997POPC   D2A31940  32.273  15.425  19.169 -0.2689 -0.2187  0.0293
69997POPC   C3A31941  32.142  15.074  18.858  0.0621  0.2009 -0.1307
69997POPC   C4A31942  31.976  14.658  18.637  0.2230  0.0174  0.1803
69997POPC   C1B31943  32.738  15.436  19.582 -0.0645  0.0400  0.0529
69997POPC   C2B31944  32.936  15.576  19.194  0.0369  0.0730  0.4358
69997POPC   C3B31945  33.292  15.599  18.941  0.0822 -0.1279  0.2344
69997POPC   C4B31946  33.393  15.365  18.533  0.2706  0.0771 -0.1611
69998POPC   NC331947  25.123   0.608  18.619  0.3133  0.1536 -0.0535
69998POPC   PO431948  24.929   0.943  18.502 -0.0381  0.2952  0.1370
69998POPC   GL131949  24.834   0.658  18.173  0.2130  0.0027  0.0803
69998POPC   GL231950  25.134   0.615  18.112 -0.1142  0.2288 -0.0867
69998POPC   C1A31951  24.687   0.255  18.031 -0.1098  0.1488  0.0387
69998POPC   D2A31952  24.624   0.013  17.597 -0.0964  0.0586 -0.1882
69998POPC   C3A31953  24.385  -0.362  17.379 -0.1959  0.2624 -0.4713
69998POPC   C4A31954  24.213  -0.457  16.975  0.1154 -0.0901  0.0946
69998POPC   C1B31955  25.358   0.249  18.202  0.1299  0.0917 -0.2270
69998POPC   C2B31956  25.787   0.091  18.232 -0.2586 -0.1482 -0.3031
69998POPC   C3B31957  25.927  -0.215  17.974 -0.0529 -0.1974 -0.2554
69998POPC   C4B31958  26.238  -0.420  17.670 -0.0326 -0.1330  0.0812
69999POPC   NC331959  24.495  12.599  19.955  0.0138  0.1635 -0.0381
69999POPC   PO431960  24.443  12.210  20.017 -0.1843  0.1438  0.1118
69999POPC   GL131961  24.611  12.261  19.711  0.1008  0.1012 -0.2800
69999POPC   GL231962  24.946  12.278  19.751 -0.1203  0.1643 -0.0842
69999POPC   C1A31963  24.440  12.406  19.261  0.1383 -0.0375  0.0954
69999POPC   D2A31964  24.278  12.467  18.859 -0.6212 -0.1959 -0.1031
69999POPC   C3A31965  24.227  12.113  18.546  0.2778  0.0983 -0.1595
69999POPC   C4A31966  24.213  11.981  18.092 -0.1630 -0.0205 -0.1217
69999POPC   C1B31967  24.933  12.347  19.301  0.3247 -0.0588  0.0914
69999POPC   C2B31968  25.191  12.323  18.903 -0.1207 -0.0060 -0.2121
69999POPC   C3B31969  25.171  12.385  18.465  0.2663 -0.0252 -0.0079
69999POPC   C4B31970  25.007  12.818  18.331 -0.0418 -0.1914  0.0886
70000POPC   NC331971  25.795   4.575  13.006 -0.2003  0.1718 -0.0236
70000POPC   PO431972  25.813   4.353  13.326  0.2609  0.1277  0.0417
70000POPC   GL131973  26.172   4.221  13.301 -0.0958 -0.0640 -0.1320
70000POPC   GL231974  26.304   4.174  12.995  0.2046  0.1019  0.3916
70000POPC   C1A31975  26.284   3.821  13.480  0.2015 -0.0404 -0.1524
70000POPC   D2A31976  26.545   3.512  13.283 -0.2575 -0.0128 -0.0776
70000POPC   C3A31977  26.641   3.062  13.358 -0.0142 -0.1104  0.0699
70000POPC   C4A31978  26.611   2.682  13.622 -0.1522  0.0800 -0.1824
70000POPC   C1B31979  26.300   3.757  12.840 -0.2030  0.1397  0.1230
70000POPC   C2B31980  25.987   3.449  12.952  0.0871 -0.0771 -0.1070
70000POPC   C3B31981  25.687   3.160  12.728 -0.1297 -0.1048  0.1268
70000POPC   C4B31982  25.448   2.857  12.491 -0.0944  0.1327  0.0819
70001POPC   NC331983  25.574   4.072  14.119 -0.2028  0.1502 -0.0421
70001POPC   PO431984  25.344   4.127  14.398  0.1361 -0.0002  0.0974
70001POPC   GL131985  25.161   3.866  14.156 -0.0094  0.2797 -0.1117
70001POPC   GL231986  25.286   3.726  13.920  0.2530  0.0268  0.1939
70001POPC   C1A31987  24.788   3.875  13.899 -0.0468 -0.0996 -0.1547
70001POPC   D2A31988  24.335   3.729  13.768  0.0448  0.1374  0.1515
70001POPC   C3A31989  24.010   3.398  13.876 -0.1653  0.1186 -0.0619
70001POPC   C4A31990  24.045   3.015  13.639  0.0795 -0.1889 -0.0993
70001POPC   C1B31991  25.306   3.299  14.079  0.2819 -0.1976  0.0823
70001POPC   C2B31992  25.413   2.842  14.103 -0.1347  0.3479 -0.2040
70001POPC   C3B31993  25.190   2.478  14.294 -0.0222  0.2798 -0.2074
70001POPC   C4B31994  25.151   2.093  14.524  0.3949  0.0638  0.0631
70002POPC   NC331995  25.123   3.910  15.343  0.0767  0.2572 -0.2089
70002POPC   PO431996  24.740   3.883  15.195 -0.0592 -0.0950  0.1130
70002POPC   GL131997  24.480   3.854  15.035  0.0102  0.4955 -0.0113
70002POPC   GL231998  24.427   3.518  15.183 -0.0101 -0.0532 -0.1384
70002POPC   C1A31999  24.339   3.565  14.670  0.1079 -0.0305  0.0549
70002POPC   D2A32000  24.034   3.331  14.352  0.4608 -0.5895 -0.0188
70002POPC   C3A32001  24.019   2.923  14.257  0.0004 -0.1055  0.2536
70002POPC   C4A32002  24.021   2.452  14.352 -0.0083 -0.1749  0.1762
70002POPC   C1B32003  24.423   3.069  15.012 -0.1914  0.0532  0.0084
70002POPC   C2B32004  24.466   3.021  14.544  0.2065 -0.0860 -0.0843
70002POPC   C3B32005  24.446   2.686  14.246 -0.2753 -0.1225  0.1179
70002POPC   C4B32006  24.269   2.450  13.923  0.3948  0.0101 -0.0560
70003POPC   NC332007  15.735   9.818  20.140 -0.0440 -0.1341 -0.1967
70003POPC   PO432008  15.726   9.535  20.384 -0.1226  0.0705 -0.1453
70003POPC   GL132009  15.743   9.390  20.006  0.0471  0.2273  0.1470
70003POPC   GL232010  15.985   9.462  19.929  0.1185  0.1577  0.0898
70003POPC   C1A32011  15.613   9.006  19.815 -0.4103 -0.1494  0.2866
70003POPC   D2A32012  15.893   8.683  19.704  0.1695 -0.1747 -0.1482
70003POPC   C3A32013  15.751   8.336  19.458 -0.1875  0.2505  0.1746
70003POPC   C4A32014  15.701   7.905  19.549  0.0665 -0.2119  0.0291
70003POPC   C1B32015  15.873   9.667  19.496 -0.4814  0.0396  0.1880
70003POPC   C2B32016  15.973   9.762  19.092 -0.2703 -0.2498  0.0398
70003POPC   C3B32017  16.194  10.044  18.775  0.0387 -0.0063  0.1073
70003POPC   C4B32018  16.297  10.153  18.362 -0.0003  0.2741  0.1784
70004POPC   NC332019  25.905   0.345  19.192  0.0094  0.2369 -0.1169
70004POPC   PO432020  25.606   0.580  19.186  0.0865 -0.0096 -0.1754
70004POPC   GL132021  25.512   0.522  18.802  0.1566  0.0053 -0.4600
70004POPC   GL232022  25.490   0.205  18.726 -0.2111 -0.0619 -0.1124
70004POPC   C1A32023  25.756   0.543  18.397 -0.0237  0.0771  0.0604
70004POPC   D2A32024  26.154   0.524  18.248  0.0113  0.0442 -0.2026
70004POPC   C3A32025  26.135   0.295  17.832  0.1671 -0.2026 -0.1849
70004POPC   C4A32026  25.924   0.188  17.447 -0.0282  0.0672 -0.1189
70004POPC   C1B32027  25.536  -0.203  18.573  0.0996  0.0632  0.0936
70004POPC   C2B32028  25.509  -0.420  18.186  0.1775  0.2549 -0.1728
70004POPC   C3B32029  25.721  -0.694  17.909  0.2985 -0.4372 -0.2552
70004POPC   C4B32030  26.054  -0.902  17.744 -0.1241  0.2156  0.1612
70005POPC   NC332031  30.567   4.626  18.913  0.0014 -0.0085 -0.1167
70005POPC   PO432032  30.952   4.705  18.972  0.2880 -0.0116 -0.3456
70005POPC   GL132033  31.292   4.636  18.730 -0.2318 -0.1433  0.0167
70005POPC   GL232034  31.360   4.406  18.887 -0.5297  0.0310 -0.1632
70005POPC   C1A32035  31.510   4.728  18.292 -0.1277  0.1242 -0.0979
70005POPC   D2A32036  31.738   4.595  17.905  0.1140  0.2729 -0.0855
70005POPC   C3A32037  31.494   4.512  17.503  0.0565 -0.3475 -0.0530
70005POPC   C4A32038  31.289   4.845  17.294 -0.1218 -0.1068 -0.0994
70005POPC   C1B32039  31.349   4.206  18.474 -0.1447  0.4149 -0.2943
70005POPC   C2B32040  31.410   4.181  18.018 -0.0392 -0.0641  0.1736
70005POPC   C3B32041  31.435   4.062  17.602 -0.0087  0.1858 -0.1517
70005POPC   C4B32042  31.580   3.798  17.238  0.0052 -0.0001  0.0374
70006POPC   NC332043  26.606   3.287  16.722  0.1935 -0.3304 -0.2059
70006POPC   PO432044  26.270   3.088  16.719  0.0462  0.0777  0.0081
70006POPC   GL132045  26.406   2.711  16.717 -0.1620 -0.0002  0.3562
70006POPC   GL232046  26.295   2.643  16.405 -0.2343 -0.0607 -0.0653
70006POPC   C1A32047  26.731   2.464  16.601  0.0068  0.0657  0.0508
70006POPC   D2A32048  26.816   1.982  16.717  0.0579 -0.2776 -0.1228
70006POPC   C3A32049  26.712   1.693  16.420  0.0709  0.2002 -0.0895
70006POPC   C4A32050  26.751   1.642  15.949  0.1198  0.1888  0.0027
70006POPC   C1B32051  26.378   2.183  16.389 -0.1368  0.0326 -0.1037
70006POPC   C2B32052  26.249   1.807  16.182 -0.0702  0.1809  0.0598
70006POPC   C3B32053  26.235   1.385  15.900  0.0122 -0.0576 -0.1042
70006POPC   C4B32054  26.184   1.086  15.545  0.4431 -0.0875  0.2549
70007POPC   NC332055  24.893   4.354  14.320 -0.1162  0.1678 -0.1374
70007POPC   PO432056  24.949   4.659  14.130 -0.3280  0.1900  0.0513
70007POPC   GL132057  24.627   4.642  13.819  0.0877  0.0540 -0.3948
70007POPC   GL232058  24.625   4.373  13.803 -0.3100  0.0292  0.0697
70007POPC   C1A32059  24.162   4.678  13.723 -0.1853 -0.1077  0.0416
70007POPC   D2A32060  23.849   4.922  13.904 -0.2209 -0.0008  0.0624
70007POPC   C3A32061  23.402   4.796  13.801  0.1679  0.1600  0.2100
70007POPC   C4A32062  23.229   5.031  13.473  0.0449  0.0387 -0.2328
70007POPC   C1B32063  24.428   4.101  14.091 -0.2120  0.1211 -0.0264
70007POPC   C2B32064  24.043   3.856  14.222 -0.3222  0.3270 -0.2785
70007POPC   C3B32065  23.775   3.698  14.604  0.5074 -0.0018  0.1976
70007POPC   C4B32066  23.483   3.668  14.971  0.2410 -0.2565  0.3626
70008POPC   NC332067  17.348  15.402  20.891 -0.2180  0.1808 -0.0661
70008POPC   PO432068  17.517  15.115  20.662  0.2587 -0.1541 -0.0436
70008POPC   GL132069  17.683  15.088  20.354  0.0212  0.0913  0.1262
70008POPC   GL232070  17.811  14.886  20.214  0.1315  0.2073 -0.0234
70008POPC   C1A32071  17.614  15.160  19.882 -0.0561  0.2587 -0.0615
70008POPC   D2A32072  17.736  15.031  19.411  0.1237 -0.1042 -0.1192
70008POPC   C3A32073  17.633  15.115  18.981  0.2744  0.0271 -0.1363
70008POPC   C4A32074  17.438  14.832  18.698 -0.4637  0.0946 -0.1348
70008POPC   C1B32075  18.079  14.930  19.807 -0.0251 -0.0170  0.0508
70008POPC   C2B32076  18.250  14.841  19.445 -0.0766 -0.1370  0.1775
70008POPC   C3B32077  18.444  14.905  19.052  0.2374 -0.0916 -0.0249
70008POPC   C4B32078  18.401  15.114  18.634 -0.0337  0.2736  0.0360
70009POPC   NC332079  25.016   6.605  16.007  0.0855 -0.0266 -0.2377
70009POPC   PO432080  25.243   6.581  15.682 -0.0720 -0.0261  0.1247
70009POPC   GL132081  24.902   6.678  15.521 -0.0418 -0.1903 -0.1762
70009POPC   GL232082  24.849   6.916  15.677  0.1900 -0.0687  0.3640
70009POPC   C1A32083  24.744   6.947  15.201 -0.0497 -0.4444  0.1472
70009POPC   D2A32084  24.506   7.183  15.018  0.1878 -0.2638 -0.0162
70009POPC   C3A32085  24.009   7.211  15.010  0.2015 -0.1396 -0.1004
70009POPC   C4A32086  23.511   7.281  15.126  0.3530 -0.1835 -0.1182
70009POPC   C1B32087  24.589   7.231  15.817  0.0639  0.1125 -0.2083
70009POPC   C2B32088  24.655   7.706  15.813 -0.0425  0.2124 -0.1986
70009POPC   C3B32089  24.703   8.132  15.915  0.1409 -0.1357  0.2486
70009POPC   C4B32090  24.610   8.404  16.306  0.1332  0.0819  0.0234
70010POPC   NC332091  30.011   1.564  19.692 -0.2213 -0.0847 -0.1518
70010POPC   PO432092  29.623   1.705  19.581 -0.1598 -0.0807 -0.1624
70010POPC   GL132093  29.755   1.431  19.316  0.2151 -0.3469 -0.0910
70010POPC   GL232094  29.464   1.349  19.211 -0.0202 -0.0748 -0.1969
70010POPC   C1A32095  29.814   1.261  18.880 -0.0010  0.3342 -0.1069
70010POPC   D2A32096  30.205   1.181  18.664 -0.0951  0.0690  0.1418
70010POPC   C3A32097  30.403   1.567  18.515 -0.2279  0.0731  0.1768
70010POPC   C4A32098  30.762   1.784  18.639  0.0851  0.2173 -0.2149
70010POPC   C1B32099  29.354   1.248  18.782 -0.0631  0.3100  0.0045
70010POPC   C2B32100  29.268   0.861  18.543 -0.0671 -0.1627  0.1382
70010POPC   C3B32101  29.326   0.628  18.163 -0.0262  0.0062 -0.1787
70010POPC   C4B32102  29.570   0.340  17.867  0.0060  0.3231  0.0607
70011POPC   NC332103  23.454   3.522  16.938  0.2810 -0.1545 -0.1906
70011POPC   PO432104  23.818   3.477  16.950 -0.1555 -0.1687  0.2064
70011POPC   GL132105  23.739   3.407  16.595 -0.2920  0.4188  0.0639
70011POPC   GL232106  23.525   3.228  16.553  0.0572  0.1264 -0.1396
70011POPC   C1A32107  23.696   3.527  16.174 -0.0100  0.1947  0.1321
70011POPC   D2A32108  23.446   3.307  15.881  0.1576 -0.3265  0.1226
70011POPC   C3A32109  22.989   3.089  15.906 -0.2404 -0.2102 -0.1388
70011POPC   C4A32110  22.892   2.788  15.565  0.0395  0.1794 -0.1427
70011POPC   C1B32111  23.376   2.907  16.228  0.0232 -0.1181 -0.0686
70011POPC   C2B32112  22.958   2.659  16.257  0.1805  0.1034 -0.0089
70011POPC   C3B32113  22.513   2.670  16.355  0.0394 -0.2830  0.2783
70011POPC   C4B32114  22.265   2.382  16.519 -0.1132 -0.0206 -0.0867
70012POPC   NC332115  26.887   3.710  14.914  0.0879 -0.0423  0.3978
70012POPC   PO432116  26.944   4.050  15.072 -0.1175 -0.3845 -0.2021
70012POPC   GL132117  27.303   3.850  14.997 -0.1052  0.1593  0.2855
70012POPC   GL232118  27.494   4.062  14.919 -0.0341 -0.1559  0.0548
70012POPC   C1A32119  27.470   3.549  14.681  0.1119  0.2013 -0.0058
70012POPC   D2A32120  27.839   3.457  14.425 -0.1920 -0.0983 -0.0813
70012POPC   C3A32121  28.013   3.034  14.513 -0.0109 -0.0659  0.1026
70012POPC   C4A32122  27.860   2.782  14.877  0.1006 -0.0209  0.0409
70012POPC   C1B32123  27.718   3.974  14.521 -0.0350  0.0182 -0.3394
70012POPC   C2B32124  27.745   3.868  14.059 -0.0016  0.2324 -0.0506
70012POPC   C3B32125  27.967   3.491  13.923 -0.1035 -0.0086  0.0761
70012POPC   C4B32126  28.180   3.059  13.983 -0.1239 -0.2746 -0.1317
70013POPC   NC332127  30.873   5.114  18.734 -0.2793 -0.0639 -0.0517
70013POPC   PO432128  31.144   5.281  19.031  0.2330 -0.2296 -0.0164
70013POPC   GL132129  31.309   5.514  18.800 -0.1092  0.3673  0.0025
70013POPC   GL232130  31.540   5.653  18.799  0.0923  0.3237 -0.0521
70013POPC   C1A32131  31.213   5.517  18.367 -0.0394  0.0899 -0.0304
70013POPC   D2A32132  31.316   5.743  17.984  0.2357 -0.2164  0.1368
70013POPC   C3A32133  31.195   6.199  17.913  0.0743 -0.0705 -0.3452
70013POPC   C4A32134  30.892   6.363  17.594 -0.1313 -0.3650  0.1822
70013POPC   C1B32135  31.725   5.746  18.370  0.0435 -0.0484  0.0565
70013POPC   C2B32136  31.885   5.779  17.938 -0.0253 -0.2024 -0.1067
70013POPC   C3B32137  32.015   5.444  17.620  0.0567  0.0693  0.1797
70013POPC   C4B32138  31.874   5.070  17.306  0.1410 -0.1343 -0.2297
70014POPC   NC332139  24.425   4.900  15.876  0.0770  0.0538  0.3459
70014POPC   PO432140  24.043   5.046  15.929  0.0079  0.1816 -0.1364
70014POPC   GL132141  23.660   4.914  15.865 -0.2903  0.2048 -0.3169
70014POPC   GL232142  23.697   4.658  15.873 -0.1137 -0.2640 -0.0086
70014POPC   C1A32143  23.398   5.241  15.683  0.0482 -0.0663  0.0274
70014POPC   D2A32144  23.316   5.412  15.307 -0.1314  0.2685 -0.0781
70014POPC   C3A32145  22.949   5.210  15.036 -0.0740  0.1227 -0.1095
70014POPC   C4A32146  22.708   4.833  14.960 -0.0253  0.1822 -0.1222
70014POPC   C1B32147  23.230   4.704  15.917 -0.3744 -0.1158  0.0914
70014POPC   C2B32148  22.920   4.983  15.836  0.1079  0.3147  0.5201
70014POPC   C3B32149  22.842   5.310  15.510 -0.0304 -0.2609  0.0291
70014POPC   C4B32150  22.653   5.686  15.268 -0.1196 -0.1702 -0.0638
70015POPC   NC332151  31.133   1.150  20.011 -0.1085 -0.0643  0.1798
70015POPC   PO432152  31.291   0.859  19.930 -0.2214 -0.1668  0.1646
70015POPC   GL132153  31.327   1.164  19.626 -0.4428 -0.2719 -0.0734
70015POPC   GL232154  31.623   1.173  19.528  0.2579  0.2270 -0.1141
70015POPC   C1A32155  31.213   1.202  19.199 -0.3147 -0.0813  0.2055
70015POPC   D2A32156  31.167   1.354  18.739 -0.0691  0.1362 -0.0908
70015POPC   C3A32157  31.581   1.609  18.659  0.2767  0.0014  0.1376
70015POPC   C4A32158  31.740   2.014  18.578  0.0461  0.4003 -0.0953
70015POPC   C1B32159  31.935   0.925  19.283  0.3255 -0.2577 -0.0190
70015POPC   C2B32160  32.335   0.919  19.017 -0.1692 -0.1573  0.0595
70015POPC   C3B32161  32.728   0.711  18.853 -0.1930 -0.2058 -0.1304
70015POPC   C4B32162  33.034   0.618  18.477 -0.0096  0.0208 -0.0357
70016POPC   NC332163  16.175  13.305  20.724 -0.1687  0.1279  0.1475
70016POPC   PO432164  16.565  13.282  20.665 -0.1067 -0.0527 -0.2626
70016POPC   GL132165  16.538  13.388  20.175  0.0754  0.3818  0.1379
70016POPC   GL232166  16.792  13.574  20.202  0.0400  0.0658 -0.1030
70016POPC   C1A32167  16.206  13.493  19.942  0.2034  0.2332  0.2087
70016POPC   D2A32168  15.880  13.421  19.602 -0.0235 -0.1021 -0.2454
70016POPC   C3A32169  15.827  13.276  19.163 -0.3142 -0.0940  0.1471
70016POPC   C4A32170  15.642  13.242  18.784  0.0869 -0.2475  0.4915
70016POPC   C1B32171  17.086  13.364  19.888  0.3667 -0.1101 -0.0350
70016POPC   C2B32172  17.179  13.378  19.442  0.0633  0.1388 -0.1531
70016POPC   C3B32173  16.782  13.527  19.221  0.3324 -0.1247 -0.1795
70016POPC   C4B32174  16.360  13.638  19.017 -0.1352  0.1664 -0.0179
70017POPC   NC332175  27.799  11.968  20.659  0.0243 -0.1507 -0.2061
70017POPC   PO432176  28.144  12.013  20.581  0.2628 -0.0002  0.3515
70017POPC   GL132177  27.967  11.847  20.197 -0.1680 -0.0359 -0.5084
70017POPC   GL232178  28.231  11.867  20.075 -0.1448  0.3180 -0.4414
70017POPC   C1A32179  27.860  12.024  19.761  0.1876  0.0004  0.0051
70017POPC   D2A32180  27.551  12.306  19.618  0.0536  0.0093 -0.1749
70017POPC   C3A32181  27.625  12.680  19.367  0.0543 -0.1255 -0.0955
70017POPC   C4A32182  27.634  12.826  18.948 -0.1211  0.0841 -0.0823
70017POPC   C1B32183  28.360  12.107  19.688 -0.1050 -0.1113  0.0424
70017POPC   C2B32184  28.520  12.205  19.267  0.1171  0.0662 -0.0448
70017POPC   C3B32185  28.844  12.082  18.894  0.1123 -0.2693 -0.2272
70017POPC   C4B32186  28.823  12.045  18.450 -0.0383  0.0261 -0.2583
70018POPC   NC332187  28.601   1.369  19.468  0.0645  0.1163  0.1826
70018POPC   PO432188  28.624   1.524  19.111  0.3414 -0.2357  0.0193
70018POPC   GL132189  28.705   1.578  18.838 -0.2699 -0.0979 -0.3187
70018POPC   GL232190  28.953   1.532  18.666 -0.0076  0.1097 -0.0608
70018POPC   C1A32191  28.497   1.410  18.461  0.0245 -0.1268  0.1896
70018POPC   D2A32192  28.399   1.083  18.141 -0.1944  0.0684  0.0338
70018POPC   C3A32193  28.458   1.160  17.685  0.2606 -0.0218  0.1217
70018POPC   C4A32194  28.472   0.894  17.345 -0.2039 -0.0063 -0.1544
70018POPC   C1B32195  28.969   1.243  18.244  0.0503  0.2838  0.0913
70018POPC   C2B32196  28.952   1.067  17.812 -0.1706  0.1609 -0.0755
70018POPC   C3B32197  29.004   1.154  17.353  0.0926  0.0401 -0.2456
70018POPC   C4B32198  29.195   1.185  16.896  0.1148  0.1805 -0.1739
70019POPC   NC332199  19.560   5.719  19.305 -0.0538 -0.1575 -0.4053
70019POPC   PO432200  19.538   5.325  19.203  0.1479 -0.2560  0.0576
70019POPC   GL132201  19.693   5.188  18.853  0.1955 -0.0133 -0.1929
70019POPC   GL232202  20.006   5.215  18.899  0.0151  0.1733 -0.0306
70019POPC   C1A32203  19.382   5.049  18.503 -0.2222  0.0957  0.1251
70019POPC   D2A32204  19.205   5.100  18.070  0.0446 -0.1009  0.0628
70019POPC   C3A32205  18.956   5.357  17.805 -0.0227 -0.0697 -0.1369
70019POPC   C4A32206  19.036   5.492  17.382  0.0300 -0.2057  0.3060
70019POPC   C1B32207  19.946   5.030  18.490  0.2616  0.1714 -0.1573
70019POPC   C2B32208  20.004   4.814  18.087  0.4990  0.2466 -0.0029
70019POPC   C3B32209  20.199   4.911  17.710  0.2489 -0.2393 -0.0900
70019POPC   C4B32210  20.297   5.305  17.477  0.0275  0.2213 -0.0475
70020POPC   NC332211  19.335  13.797  20.380  0.0294 -0.0435  0.0474
70020POPC   PO432212  19.433  13.546  20.618 -0.0626 -0.0107  0.1338
70020POPC   GL132213  19.341  13.369  20.276 -0.1170 -0.0911  0.0071
70020POPC   GL232214  19.666  13.354  20.201 -0.2479  0.1738 -0.0318
70020POPC   C1A32215  19.136  13.034  20.020  0.2715  0.2333 -0.0582
70020POPC   D2A32216  18.989  12.940  19.602  0.2457  0.3002 -0.0524
70020POPC   C3A32217  18.992  12.681  19.195 -0.3026 -0.1726 -0.0443
70020POPC   C4A32218  19.066  12.318  18.961  0.0497 -0.0700  0.3478
70020POPC   C1B32219  19.880  13.402  19.810  0.0561 -0.1518  0.1468
70020POPC   C2B32220  19.970  13.218  19.385  0.1837 -0.0525  0.2294
70020POPC   C3B32221  20.120  13.033  19.003 -0.0950 -0.0950  0.1048
70020POPC   C4B32222  20.121  12.726  18.631  0.2427  0.0935 -0.1816
70021POPC   NC332223  20.115  12.627  20.640 -0.0409 -0.1557  0.0308
70021POPC   PO432224  19.748  12.707  20.755 -0.0978 -0.1652  0.3724
70021POPC   GL132225  19.553  12.893  20.371 -0.0974  0.0887 -0.1011
70021POPC   GL232226  19.814  12.860  20.243  0.2594  0.0993  0.1685
70021POPC   C1A32227  19.500  12.664  19.990  0.1396  0.0542 -0.4605
70021POPC   D2A32228  19.417  12.213  19.963  0.0070  0.0674 -0.0890
70021POPC   C3A32229  19.451  11.905  19.622  0.3851 -0.0619  0.0508
70021POPC   C4A32230  19.238  11.818  19.206 -0.1723 -0.0141 -0.2124
70021POPC   C1B32231  19.929  12.900  19.794  0.2453 -0.3354  0.0376
70021POPC   C2B32232  20.060  12.696  19.410 -0.3216 -0.6163  0.2695
70021POPC   C3B32233  19.808  12.552  19.010 -0.4130 -0.1713 -0.2530
70021POPC   C4B32234  19.569  12.204  18.815  0.1812  0.0129 -0.3177
70022POPC   NC332235  28.446   6.749  18.736  0.1258  0.1261  0.0411
70022POPC   PO432236  28.519   6.454  18.524  0.2059  0.0136  0.3718
70022POPC   GL132237  28.750   6.779  18.349 -0.2388  0.1262 -0.1688
70022POPC   GL232238  28.595   7.058  18.340  0.2380  0.0480  0.0707
70022POPC   C1A32239  29.049   6.842  17.984  0.3926  0.2188  0.1878
70022POPC   D2A32240  29.332   6.721  17.622 -0.1473 -0.0960 -0.1654
70022POPC   C3A32241  29.591   6.809  17.285  0.1775  0.0429 -0.1414
70022POPC   C4A32242  29.578   6.908  16.855 -0.1374  0.0109 -0.1568
70022POPC   C1B32243  28.851   7.436  18.323  0.0013 -0.0372 -0.1527
70022POPC   C2B32244  29.099   7.706  18.100 -0.0749 -0.1263 -0.1269
70022POPC   C3B32245  29.087   7.993  17.735  0.0612 -0.4001 -0.0916
70022POPC   C4B32246  29.188   8.229  17.347 -0.2176 -0.3675 -0.2012
70023POPC   NC332247  25.273   3.129  15.405  0.0767 -0.2707 -0.3284
70023POPC   PO432248  25.410   3.515  15.442  0.1917 -0.1410  0.0363
70023POPC   GL132249  25.760   3.320  15.302  0.0507 -0.1526  0.1602
70023POPC   GL232250  25.746   3.121  15.558 -0.0924 -0.2092 -0.0578
70023POPC   C1A32251  25.716   2.935  15.032  0.1388  0.0289 -0.0315
70023POPC   D2A32252  25.959   2.507  14.912 -0.2551 -0.0979 -0.0821
70023POPC   C3A32253  25.657   2.196  15.106 -0.3538  0.1603 -0.0143
70023POPC   C4A32254  25.566   1.754  15.273 -0.0312 -0.1757 -0.0721
70023POPC   C1B32255  26.064   2.892  15.406 -0.3712  0.0458  0.2155
70023POPC   C2B32256  26.396   2.669  15.188  0.0179  0.0218 -0.1667
70023POPC   C3B32257  26.521   2.267  15.016  0.1137  0.1790 -0.1411
70023POPC   C4B32258  26.804   1.882  15.086 -0.1798  0.0394 -0.1760
70024POPC   NC332259  27.971   7.860  19.222  0.0446 -0.0257 -0.0880
70024POPC   PO432260  28.303   7.693  19.124 -0.3044 -0.1371 -0.1909
70024POPC   GL132261  28.258   8.098  18.985 -0.0731 -0.1883 -0.1510
70024POPC   GL232262  28.245   8.397  19.090  0.0012  0.1475 -0.1654
70024POPC   C1A32263  28.293   8.329  18.583 -0.0218  0.0317 -0.0911
70024POPC   D2A32264  28.406   8.619  18.291 -0.4384 -0.0218  0.5236
70024POPC   C3A32265  28.192   9.036  18.212  0.6202  0.0249  0.1795
70024POPC   C4A32266  27.908   9.353  18.392 -0.0396 -0.0398  0.1568
70024POPC   C1B32267  28.622   8.620  18.896  0.0366 -0.1102 -0.3406
70024POPC   C2B32268  28.810   8.393  18.512 -0.0882 -0.3958  0.4256
70024POPC   C3B32269  29.139   8.304  18.152 -0.0186 -0.1715  0.1431
70024POPC   C4B32270  29.332   8.495  17.782  0.0886 -0.2211 -0.1753
70025POPC   NC332271  29.311  10.738  20.556 -0.1497 -0.0393 -0.0371
70025POPC   PO432272  29.135  11.031  20.400  0.0089 -0.1959 -0.3725
70025POPC   GL132273  28.948  11.129  20.019 -0.2212 -0.3182 -0.2748
70025POPC   GL232274  29.073  11.412  20.061 -0.4068 -0.3330  0.0121
70025POPC   C1A32275  28.867  11.224  19.566  0.0091 -0.1485  0.0375
70025POPC   D2A32276  28.816  11.169  19.083  0.2760  0.0461 -0.1266
70025POPC   C3A32277  29.101  10.870  18.869 -0.0800 -0.3100  0.1786
70025POPC   C4A32278  29.505  10.591  18.838  0.1300 -0.1384  0.0463
70025POPC   C1B32279  29.372  11.304  19.737 -0.2474  0.2236 -0.0133
70025POPC   C2B32280  29.285  11.065  19.344 -0.2174  0.0666  0.3374
70025POPC   C3B32281  29.518  11.196  18.898 -0.1999  0.1630 -0.0079
70025POPC   C4B32282  29.580  10.979  18.482  0.0845 -0.0875  0.1281
70026POPC   NC332283  29.438   6.946  19.310  0.1491 -0.0742 -0.1076
70026POPC   PO432284  29.163   6.985  18.997 -0.1636  0.3653  0.3957
70026POPC   GL132285  29.300   6.996  18.593  0.1336 -0.0879 -0.1911
70026POPC   GL232286  29.135   6.993  18.464  0.2453 -0.0499  0.0754
70026POPC   C1A32287  29.689   6.974  18.386  0.1447  0.2218  0.1526
70026POPC   D2A32288  30.110   7.101  18.309 -0.0103  0.0891 -0.1888
70026POPC   C3A32289  30.089   7.319  17.904  0.2880 -0.2229  0.1940
70026POPC   C4A32290  30.157   7.561  17.508  0.1339 -0.1340  0.0823
70026POPC   C1B32291  29.348   7.204  18.088  0.0525  0.0439 -0.0067
70026POPC   C2B32292  29.681   7.061  17.769 -0.2323  0.0750 -0.0302
70026POPC   C3B32293  30.055   6.988  17.449  0.3056  0.0113 -0.0091
70026POPC   C4B32294  30.341   7.033  17.105 -0.1633 -0.2387  0.2381
70027POPC   NC332295  29.228   7.886  19.337  0.0338 -0.2912  0.0119
70027POPC   PO432296  29.272   8.026  19.715 -0.2543 -0.1606  0.0907
70027POPC   GL132297  29.584   8.151  19.486  0.4675  0.2519  0.4644
70027POPC   GL232298  29.737   8.350  19.625  0.0491  0.0641  0.0933
70027POPC   C1A32299  29.699   8.236  19.024  0.3639  0.1198  0.0398
70027POPC   D2A32300  29.885   8.446  18.667 -0.0567  0.1589 -0.1369
70027POPC   C3A32301  29.967   8.010  18.481  0.1279  0.1085 -0.4416
70027POPC   C4A32302  30.038   7.801  18.054  0.0324  0.2947  0.1282
70027POPC   C1B32303  30.048   8.303  19.323 -0.2560  0.0808 -0.0848
70027POPC   C2B32304  30.277   8.355  18.910 -0.1909 -0.0283  0.2027
70027POPC   C3B32305  30.444   8.609  18.506  0.0549  0.2123  0.0564
70027POPC   C4B32306  30.736   8.735  18.193 -0.1876  0.0640 -0.0578
70028POPC   NC332307  28.066   4.064  17.768  0.1283  0.0544  0.0872
70028POPC   PO432308  27.704   3.924  17.600 -0.0140  0.2529 -0.0637
70028POPC   GL132309  27.920   3.745  17.377  0.1041 -0.1277  0.3805
70028POPC   GL232310  28.095   3.571  17.455 -0.1432  0.2237 -0.2091
70028POPC   C1A32311  28.213   3.912  17.039  0.1205  0.2018  0.1553
70028POPC   D2A32312  28.420   3.741  16.642  0.0228 -0.1465 -0.0724
70028POPC   C3A32313  28.521   3.301  16.501 -0.1189  0.0753  0.0959
70028POPC   C4A32314  28.617   3.057  16.116 -0.1492  0.1957  0.1670
70028POPC   C1B32315  28.539   3.727  17.427 -0.1645  0.0861  0.1420
70028POPC   C2B32316  28.801   3.974  17.129 -0.1961 -0.0281 -0.1140
70028POPC   C3B32317  28.921   4.034  16.698 -0.1283 -0.1248  0.1920
70028POPC   C4B32318  29.196   4.235  16.372 -0.0781  0.5304 -0.1353
70029POPC   NC332319  17.080  10.965  20.312 -0.3696  0.0779 -0.0632
70029POPC   PO432320  17.459  10.889  20.488 -0.0494  0.3174 -0.1969
70029POPC   GL132321  17.766  10.869  20.085 -0.3774 -0.2103 -0.1021
70029POPC   GL232322  17.700  10.617  20.038  0.0125 -0.1117  0.0028
70029POPC   C1A32323  17.845  11.220  19.778  0.3004 -0.0995  0.3235
70029POPC   D2A32324  18.004  11.338  19.355 -0.1079  0.1780  0.2688
70029POPC   C3A32325  18.375  11.427  19.026  0.0202  0.0039  0.0161
70029POPC   C4A32326  18.826  11.405  19.156 -0.1685 -0.1465 -0.1466
70029POPC   C1B32327  17.546  10.590  19.570 -0.1686 -0.1187 -0.0095
70029POPC   C2B32328  17.487  10.505  19.126 -0.3832  0.2146  0.1938
70029POPC   C3B32329  17.600  10.379  18.718 -0.3622  0.1603 -0.0388
70029POPC   C4B32330  17.858  10.141  18.400 -0.0320 -0.2562 -0.0370
70030POPC   NC332331  22.980   1.278  19.029  0.1970  0.2344  0.1600
70030POPC   PO432332  22.734   1.257  19.319 -0.2513  0.0470 -0.1143
70030POPC   GL132333  22.792   0.820  19.211  0.0222 -0.3548  0.1509
70030POPC   GL232334  22.630   0.828  18.960  0.0875 -0.1789 -0.0524
70030POPC   C1A32335  22.674   0.336  19.202  0.0203  0.1164 -0.1541
70030POPC   D2A32336  22.709   0.008  18.877  0.0366  0.1042 -0.1037
70030POPC   C3A32337  22.781  -0.197  18.508  0.3186  0.1046 -0.0034
70030POPC   C4A32338  22.573  -0.491  18.248  0.0268 -0.2726  0.0244
70030POPC   C1B32339  22.208   0.924  18.754 -0.1787 -0.1069  0.0574
70030POPC   C2B32340  21.908   0.949  18.406 -0.2035  0.0355  0.1550
70030POPC   C3B32341  21.911   0.908  17.922  0.0016  0.1977  0.2668
70030POPC   C4B32342  21.820   1.181  17.570 -0.1386  0.1584 -0.2189
70031POPC   NC332343  28.898   3.488  18.896  0.0748 -0.2014  0.1399
70031POPC   PO432344  29.221   3.435  18.688  0.2782 -0.3112 -0.2078
70031POPC   GL132345  29.467   3.292  18.325 -0.3828 -0.0616  0.0565
70031POPC   GL232346  29.726   3.253  18.523  0.2626 -0.2301  0.0457
70031POPC   C1A32347  29.458   3.412  17.890  0.0422  0.1216  0.0590
70031POPC   D2A32348  29.693   3.362  17.466 -0.0629  0.0013 -0.1747
70031POPC   C3A32349  29.954   2.972  17.566 -0.0287  0.1287 -0.1998
70031POPC   C4A32350  30.188   2.834  17.935 -0.2936  0.2436 -0.3493
70031POPC   C1B32351  30.130   3.388  18.435  0.3968  0.1801  0.0426
70031POPC   C2B32352  30.391   3.230  18.141 -0.1437 -0.0414  0.2100
70031POPC   C3B32353  30.505   3.152  17.720 -0.2447  0.1726  0.1606
70031POPC   C4B32354  30.591   3.037  17.277  0.2155 -0.2112 -0.0845
70032POPC   NC332355  27.240   5.833  14.250 -0.0019 -0.0694  0.1371
70032POPC   PO432356  27.277   5.444  14.272 -0.1536 -0.0481  0.0527
70032POPC   GL132357  27.637   5.280  14.155 -0.0049  0.1032  0.3432
70032POPC   GL232358  27.775   5.227  14.433  0.2193  0.1192 -0.0729
70032POPC   C1A32359  27.966   5.625  14.116  0.1715 -0.0322 -0.1731
70032POPC   D2A32360  28.330   5.867  14.233 -0.1858  0.0611 -0.1004
70032POPC   C3A32361  28.233   6.018  14.661  0.1838  0.0897 -0.2635
70032POPC   C4A32362  27.936   6.050  15.004  0.2326 -0.1854  0.1887
70032POPC   C1B32363  28.084   5.105  14.079  0.1622 -0.1634  0.0346
70032POPC   C2B32364  28.345   5.121  13.631 -0.0966  0.1290  0.2334
70032POPC   C3B32365  28.474   4.985  13.224  0.2015  0.1377 -0.1976
70032POPC   C4B32366  28.485   4.697  12.889 -0.2119  0.1166  0.0155
70033POPC   NC332367  22.201   4.384  17.783  0.3839  0.0475 -0.1642
70033POPC   PO432368  22.583   4.491  17.700 -0.0929  0.3080 -0.0923
70033POPC   GL132369  22.424   4.194  17.389 -0.1361 -0.4444  0.0679
70033POPC   GL232370  22.258   3.998  17.403 -0.1503 -0.2381  0.2546
70033POPC   C1A32371  22.067   4.474  17.226 -0.2393 -0.0588  0.0960
70033POPC   D2A32372  21.656   4.411  16.975  0.1721  0.1828 -0.0192
70033POPC   C3A32373  21.425   4.194  16.607 -0.0963 -0.1274 -0.0027
70033POPC   C4A32374  21.153   4.472  16.303 -0.1660  0.0567  0.0080
70033POPC   C1B32375  21.863   3.918  17.193 -0.0059 -0.1635  0.1488
70033POPC   C2B32376  21.669   3.779  16.805 -0.2563 -0.0245  0.2994
70033POPC   C3B32377  21.584   3.818  16.348 -0.1934  0.1153 -0.0009
70033POPC   C4B32378  21.669   3.876  15.911 -0.1160 -0.2337 -0.1210
70034POPC   NC332379  32.365   1.092  20.207  0.0274 -0.0412  0.0146
70034POPC   PO432380  32.584   1.430  20.145 -0.3825  0.0054  0.2109
70034POPC   GL132381  32.596   1.293  19.777  0.1096 -0.2267  0.0357
70034POPC   GL232382  32.668   1.010  19.746 -0.1784 -0.2043 -0.2386
70034POPC   C1A32383  32.757   1.530  19.380 -0.0423  0.1507  0.1517
70034POPC   D2A32384  33.165   1.811  19.342  0.2513  0.0087 -0.2772
70034POPC   C3A32385  33.359   1.555  18.938  0.0102 -0.0025 -0.0068
70034POPC   C4A32386  33.534   1.559  18.458 -0.0118 -0.2529 -0.2701
70034POPC   C1B32387  32.737   1.010  19.278 -0.0605  0.0826  0.2378
70034POPC   C2B32388  32.670   1.283  18.883 -0.0527  0.1177 -0.2004
70034POPC   C3B32389  32.535   1.475  18.481 -0.0425 -0.2358 -0.0666
70034POPC   C4B32390  32.598   1.655  18.078 -0.0845  0.1637  0.1475
70035POPC   NC332391  29.808   9.521  20.176  0.2116 -0.0331  0.2378
70035POPC   PO432392  29.982   9.819  19.985 -0.0649  0.1142 -0.1513
70035POPC   GL132393  29.930   9.721  19.590 -0.1777 -0.1935 -0.3535
70035POPC   GL232394  29.784  10.027  19.555  0.2869 -0.1375 -0.0039
70035POPC   C1A32395  29.533   9.603  19.403 -0.0001 -0.3083  0.0943
70035POPC   D2A32396  29.351   9.669  18.939 -0.3504  0.0403 -0.3150
70035POPC   C3A32397  29.650  10.055  18.756 -0.0341 -0.1466 -0.1221
70035POPC   C4A32398  29.856  10.448  18.564  0.1846 -0.1563  0.1034
70035POPC   C1B32399  30.223  10.064  19.361  0.0590  0.0319  0.1121
70035POPC   C2B32400  30.390  10.132  18.988  0.0733 -0.0288  0.4072
70035POPC   C3B32401  30.598  10.530  18.780 -0.1568  0.0626  0.4474
70035POPC   C4B32402  30.516  10.926  18.620 -0.2287  0.2067  0.0697
70036POPC   NC332403  27.889   4.808  16.752  0.2150 -0.1242 -0.2351
70036POPC   PO432404  27.696   4.546  16.981  0.0581  0.1183  0.3187
70036POPC   GL132405  27.966   4.221  16.891 -0.0471 -0.1151  0.0226
70036POPC   GL232406  28.081   4.378  16.619  0.1201  0.2471 -0.0312
70036POPC   C1A32407  27.911   3.856  16.592  0.0975  0.1577 -0.0674
70036POPC   D2A32408  28.051   3.443  16.419 -0.3113  0.1537 -0.0255
70036POPC   C3A32409  28.210   3.253  15.992  0.3286  0.2059  0.0473
70036POPC   C4A32410  28.339   3.250  15.553 -0.2108  0.2638 -0.0158
70036POPC   C1B32411  28.488   4.205  16.520 -0.1085  0.0214  0.2447
70036POPC   C2B32412  28.776   3.844  16.266 -0.2196 -0.1596  0.2610
70036POPC   C3B32413  28.992   3.380  16.416 -0.0904 -0.1230 -0.1067
70036POPC   C4B32414  29.278   3.214  16.627  0.3088  0.0399 -0.3300
70037POPC   NC332415  23.215   7.468  18.497  0.0628  0.1254 -0.1376
70037POPC   PO432416  23.043   7.238  18.241 -0.0978  0.0643 -0.1370
70037POPC   GL132417  22.885   7.519  18.092  0.1209 -0.2084  0.0290
70037POPC   GL232418  23.122   7.707  18.006 -0.4051 -0.0363 -0.0135
70037POPC   C1A32419  22.504   7.428  17.800 -0.2048 -0.1517 -0.1398
70037POPC   D2A32420  22.180   7.208  17.568 -0.2144  0.1484  0.1817
70037POPC   C3A32421  22.133   7.299  17.085  0.0085  0.1116 -0.1613
70037POPC   C4A32422  22.406   7.229  16.730 -0.3417 -0.0504  0.0366
70037POPC   C1B32423  23.146   8.056  17.742  0.0247 -0.1339  0.0066
70037POPC   C2B32424  22.971   8.396  17.454 -0.0080 -0.4484 -0.3099
70037POPC   C3B32425  22.961   8.721  17.106  0.2383 -0.0576  0.0612
70037POPC   C4B32426  22.852   8.963  16.752  0.1805 -0.0987  0.0141
70038POPC   NC332427  24.948   6.256  14.125  0.1116  0.1679 -0.0982
70038POPC   PO432428  25.157   5.955  13.958 -0.0031 -0.0199  0.0167
70038POPC   GL132429  25.448   6.237  13.999  0.2715 -0.1172  0.0086
70038POPC   GL232430  25.424   6.426  13.820 -0.1869 -0.0809 -0.1126
70038POPC   C1A32431  25.741   6.632  14.135 -0.2628 -0.0052  0.1508
70038POPC   D2A32432  26.106   6.904  14.176 -0.1721 -0.0116  0.0581
70038POPC   C3A32433  26.098   7.369  14.256  0.5754  0.0736 -0.0823
70038POPC   C4A32434  26.005   7.794  14.300  0.0795  0.0127 -0.1572
70038POPC   C1B32435  25.127   6.763  13.797  0.0765  0.0179 -0.0335
70038POPC   C2B32436  24.749   7.050  13.778  0.0905 -0.0998  0.1497
70038POPC   C3B32437  24.330   7.118  13.693  0.0657 -0.0068 -0.1513
70038POPC   C4B32438  23.900   6.985  13.563  0.0793  0.1281 -0.1631
70039POPC   NC332439  30.835   3.431  19.411 -0.3960  0.0931 -0.0023
70039POPC   PO432440  31.169   3.524  19.288 -0.1340  0.1547 -0.1052
70039POPC   GL132441  31.406   3.548  18.942  0.0678 -0.2993 -0.1253
70039POPC   GL232442  31.469   3.243  19.009 -0.0502  0.1693 -0.2513
70039POPC   C1A32443  31.869   3.430  18.858 -0.1492 -0.0018  0.0010
70039POPC   D2A32444  32.303   3.392  18.573 -0.2568 -0.2408  0.1005
70039POPC   C3A32445  32.422   3.463  18.078 -0.3388  0.1190 -0.0545
70039POPC   C4A32446  32.417   3.731  17.699 -0.1046  0.2027 -0.2096
70039POPC   C1B32447  31.423   3.316  18.572  0.3442 -0.0492  0.0813
70039POPC   C2B32448  31.374   3.195  18.122  0.1271  0.0333 -0.2179
70039POPC   C3B32449  31.646   3.054  17.813  0.2249 -0.3292 -0.0986
70039POPC   C4B32450  31.864   2.791  17.535  0.0481  0.2435 -0.5957
70040POPC   NC332451  23.959   8.051  18.753 -0.2791  0.0877 -0.0978
70040POPC   PO432452  24.250   8.183  19.021 -0.1545  0.1113  0.1708
70040POPC   GL132453  24.335   8.313  18.740 -0.2465  0.1039  0.4461
70040POPC   GL232454  24.296   8.166  18.452 -0.1936 -0.1652  0.2813
70040POPC   C1A32455  24.229   8.652  18.450 -0.0704 -0.1099  0.2922
70040POPC   D2A32456  24.075   8.727  18.016 -0.1380 -0.0708 -0.1282
70040POPC   C3A32457  23.880   8.827  17.571  0.1508  0.1888  0.2679
70040POPC   C4A32458  23.747   9.074  17.202  0.0490  0.1803 -0.1298
70040POPC   C1B32459  23.864   8.373  18.338  0.2051 -0.1183  0.1414
70040POPC   C2B32460  23.388   8.327  18.253 -0.0458 -0.0479 -0.3424
70040POPC   C3B32461  22.965   8.499  18.123  0.0474 -0.1875 -0.1202
70040POPC   C4B32462  22.641   8.609  18.403 -0.0334  0.3362 -0.2400
70041POPC   NC332463  16.948   7.207  19.999  0.0648 -0.1769  0.0260
70041POPC   PO432464  17.212   7.462  20.123 -0.0215  0.0500  0.1101
70041POPC   GL132465  17.305   7.456  19.739  0.3927  0.0253  0.2631
70041POPC   GL232466  17.601   7.564  19.792 -0.0813 -0.2259  0.2044
70041POPC   C1A32467  17.148   7.357  19.291 -0.0747 -0.2324  0.2571
70041POPC   D2A32468  17.077   7.524  18.829  0.1374  0.0645 -0.0733
70041POPC   C3A32469  17.361   7.386  18.504 -0.0868  0.0170  0.0384
70041POPC   C4A32470  17.578   7.300  18.087 -0.2599 -0.3650 -0.0985
70041POPC   C1B32471  17.955   7.496  19.527  0.1501  0.0198 -0.1342
70041POPC   C2B32472  18.163   7.438  19.110  0.2515  0.0459  0.0887
70041POPC   C3B32473  18.211   7.499  18.635 -0.3045  0.1302 -0.2097
70041POPC   C4B32474  18.586   7.512  18.318 -0.1399 -0.2061  0.0558
70042POPC   NC332475  29.119  12.794  20.746 -0.0506  0.1415 -0.0264
70042POPC   PO432476  29.467  12.644  20.625  0.3461 -0.1659  0.2205
70042POPC   GL132477  29.552  12.495  20.277  0.0008  0.1200 -0.0007
70042POPC   GL232478  29.643  12.228  20.184  0.0933 -0.0396 -0.1377
70042POPC   C1A32479  29.219  12.352  20.013  0.1152 -0.1882 -0.1516
70042POPC   D2A32480  28.896  12.155  19.922 -0.2972 -0.2496  0.0641
70042POPC   C3A32481  29.107  12.131  19.488  0.2798 -0.1712 -0.0816
70042POPC   C4A32482  29.376  12.082  19.097  0.1048 -0.0796 -0.1727
70042POPC   C1B32483  29.628  12.112  19.707  0.4451  0.0492 -0.1591
70042POPC   C2B32484  29.770  11.904  19.306  0.1000 -0.3239 -0.1125
70042POPC   C3B32485  29.707  11.768  18.899 -0.1983 -0.0554  0.1284
70042POPC   C4B32486  29.756  11.683  18.483  0.3073 -0.0980  0.1985
70043POPC   NC332487  19.554  14.367  19.995 -0.2554 -0.0311 -0.1887
70043POPC   PO432488  19.274  14.316  20.267 -0.1104 -0.0505 -0.0335
70043POPC   GL132489  19.112  14.143  19.913 -0.0260 -0.2844  0.0449
70043POPC   GL232490  18.807  14.299  20.024 -0.3819 -0.1993  0.0645
70043POPC   C1A32491  19.258  14.133  19.514 -0.1557  0.0054  0.0281
70043POPC   D2A32492  19.183  14.010  19.088  0.0485  0.1546  0.1290
70043POPC   C3A32493  19.453  14.339  18.901 -0.0375  0.0713 -0.0450
70043POPC   C4A32494  19.834  14.643  18.964 -0.0076  0.0739 -0.1132
70043POPC   C1B32495  18.741  13.965  19.694 -0.1069  0.1400  0.2151
70043POPC   C2B32496  18.700  13.824  19.252  0.0764 -0.3435 -0.2592
70043POPC   C3B32497  18.759  13.961  18.818 -0.0379 -0.3268 -0.1568
70043POPC   C4B32498  18.596  14.181  18.434  0.3506  0.0553 -0.1048
70044POPC   NC332499  23.708  14.229  19.883 -0.2036 -0.2166  0.0597
70044POPC   PO432500  23.935  13.909  19.860 -0.2401 -0.2708 -0.0061
70044POPC   GL132501  23.834  13.884  19.455 -0.4139  0.3676 -0.1427
70044POPC   GL232502  24.109  14.062  19.400 -0.1104 -0.3016 -0.0396
70044POPC   C1A32503  23.930  13.709  19.053  0.2184  0.0744  0.0689
70044POPC   D2A32504  24.030  13.403  18.764 -0.0855 -0.0058  0.0751
70044POPC   C3A32505  23.764  13.412  18.370 -0.1191 -0.2099 -0.4480
70044POPC   C4A32506  23.700  13.232  17.937 -0.0090 -0.0241  0.0579
70044POPC   C1B32507  24.401  13.732  19.167  0.2043 -0.1624  0.0262
70044POPC   C2B32508  24.463  13.348  19.133  0.1106  0.3484 -0.1879
70044POPC   C3B32509  24.366  12.959  18.871 -0.0558  0.3062 -0.1166
70044POPC   C4B32510  24.443  12.904  18.459  0.0341 -0.1514 -0.3025
70045POPC   NC332511  17.898  10.357  20.426 -0.0645 -0.1432 -0.3503
70045POPC   PO432512  17.740  10.018  20.260  0.0490  0.0766 -0.0847
70045POPC   GL132513  17.710   9.949  19.941  0.1157  0.3092 -0.3967
70045POPC   GL232514  17.520  10.132  19.835  0.0040  0.1979  0.1238
70045POPC   C1A32515  17.964   9.762  19.646  0.1045 -0.2575 -0.2664
70045POPC   D2A32516  18.232   9.845  19.314 -0.2319 -0.0836  0.0255
70045POPC   C3A32517  17.997   9.934  18.967 -0.0974  0.0155  0.1740
70045POPC   C4A32518  17.596   9.861  18.682  0.0324  0.1771 -0.2507
70045POPC   C1B32519  17.395   9.983  19.385 -0.0618 -0.0375  0.1801
70045POPC   C2B32520  17.121   9.768  19.000  0.2085  0.0180 -0.2751
70045POPC   C3B32521  17.182   9.629  18.601 -0.1269  0.1315  0.0892
70045POPC   C4B32522  17.084   9.508  18.139  0.0727  0.0319 -0.3333
70046POPC   NC332523  23.201   7.888  19.258  0.1126 -0.1030  0.1765
70046POPC   PO432524  23.401   8.202  19.334  0.2127  0.3132  0.1477
70046POPC   GL132525  23.404   8.600  19.104 -0.2430 -0.1616 -0.0424
70046POPC   GL232526  23.524   8.845  19.183 -0.1955  0.0135 -0.1751
70046POPC   C1A32527  23.132   8.661  18.728 -0.0271  0.1242 -0.0084
70046POPC   D2A32528  23.253   8.854  18.362  0.0591 -0.1626 -0.2111
70046POPC   C3A32529  23.237   9.331  18.348 -0.0030 -0.1066 -0.1055
70046POPC   C4A32530  23.374   9.755  18.346 -0.0464  0.0822 -0.2085
70046POPC   C1B32531  23.423   9.089  18.819 -0.0381 -0.1484  0.0715
70046POPC   C2B32532  22.995   9.322  18.778  0.2299 -0.3057  0.1955
70046POPC   C3B32533  22.561   9.363  18.652 -0.4196  0.2154 -0.0868
70046POPC   C4B32534  22.287   9.098  18.409  0.0357 -0.2457  0.0083
70047POPC   NC332535  27.227   4.377  15.443 -0.2807  0.1419 -0.2099
70047POPC   PO432536  27.234   4.764  15.425  0.0222 -0.1070  0.1419
70047POPC   GL132537  27.472   4.785  15.188 -0.4229  0.4110  0.2225
70047POPC   GL232538  27.603   4.543  15.175  0.0341  0.0023  0.1922
70047POPC   C1A32539  27.876   4.974  14.999  0.3472 -0.1003  0.0888
70047POPC   D2A32540  28.293   4.817  14.998 -0.0330  0.1130  0.1076
70047POPC   C3A32541  28.287   4.408  14.782  0.1038 -0.2717  0.3711
70047POPC   C4A32542  28.431   4.173  14.432 -0.1802 -0.3470 -0.0701
70047POPC   C1B32543  28.044   4.614  15.323  0.1562  0.2923 -0.2270
70047POPC   C2B32544  28.500   4.586  15.351 -0.2249 -0.0394 -0.0515
70047POPC   C3B32545  28.952   4.510  15.311  0.0589 -0.1087 -0.0548
70047POPC   C4B32546  29.258   4.293  14.985  0.1919 -0.1424 -0.1029
70048POPC   NC332547  24.425   9.377  19.560 -0.2211 -0.1554  0.0623
70048POPC   PO432548  24.810   9.299  19.658 -0.3360  0.1517  0.1756
70048POPC   GL132549  24.822   9.423  19.293  0.1734 -0.1330 -0.2862
70048POPC   GL232550  24.949   9.249  19.100 -0.3198  0.2226  0.4511
70048POPC   C1A32551  24.495   9.632  19.094 -0.0992 -0.1499 -0.3974
70048POPC   D2A32552  24.202   9.668  18.799 -0.0957  0.0125  0.1812
70048POPC   C3A32553  24.343   9.701  18.375 -0.1465  0.1745 -0.1417
70048POPC   C4A32554  24.458  10.035  18.096  0.1017  0.0156 -0.0482
70048POPC   C1B32555  25.049   9.497  18.777  0.3446 -0.1306  0.0575
70048POPC   C2B32556  24.763   9.861  18.730  0.0279 -0.3034 -0.0306
70048POPC   C3B32557  24.672  10.222  18.453  0.2138 -0.1525  0.1440
70048POPC   C4B32558  24.771  10.521  18.116  0.0557  0.2899 -0.1860
70049POPC   NC332559  24.510   7.407  18.426  0.1997  0.2848  0.5541
70049POPC   PO432560  24.484   7.108  18.108 -0.1763  0.1000  0.0388
70049POPC   GL132561  24.209   7.221  17.858  0.3534 -0.1275  0.2773
70049POPC   GL232562  24.212   7.485  17.916 -0.0337  0.0213 -0.3068
70049POPC   C1A32563  24.091   7.381  17.403 -0.0254  0.1470 -0.1139
70049POPC   D2A32564  23.672   7.431  17.139 -0.2853 -0.2437  0.0370
70049POPC   C3A32565  23.278   7.693  17.089  0.1134  0.4354  0.0001
70049POPC   C4A32566  22.901   8.003  17.096  0.0155  0.4931  0.3159
70049POPC   C1B32567  24.050   7.846  17.635 -0.1982  0.3685  0.3796
70049POPC   C2B32568  23.910   7.889  17.240 -0.0545 -0.0071 -0.0486
70049POPC   C3B32569  23.718   8.152  16.927  0.1184  0.0255 -0.0842
70049POPC   C4B32570  23.580   8.395  16.537 -0.0891 -0.0423 -0.0806
70050POPC   NC332571  21.974  14.959  20.370 -0.0356 -0.1121 -0.0527
70050POPC   PO432572  22.112  15.259  20.613 -0.0977  0.0437 -0.2054
70050POPC   GL132573  22.288  15.241  20.256  0.0434  0.1024 -0.2416
70050POPC   GL232574  22.536  15.404  20.074  0.1631 -0.4322  0.2190
70050POPC   C1A32575  22.070  15.050  19.885  0.0185 -0.2547  0.1865
70050POPC   D2A32576  21.973  14.953  19.439  0.0339  0.4260 -0.3200
70050POPC   C3A32577  21.614  14.653  19.395 -0.4047  0.4943 -0.0876
70050POPC   C4A32578  21.473  14.292  19.728 -0.2422 -0.0425  0.1090
70050POPC   C1B32579  22.534  15.154  19.721 -0.0682  0.0837 -0.0480
70050POPC   C2B32580  22.405  14.730  19.446 -0.0048 -0.1132 -0.2342
70050POPC   C3B32581  22.162  14.624  19.071 -0.2195  0.1199 -0.3127
70050POPC   C4B32582  21.738  14.504  18.849 -0.1511  0.1279  0.1013
70051POPC   NC332583  23.448   5.300  16.656 -0.0604  0.0520  0.0156
70051POPC   PO432584  23.349   5.655  16.833 -0.1793 -0.0602  0.0655
70051POPC   GL132585  23.032   5.484  16.544  0.2106  0.2999  0.0201
70051POPC   GL232586  23.104   5.687  16.363  0.0808 -0.1659 -0.0210
70051POPC   C1A32587  22.583   5.462  16.358 -0.2023  0.3101  0.0508
70051POPC   D2A32588  22.150   5.435  16.159  0.2066  0.2759 -0.0711
70051POPC   C3A32589  21.684   5.424  16.332 -0.2637 -0.1364 -0.1668
70051POPC   C4A32590  21.259   5.294  16.575 -0.0824 -0.1218  0.0405
70051POPC   C1B32591  23.169   6.067  16.107  0.1688 -0.0409 -0.2342
70051POPC   C2B32592  23.058   6.369  15.819 -0.1202  0.1566 -0.2591
70051POPC   C3B32593  22.971   6.556  15.423 -0.2406  0.1948  0.0484
70051POPC   C4B32594  23.278   6.538  15.072 -0.2690  0.2307  0.0929
70052POPC   NC332595  26.445   6.054  14.223  0.0209 -0.0741 -0.3365
70052POPC   PO432596  26.690   5.870  14.454  0.1629  0.1586  0.1305
70052POPC   GL132597  26.958   6.205  14.324  0.1105  0.1213 -0.1466
70052POPC   GL232598  26.905   6.417  14.080  0.4568 -0.1749  0.1640
70052POPC   C1A32599  27.399   6.308  14.297 -0.0660 -0.5032 -0.2728
70052POPC   D2A32600  27.599   6.347  14.719 -0.6967 -0.3821 -0.0483
70052POPC   C3A32601  28.017   6.517  14.644 -0.0848 -0.2207 -0.1606
70052POPC   C4A32602  28.383   6.463  14.426  0.1832 -0.0660 -0.3714
70052POPC   C1B32603  26.979   6.855  14.026 -0.0548  0.1247 -0.2099
70052POPC   C2B32604  27.156   7.298  13.923 -0.2374  0.1857 -0.0045
70052POPC   C3B32605  27.241   7.738  13.979 -0.0291  0.0781 -0.0754
70052POPC   C4B32606  27.419   8.134  13.804 -0.0881  0.1410  0.1340
70053POPC   NC332607  27.589   6.590  16.742 -0.2312 -0.2496  0.0362
70053POPC   PO432608  27.332   6.645  16.992 -0.2274  0.0402 -0.0732
70053POPC   GL132609  27.414   7.043  16.923 -0.1161 -0.1167  0.2995
70053POPC   GL232610  27.278   7.002  16.604  0.2677  0.0539  0.2913
70053POPC   C1A32611  27.819   7.069  16.709  0.1099  0.1398  0.2392
70053POPC   D2A32612  28.125   6.797  16.446  0.0195  0.0063  0.2588
70053POPC   C3A32613  28.505   6.938  16.308  0.2511  0.1760 -0.0250
70053POPC   C4A32614  28.542   7.141  15.941  0.1930  0.0023 -0.0014
70053POPC   C1B32615  27.152   7.123  16.181  0.0760  0.1817 -0.1391
70053POPC   C2B32616  27.227   7.202  15.716  0.0142  0.2539 -0.0103
70053POPC   C3B32617  27.254   7.459  15.364  0.1463  0.1127 -0.0318
70053POPC   C4B32618  27.452   7.511  14.923  0.2347  0.2033 -0.0496
70054POPC   NC332619  31.264   8.021  19.721 -0.2372  0.0660 -0.1603
70054POPC   PO432620  31.589   8.258  19.825 -0.0124 -0.1865  0.1408
70054POPC   GL132621  31.744   8.035  19.499 -0.1730 -0.0759 -0.0341
70054POPC   GL232622  31.755   8.286  19.344  0.1600 -0.3266  0.0571
70054POPC   C1A32623  32.135   7.974  19.271 -0.2037  0.4181  0.0621
70054POPC   D2A32624  32.258   8.107  18.833  0.0720 -0.0536  0.0034
70054POPC   C3A32625  31.859   8.269  18.716  0.0108  0.1277 -0.0589
70054POPC   C4A32626  31.488   8.545  18.672 -0.1151  0.2465  0.0864
70054POPC   C1B32627  31.757   8.645  19.080  0.1850 -0.2488 -0.1134
70054POPC   C2B32628  31.769   9.001  18.857  0.2733  0.0849 -0.2724
70054POPC   C3B32629  31.861   9.306  18.485  0.2294  0.4313 -0.1814
70054POPC   C4B32630  32.076   9.561  18.182 -0.2488  0.2530  0.1224
70055POPC   NC332631  18.005   3.903  19.849  0.1547 -0.2496  0.4028
70055POPC   PO432632  18.098   3.563  19.670 -0.3160 -0.0234 -0.0507
70055POPC   GL132633  18.198   3.310  19.380 -0.3759 -0.0411  0.3302
70055POPC   GL232634  18.463   3.474  19.392  0.2891  0.0856 -0.0770
70055POPC   C1A32635  17.925   3.083  19.133  0.1350  0.1626 -0.1148
70055POPC   D2A32636  17.790   2.794  18.851  0.3606  0.0244  0.0059
70055POPC   C3A32637  17.535   2.911  18.490 -0.1971  0.1198  0.1302
70055POPC   C4A32638  17.361   2.927  18.073  0.0702 -0.0170  0.3407
70055POPC   C1B32639  18.669   3.672  19.079  0.1180  0.2622  0.2676
70055POPC   C2B32640  18.478   3.592  18.697 -0.1738 -0.0231 -0.1502
70055POPC   C3B32641  18.401   3.565  18.273 -0.4316  0.2444  0.0662
70055POPC   C4B32642  18.588   3.655  17.832  0.1365  0.1054 -0.2039
70056POPC   NC332643   0.361   4.789  19.216  0.0443 -0.3236  0.4456
70056POPC   PO432644   0.165   4.997  19.522  0.0527 -0.0958 -0.0933
70056POPC   GL132645   0.082   5.160  19.133 -0.1171 -0.2559 -0.0196
70056POPC   GL232646   0.325   5.374  19.037  0.0084  0.2882  0.0017
70056POPC   C1A32647   0.096   4.973  18.712  0.0823 -0.1561 -0.1028
70056POPC   D2A32648   0.051   4.808  18.318 -0.1571 -0.0017 -0.2005
70056POPC   C3A32649  -0.022   4.388  18.159  0.0050  0.3006 -0.0839
70056POPC   C4A32650  -0.092   4.147  17.803  0.0272  0.0208  0.0822
70056POPC   C1B32651   0.508   5.258  18.618  0.0155  0.0969 -0.2237
70056POPC   C2B32652   0.476   5.022  18.249 -0.1383  0.0924  0.0519
70056POPC   C3B32653   0.193   4.888  17.850  0.1862  0.0536 -0.1622
70056POPC   C4B32654  -0.222   4.669  17.728 -0.2691  0.1080  0.0634
70057POPC   NC332655  23.663   1.442  18.729  0.0879  0.1668 -0.2452
70057POPC   PO432656  23.611   1.753  18.517 -0.0318  0.4849  0.1084
70057POPC   GL132657  23.519   1.461  18.212 -0.1516  0.0466 -0.1140
70057POPC   GL232658  23.702   1.517  17.960 -0.3477  0.0528  0.2290
70057POPC   C1A32659  23.429   1.029  18.044  0.0132 -0.0454  0.2787
70057POPC   D2A32660  23.252   0.701  17.841 -0.1068  0.0671 -0.0616
70057POPC   C3A32661  23.254   0.673  17.375  0.1433 -0.0257  0.4259
70057POPC   C4A32662  23.446   0.404  17.084 -0.1102  0.2867 -0.0075
70057POPC   C1B32663  23.761   1.181  17.642 -0.0845  0.1218 -0.0047
70057POPC   C2B32664  23.581   1.017  17.246  0.1878  0.0741  0.1099
70057POPC   C3B32665  23.287   0.861  16.894  0.0192 -0.0439  0.3930
70057POPC   C4B32666  22.947   0.942  16.608  0.4567  0.0037  0.0298
70058POPC   NC332667  26.572  10.810  20.460  0.0253  0.2479  0.0688
70058POPC   PO432668  26.579  10.400  20.324  0.1408  0.1260 -0.2189
70058POPC   GL132669  26.414  10.649  19.999 -0.5638  0.1083  0.1543
70058POPC   GL232670  26.279  10.938  19.964  0.2281  0.0245 -0.2115
70058POPC   C1A32671  26.660  10.654  19.576 -0.0697 -0.4122  0.0774
70058POPC   D2A32672  26.637  10.466  19.092  0.0270 -0.1910 -0.1578
70058POPC   C3A32673  26.756  10.747  18.811  0.3470  0.0109  0.2330
70058POPC   C4A32674  26.823  10.852  18.333  0.1813 -0.1462  0.0593
70058POPC   C1B32675  26.242  10.914  19.501  0.2131  0.3482 -0.1650
70058POPC   C2B32676  26.238  10.944  19.041  0.1932 -0.3883 -0.0027
70058POPC   C3B32677  25.951  11.211  18.754  0.1102  0.2267 -0.0710
70058POPC   C4B32678  25.670  11.538  18.613 -0.0971  0.1111 -0.0402
70059POPC   NC332679  15.750   3.308  19.527  0.2572  0.0323 -0.0578
70059POPC   PO432680  16.102   3.101  19.584  0.4216  0.0118 -0.0367
70059POPC   GL132681  16.240   2.823  19.290  0.1636 -0.1650  0.1779
70059POPC   GL232682  16.159   2.542  19.173 -0.4600 -0.1139  0.5067
70059POPC   C1A32683  16.439   2.836  18.859  0.0589 -0.1825  0.2415
70059POPC   D2A32684  16.521   2.674  18.434  0.0095  0.2674  0.2711
70059POPC   C3A32685  16.580   2.215  18.323  0.0090  0.2914  0.0594
70059POPC   C4A32686  16.840   1.851  18.352  0.0585  0.1857  0.1011
70059POPC   C1B32687  15.860   2.210  19.047 -0.2988 -0.0637  0.0803
70059POPC   C2B32688  15.691   2.101  18.640  0.1863 -0.1364 -0.0252
70059POPC   C3B32689  15.504   2.050  18.228  0.1054 -0.1065 -0.0072
70059POPC   C4B32690  15.616   2.139  17.789  0.1386 -0.0933  0.3085
70060POPC   NC332691  22.475  11.136  20.045  0.3210  0.1596  0.0968
70060POPC   PO432692  22.293  11.311  20.348 -0.1985  0.0189 -0.2076
70060POPC   GL132693  22.245  11.602  20.071 -0.1095  0.0426 -0.3114
70060POPC   GL232694  21.907  11.717  20.068 -0.2967  0.0287  0.0187
70060POPC   C1A32695  22.509  11.670  19.719 -0.1476  0.2672  0.0733
70060POPC   D2A32696  22.702  11.704  19.304 -0.1264  0.3446 -0.2710
70060POPC   C3A32697  22.511  12.035  19.092  0.1068  0.1347  0.1899
70060POPC   C4A32698  22.230  12.023  18.792  0.0288  0.0256  0.0945
70060POPC   C1B32699  22.059  11.453  19.690  0.1476  0.2990 -0.3963
70060POPC   C2B32700  22.153  11.505  19.250  0.2261  0.0797  0.1578
70060POPC   C3B32701  21.928  11.484  18.878 -0.2871 -0.2847 -0.0823
70060POPC   C4B32702  21.586  11.287  18.604 -0.1004  0.0476 -0.1522
70061POPC   NC332703  27.386   5.254  15.384 -0.2631  0.1178 -0.2579
70061POPC   PO432704  27.201   5.153  15.085  0.1007  0.1327 -0.5245
70061POPC   GL132705  27.462   5.432  14.958  0.0689  0.3154  0.3401
70061POPC   GL232706  27.384   5.623  14.788 -0.0325 -0.0533  0.0292
70061POPC   C1A32707  27.937   5.483  14.877 -0.2106 -0.4339 -0.2085
70061POPC   D2A32708  28.228   5.428  14.535  0.0983  0.0332  0.3468
70061POPC   C3A32709  28.673   5.633  14.536  0.1971  0.1260 -0.2798
70061POPC   C4A32710  28.872   6.054  14.673  0.0631 -0.0282  0.1570
70061POPC   C1B32711  27.728   5.852  14.592 -0.1078  0.0577  0.0459
70061POPC   C2B32712  27.888   6.167  14.260  0.1507 -0.3138  0.1690
70061POPC   C3B32713  28.233   6.287  13.987  0.1110 -0.0389 -0.1174
70061POPC   C4B32714  28.431   6.056  13.587  0.2217 -0.0422 -0.3044
70062POPC   NC332715  22.508   7.296  18.899  0.1733 -0.1898 -0.2806
70062POPC   PO432716  22.848   7.242  18.812 -0.2191 -0.1694  0.1091
70062POPC   GL132717  22.710   7.465  18.492 -0.1731  0.0245 -0.1182
70062POPC   GL232718  22.537   7.252  18.364 -0.0887 -0.2146 -0.1395
70062POPC   C1A32719  22.370   7.705  18.354 -0.1709 -0.0737  0.3480
70062POPC   D2A32720  21.929   7.740  18.294 -0.3465 -0.0744  0.0355
70062POPC   C3A32721  21.798   8.183  18.270 -0.1181 -0.0093 -0.4087
70062POPC   C4A32722  21.744   8.526  18.013 -0.1102  0.1590  0.1844
70062POPC   C1B32723  22.157   7.248  18.162  0.2229  0.0832 -0.3023
70062POPC   C2B32724  21.863   7.471  17.915 -0.1412  0.0273 -0.0993
70062POPC   C3B32725  21.633   7.624  17.547 -0.0566  0.1405 -0.2916
70062POPC   C4B32726  21.395   7.973  17.383 -0.1137  0.0423  0.1772
70063POPC   NC332727  26.166   6.544  13.349  0.2350 -0.2033  0.1197
70063POPC   PO432728  25.918   6.428  13.122 -0.0727 -0.2519 -0.0680
70063POPC   GL132729  25.799   6.812  13.112 -0.1039  0.0913 -0.1680
70063POPC   GL232730  26.040   6.948  12.989  0.2357  0.0241 -0.0700
70063POPC   C1A32731  25.699   7.254  13.023 -0.1228  0.4020 -0.2178
70063POPC   D2A32732  25.806   7.576  13.330 -0.0015 -0.0625  0.1837
70063POPC   C3A32733  25.977   7.735  13.747 -0.0775  0.2115 -0.0495
70063POPC   C4A32734  26.351   7.702  14.021 -0.1258  0.0632  0.2975
70063POPC   C1B32735  26.424   7.056  12.762 -0.2840 -0.3446  0.1716
70063POPC   C2B32736  26.799   7.291  12.922  0.3159  0.0909 -0.0529
70063POPC   C3B32737  26.786   7.570  13.256  0.2976  0.0170  0.1926
70063POPC   C4B32738  26.743   7.690  13.713 -0.0137 -0.1199 -0.1218
70064POPC   NC332739  18.302   9.389  20.106  0.5573 -0.1139  0.3689
70064POPC   PO432740  18.510   9.524  20.403 -0.0963 -0.0533 -0.0013
70064POPC   GL132741  18.745   9.442  20.029 -0.0672 -0.3192  0.0218
70064POPC   GL232742  18.738   9.247  19.855  0.2865  0.1626 -0.1835
70064POPC   C1A32743  18.576   9.633  19.592 -0.0819  0.0586 -0.4816
70064POPC   D2A32744  18.879   9.660  19.310  0.1012  0.0602 -0.3156
70064POPC   C3A32745  19.031   9.303  19.017  0.0110 -0.1119  0.1012
70064POPC   C4A32746  19.204   8.896  18.939  0.0603 -0.0871  0.2283
70064POPC   C1B32747  18.795   9.075  19.430  0.1247 -0.1693 -0.0173
70064POPC   C2B32748  18.715   8.944  18.988  0.1042  0.0186 -0.1796
70064POPC   C3B32749  18.878   9.092  18.557  0.3529  0.0548 -0.0646
70064POPC   C4B32750  19.229   9.310  18.516 -0.3129  0.1836  0.0598
70065POPC   NC332751  18.865   3.147  19.650  0.0844  0.1769 -0.1701
70065POPC   PO432752  18.481   3.095  19.780 -0.0729 -0.5010  0.1557
70065POPC   GL132753  18.544   2.886  19.358 -0.7131 -0.1507  0.4146
70065POPC   GL232754  18.540   2.710  19.540  0.2166  0.4456  0.0775
70065POPC   C1A32755  18.408   3.081  18.969 -0.0498 -0.0214 -0.0978
70065POPC   D2A32756  18.497   3.094  18.522 -0.5490 -0.1261 -0.3867
70065POPC   C3A32757  18.415   2.817  18.173  0.0522 -0.0305 -0.0708
70065POPC   C4A32758  18.167   2.514  17.912  0.0033  0.4461 -0.0320
70065POPC   C1B32759  18.640   2.409  19.224 -0.1045  0.1483 -0.0558
70065POPC   C2B32760  18.787   2.194  18.849 -0.2172 -0.0228  0.5167
70065POPC   C3B32761  19.122   1.970  18.613 -0.1103  0.0614 -0.0492
70065POPC   C4B32762  19.492   1.903  18.352  0.2605  0.1316 -0.2402
70066POPC   NC332763  30.264  10.969  20.155  0.1010  0.3001 -0.0342
70066POPC   PO432764  30.267  10.602  20.292 -0.0273  0.0258  0.3214
70066POPC   GL132765  30.506  10.647  19.980 -0.1794 -0.2681  0.0852
70066POPC   GL232766  30.589  10.397  19.862 -0.3660  0.1724  0.0969
70066POPC   C1A32767  30.281  10.796  19.623 -0.0990 -0.1444 -0.0942
70066POPC   D2A32768  30.225  10.604  19.137 -0.3015 -0.0475  0.2345
70066POPC   C3A32769  29.865  10.271  19.139  0.1528 -0.2557 -0.1689
70066POPC   C4A32770  29.426  10.137  19.183 -0.0865 -0.1311 -0.0048
70066POPC   C1B32771  30.614  10.426  19.346 -0.3895 -0.0592 -0.0336
70066POPC   C2B32772  31.012  10.531  19.142  0.2331  0.4051 -0.1440
70066POPC   C3B32773  31.145  10.816  18.807 -0.1782  0.2343  0.0534
70066POPC   C4B32774  31.262  10.947  18.339 -0.1244 -0.3066  0.0794
70067POPC   NC332775  15.602   6.956  19.676  0.1390 -0.1164 -0.0221
70067POPC   PO432776  15.576   6.552  19.725 -0.0117 -0.0413  0.1305
70067POPC   GL132777  15.775   6.609  19.381  0.2001 -0.0516 -0.1663
70067POPC   GL232778  15.974   6.800  19.373  0.1366  0.2035  0.0623
70067POPC   C1A32779  15.705   6.778  18.930 -0.0855  0.2993 -0.0846
70067POPC   D2A32780  15.844   6.963  18.521 -0.1416 -0.1249  0.0854
70067POPC   C3A32781  16.091   7.361  18.529  0.0375 -0.1580  0.0616
70067POPC   C4A32782  16.342   7.548  18.171 -0.1209  0.0015 -0.2853
70067POPC   C1B32783  16.212   6.847  18.891 -0.4057  0.0994 -0.4100
70067POPC   C2B32784  16.410   6.966  18.479 -0.0591  0.2335  0.2993
70067POPC   C3B32785  16.707   7.150  18.172 -0.0701 -0.0576 -0.0206
70067POPC   C4B32786  16.889   7.026  17.774 -0.2420  0.2822 -0.0258
70068POPC   NC332787  28.710  10.173  20.313 -0.0615 -0.1969  0.0738
70068POPC   PO432788  28.661  10.414  19.996 -0.1556 -0.1635  0.0165
70068POPC   GL132789  28.529  10.644  19.834  0.1250  0.0243 -0.1725
70068POPC   GL232790  28.304  10.518  19.691 -0.0503 -0.0607 -0.2358
70068POPC   C1A32791  28.605  10.743  19.402  0.1233 -0.0040  0.1165
70068POPC   D2A32792  28.522  10.777  18.931 -0.0432  0.1623  0.1549
70068POPC   C3A32793  28.693  11.051  18.556  0.3111 -0.1043 -0.0267
70068POPC   C4A32794  29.111  11.291  18.469  0.3438  0.2306  0.2650
70068POPC   C1B32795  28.367  10.385  19.268 -0.1608  0.0520  0.0356
70068POPC   C2B32796  28.476  10.262  18.872 -0.0155  0.0865  0.0315
70068POPC   C3B32797  28.185  10.137  18.467 -0.1546  0.2866  0.0147
70068POPC   C4B32798  28.021   9.833  18.228  0.0280  0.0274  0.0931
70069POPC   NC332799  25.761   3.934  14.584 -0.0306  0.2521 -0.2460
70069POPC   PO432800  25.557   3.923  14.940 -0.0510 -0.3334  0.2728
70069POPC   GL132801  25.209   3.659  14.821 -0.0301 -0.2013  0.1035
70069POPC   GL232802  25.317   3.659  14.512 -0.1149  0.0356 -0.1397
70069POPC   C1A32803  25.222   3.201  14.875 -0.5490 -0.0102 -0.1426
70069POPC   D2A32804  25.314   2.778  14.753  0.2203  0.0359 -0.2277
70069POPC   C3A32805  25.116   2.374  14.943 -0.0227  0.0319 -0.2709
70069POPC   C4A32806  25.073   1.890  15.004 -0.2394 -0.0209 -0.2139
70069POPC   C1B32807  25.672   3.556  14.256 -0.2595 -0.2851  0.2303
70069POPC   C2B32808  25.839   3.192  14.089  0.0091  0.0909 -0.1855
70069POPC   C3B32809  26.127   2.926  13.890  0.3227  0.2805 -0.1262
70069POPC   C4B32810  26.158   2.535  13.690  0.0402  0.3145  0.0190
70070POPC   NC332811  18.595   7.016  20.177 -0.0868 -0.1155 -0.0275
70070POPC   PO432812  18.852   7.305  20.045  0.1316  0.2351 -0.1548
70070POPC   GL132813  19.070   7.424  19.756  0.2673  0.3347  0.1556
70070POPC   GL232814  19.160   7.701  19.757  0.0037 -0.2263 -0.0340
70070POPC   C1A32815  19.117   7.366  19.305 -0.0037 -0.0580 -0.0961
70070POPC   D2A32816  19.075   7.418  18.896 -0.0613  0.0869 -0.0071
70070POPC   C3A32817  19.112   7.459  18.464 -0.2145  0.1167 -0.0682
70070POPC   C4A32818  19.025   7.628  17.993 -0.1354 -0.3422 -0.1369
70070POPC   C1B32819  19.079   7.953  19.351  0.3049  0.0530  0.0735
70070POPC   C2B32820  19.036   8.037  18.892  0.3544 -0.2863  0.0060
70070POPC   C3B32821  19.070   8.025  18.450  0.1952 -0.0150  0.2410
70070POPC   C4B32822  19.300   8.330  18.170  0.0480 -0.0135 -0.0308
70071POPC   NC332823  28.507   7.459  18.714  0.2492  0.2603  0.1511
70071POPC   PO432824  28.687   7.132  18.888 -0.2583 -0.0212  0.0612
70071POPC   GL132825  28.963   7.402  18.736 -0.1464  0.0819 -0.3069
70071POPC   GL232826  28.978   7.738  18.821 -0.0277 -0.1404 -0.2039
70071POPC   C1A32827  29.376   7.485  18.513 -0.3479  0.1331  0.1037
70071POPC   D2A32828  29.749   7.441  18.214 -0.0430 -0.0275  0.0394
70071POPC   C3A32829  29.639   7.604  17.798  0.0061  0.1484  0.0575
70071POPC   C4A32830  29.535   7.469  17.328  0.0380 -0.0913  0.1476
70071POPC   C1B32831  28.855   7.920  18.446 -0.1703 -0.0912 -0.1419
70071POPC   C2B32832  28.692   8.177  18.093  0.1130  0.3881 -0.2962
70071POPC   C3B32833  28.791   8.476  17.843 -0.0868 -0.3457  0.0446
70071POPC   C4B32834  28.893   8.753  17.483 -0.1234  0.1175  0.0003
70072POPC   NC332835  27.566  13.812  20.290  0.1877  0.1041 -0.0185
70072POPC   PO432836  27.210  13.842  20.376 -0.1541 -0.1984 -0.1987
70072POPC   GL132837  27.062  13.933  19.989 -0.1063  0.2129 -0.3407
70072POPC   GL232838  26.937  13.759  19.938 -0.1152 -0.3553  0.1146
70072POPC   C1A32839  27.082  14.092  19.538  0.1908 -0.1631 -0.2952
70072POPC   D2A32840  27.102  14.038  19.113 -0.1226  0.2594 -0.0590
70072POPC   C3A32841  27.209  13.890  18.700  0.1085 -0.0714  0.3090
70072POPC   C4A32842  27.423  14.088  18.374  0.2828 -0.2817 -0.0534
70072POPC   C1B32843  26.880  13.647  19.525  0.0429  0.3613  0.5492
70072POPC   C2B32844  26.992  13.572  19.016  0.0712  0.2295 -0.0760
70072POPC   C3B32845  27.207  13.249  18.728 -0.2564 -0.2041 -0.1861
70072POPC   C4B32846  27.381  13.104  18.340  0.3071  0.0437  0.0357
70073POPC   NC332847  28.653  12.634  21.051  0.0098  0.0506  0.2125
70073POPC   PO432848  28.628  12.551  20.649 -0.0342  0.1264 -0.1744
70073POPC   GL132849  28.766  12.556  20.243  0.1695  0.3154 -0.3228
70073POPC   GL232850  28.908  12.841  20.290 -0.4860 -0.1472  0.0835
70073POPC   C1A32851  28.580  12.560  19.808  0.0162  0.1237  0.1303
70073POPC   D2A32852  28.396  12.823  19.409 -0.1792  0.2041 -0.1200
70073POPC   C3A32853  28.525  12.594  18.945 -0.0179 -0.3697  0.1180
70073POPC   C4A32854  28.415  12.310  18.619  0.2776 -0.1215  0.0267
70073POPC   C1B32855  28.987  12.765  19.876  0.1743 -0.2188  0.2412
70073POPC   C2B32856  28.906  12.667  19.422 -0.3408  0.0400  0.1315
70073POPC   C3B32857  29.121  12.615  18.985 -0.1989 -0.0548  0.2995
70073POPC   C4B32858  29.240  12.329  18.634  0.0231 -0.0714  0.0206
70074POPC   NC332859  28.408   1.900  18.627 -0.1016 -0.1987 -0.0227
70074POPC   PO432860  28.478   2.304  18.695  0.2888  0.0658  0.0023
70074POPC   GL132861  28.809   2.132  18.404 -0.1813 -0.2365  0.0904
70074POPC   GL232862  28.555   2.169  18.177 -0.2298 -0.2391 -0.3192
70074POPC   C1A32863  28.966   1.774  18.191  0.2505 -0.3071  0.2804
70074POPC   D2A32864  29.395   1.585  18.157 -0.0200 -0.3943  0.0955
70074POPC   C3A32865  29.432   1.125  18.129  0.1909  0.2023  0.1587
70074POPC   C4A32866  29.452   0.886  17.714  0.2620 -0.0121 -0.0947
70074POPC   C1B32867  28.843   2.084  17.786 -0.0288  0.5744 -0.1025
70074POPC   C2B32868  29.260   1.904  17.773  0.0604 -0.1760 -0.1401
70074POPC   C3B32869  29.745   1.825  17.937  0.2375 -0.1187  0.1946
70074POPC   C4B32870  30.146   1.777  18.194 -0.2747 -0.4287  0.0619
70075POPC   NC332871  28.864   6.327  18.217  0.3219 -0.0198 -0.2223
70075POPC   PO432872  28.625   5.985  18.252  0.1527 -0.1425 -0.0884
70075POPC   GL132873  28.684   5.845  17.937  0.1104  0.0312 -0.3643
70075POPC   GL232874  28.903   5.969  17.837  0.2373 -0.1623 -0.1612
70075POPC   C1A32875  28.706   5.570  17.595 -0.0065  0.4030 -0.0825
70075POPC   D2A32876  28.618   5.254  17.213  0.0348 -0.2677 -0.3048
70075POPC   C3A32877  28.631   4.827  17.125 -0.1070  0.0060 -0.0159
70075POPC   C4A32878  28.375   4.433  17.003 -0.2318 -0.0779 -0.0827
70075POPC   C1B32879  29.242   5.756  17.740  0.3066  0.3021  0.0611
70075POPC   C2B32880  29.683   5.721  17.716  0.2106 -0.0336 -0.2077
70075POPC   C3B32881  30.107   5.756  17.829  0.2809 -0.0140  0.1733
70075POPC   C4B32882  30.428   5.823  18.102  0.0744 -0.2595  0.0045
70076POPC   NC332883  29.037  31.384  20.292 -0.0533 -0.2217 -0.1756
70076POPC   PO432884  28.717  31.597  20.130  0.1729 -0.2001 -0.4835
70076POPC   GL132885  28.877  31.717  19.784  0.1881  0.2482 -0.0605
70076POPC   GL232886  29.116  31.608  19.757  0.0279  0.3160  0.2364
70076POPC   C1A32887  28.726  32.045  19.433 -0.0983 -0.0220  0.2179
70076POPC   D2A32888  28.525  32.339  19.122  0.0509 -0.0371 -0.0050
70076POPC   C3A32889  28.518  32.525  18.716  0.1445  0.3061 -0.2914
70076POPC   C4A32890  28.441  32.359  18.308  0.1351 -0.0996  0.3017
70076POPC   C1B32891  29.042  31.615  19.318 -0.1949 -0.1432  0.0064
70076POPC   C2B32892  29.150  31.531  18.884  0.0755 -0.1099 -0.1994
70076POPC   C3B32893  29.413  31.719  18.474 -0.0254  0.2345 -0.1926
70076POPC   C4B32894  29.500  31.989  18.115 -0.2757 -0.3584 -0.1483
70077POPC   NC332895  16.277  14.141  20.356  0.0460 -0.0033  0.1224
70077POPC   PO432896  16.581  14.228  20.589 -0.1373 -0.1846  0.2793
70077POPC   GL132897  16.748  14.042  20.271  0.0327  0.2151 -0.1462
70077POPC   GL232898  17.022  14.108  20.086  0.2824 -0.0929 -0.2686
70077POPC   C1A32899  16.475  13.880  19.948 -0.1762  0.2087 -0.0695
70077POPC   D2A32900  16.312  13.924  19.523 -0.0534  0.0344 -0.4558
70077POPC   C3A32901  16.583  14.061  19.151 -0.0766 -0.0932  0.1896
70077POPC   C4A32902  16.865  14.307  18.891 -0.2346  0.3521  0.0382
70077POPC   C1B32903  16.891  13.813  19.757 -0.0740 -0.1395  0.1278
70077POPC   C2B32904  16.618  13.412  19.674 -0.0398 -0.1267 -0.2532
70077POPC   C3B32905  16.291  13.215  19.351  0.1247  0.0701 -0.0214
70077POPC   C4B32906  16.442  13.094  18.963 -0.0025 -0.0548 -0.0439
70078POPC   NC332907  23.621  11.607  20.058  0.0735  0.2810  0.2410
70078POPC   PO432908  23.281  11.721  19.841  0.0548 -0.1405 -0.5125
70078POPC   GL132909  23.379  11.617  19.497 -0.1316 -0.0908 -0.0982
70078POPC   GL232910  23.173  11.463  19.395  0.1280  0.1057  0.2015
70078POPC   C1A32911  23.523  11.598  19.050 -0.2736 -0.0981 -0.2071
70078POPC   D2A32912  23.864  11.595  18.787 -0.0384  0.0876  0.3299
70078POPC   C3A32913  24.170  11.537  18.428  0.0078  0.0513  0.1213
70078POPC   C4A32914  24.656  11.583  18.306  0.1820  0.1368  0.1771
70078POPC   C1B32915  23.056  11.644  19.000 -0.1119  0.1978 -0.1886
70078POPC   C2B32916  23.259  11.633  18.607 -0.1478 -0.1272 -0.2945
70078POPC   C3B32917  23.158  11.742  18.137  0.3466 -0.0054 -0.1300
70078POPC   C4B32918  23.269  11.474  17.774  0.1897  0.0537  0.0392
70079POPC   NC332919  23.568   1.027  19.282 -0.0755 -0.0038 -0.2656
70079POPC   PO432920  23.829   1.085  19.035  0.2891 -0.0105  0.1077
70079POPC   GL132921  23.591   0.921  18.790  0.1557 -0.2288 -0.0337
70079POPC   GL232922  23.303   0.916  18.806  0.0923  0.1729 -0.0376
70079POPC   C1A32923  23.690   0.695  18.380  0.0133 -0.1050  0.1001
70079POPC   D2A32924  23.683   0.398  18.003  0.2209  0.3665 -0.1779
70079POPC   C3A32925  23.654   0.192  17.569 -0.1422  0.0518 -0.0222
70079POPC   C4A32926  23.895  -0.105  17.320  0.0039 -0.0314  0.2811
70079POPC   C1B32927  23.208   0.637  18.467  0.0192  0.1181  0.0302
70079POPC   C2B32928  22.923   0.518  18.152  0.0511  0.0318 -0.2530
70079POPC   C3B32929  22.811   0.428  17.681 -0.3851  0.2547 -0.0109
70079POPC   C4B32930  22.865   0.391  17.222  0.0369  0.0294 -0.1605
70080POPC   NC332931  19.405   6.482  19.922 -0.1022 -0.1048  0.1812
70080POPC   PO432932  19.637   6.762  19.974 -0.3291 -0.1302 -0.1165
70080POPC   GL132933  19.610   7.149  19.787 -0.2351 -0.0455  0.0136
70080POPC   GL232934  19.437   7.053  19.640  0.2400 -0.0497  0.2184
70080POPC   C1A32935  19.945   7.086  19.501  0.0134  0.0326 -0.0825
70080POPC   D2A32936  19.942   7.084  19.055 -0.0508 -0.1197 -0.2106
70080POPC   C3A32937  19.841   6.784  18.756 -0.0110 -0.0491 -0.0118
70080POPC   C4A32938  19.634   6.793  18.348  0.1004 -0.1550  0.1440
70080POPC   C1B32939  19.503   7.053  19.181 -0.1304  0.2338 -0.1479
70080POPC   C2B32940  19.471   7.169  18.727 -0.0950  0.1809  0.0125
70080POPC   C3B32941  19.515   7.288  18.269 -0.1955  0.1324 -0.1469
70080POPC   C4B32942  19.403   7.343  17.829  0.0611 -0.1141 -0.1093
70081POPC   NC332943  23.273   8.619  19.543  0.1989  0.2406  0.1050
70081POPC   PO432944  22.946   8.799  19.627 -0.0726  0.0317  0.0906
70081POPC   GL132945  22.898   8.983  19.413  0.1395 -0.0408 -0.0942
70081POPC   GL232946  23.036   8.929  19.156  0.0362  0.0122 -0.0207
70081POPC   C1A32947  22.707   9.357  19.171  0.2049  0.2075 -0.3881
70081POPC   D2A32948  22.397   9.675  19.040  0.0709 -0.1896 -0.0030
70081POPC   C3A32949  22.516  10.138  18.945 -0.3698  0.1104 -0.3553
70081POPC   C4A32950  22.948  10.283  18.857 -0.1512 -0.2843 -0.2444
70081POPC   C1B32951  22.687   8.847  18.943  0.1239 -0.0845  0.5960
70081POPC   C2B32952  22.317   9.034  19.003 -0.0688  0.0815 -0.0810
70081POPC   C3B32953  22.036   9.305  18.813  0.0002  0.1074  0.0565
70081POPC   C4B32954  21.709   9.255  18.535 -0.0739 -0.0802 -0.0354
70082POPC   NC332955  29.349   2.246  18.987 -0.1799 -0.1945 -0.3072
70082POPC   PO432956  29.287   2.634  18.989  0.0660 -0.1847  0.0373
70082POPC   GL132957  29.186   2.462  18.632 -0.2878  0.2902  0.2491
70082POPC   GL232958  29.456   2.467  18.502 -0.1178  0.0799 -0.3728
70082POPC   C1A32959  29.133   2.660  18.209  0.1283 -0.0092  0.0971
70082POPC   D2A32960  29.397   2.897  17.884 -0.0474  0.1375  0.2303
70082POPC   C3A32961  29.462   2.786  17.450 -0.1348 -0.1387 -0.2699
70082POPC   C4A32962  29.760   2.550  17.283 -0.3370  0.1335 -0.2253
70082POPC   C1B32963  29.679   2.793  18.264 -0.1420  0.1994  0.0583
70082POPC   C2B32964  29.859   3.122  18.091 -0.3184  0.0068  0.1691
70082POPC   C3B32965  30.094   3.393  17.807  0.0163  0.0774  0.0761
70082POPC   C4B32966  30.112   3.527  17.401 -0.0627 -0.2042 -0.0823
70083POPC   NC332967  28.528  32.118  19.950 -0.2199  0.4061 -0.2035
70083POPC   PO432968  28.653  32.485  19.966 -0.0912  0.1757  0.0427
70083POPC   GL132969  28.320  32.487  19.819  0.0975  0.0644 -0.1665
70083POPC   GL232970  28.413  32.614  19.555 -0.1758 -0.0750 -0.2472
70083POPC   C1A32971  28.200  32.180  19.476  0.0274 -0.1270  0.0494
70083POPC   D2A32972  28.329  31.867  19.166 -0.0460 -0.1842  0.3552
70083POPC   C3A32973  28.610  31.576  18.968  0.1254 -0.1281 -0.0314
70083POPC   C4A32974  28.834  31.581  18.515  0.3179  0.2382  0.1373
70083POPC   C1B32975  28.598  32.840  19.199  0.1169 -0.1572 -0.1874
70083POPC   C2B32976  28.724  33.007  18.831 -0.2755  0.2328 -0.1655
70083POPC   C3B32977  29.018  33.110  18.470  0.3875 -0.0256 -0.1202
70083POPC   C4B32978  29.149  32.939  18.047  0.1789 -0.2380 -0.0061
70084POPC   NC332979  24.178   3.588  16.409  0.0635  0.3871  0.1682
70084POPC   PO432980  24.330   3.852  16.114 -0.1123  0.0358  0.1869
70084POPC   GL132981  24.095   3.732  15.966  0.1803  0.4161 -0.0715
70084POPC   GL232982  24.080   3.510  15.773  0.0359 -0.0569  0.3302
70084POPC   C1A32983  23.652   3.809  15.778 -0.2339 -0.2060  0.1035
70084POPC   D2A32984  23.360   4.149  15.708  0.0789  0.4389  0.1552
70084POPC   C3A32985  23.140   4.129  15.300  0.0890 -0.2633  0.0703
70084POPC   C4A32986  22.699   4.317  15.084 -0.4938  0.0638 -0.1592
70084POPC   C1B32987  24.106   3.198  15.465  0.1329 -0.1874  0.0557
70084POPC   C2B32988  23.951   2.817  15.328 -0.0321 -0.3169  0.3248
70084POPC   C3B32989  24.118   2.459  15.191  0.1806  0.1275  0.0697
70084POPC   C4B32990  24.081   2.069  14.930  0.2764 -0.3516 -0.0655
70085POPC   NC332991  27.130   5.891  11.264 -0.0469  0.6443 -0.1599
70085POPC   PO432992  27.420   5.870  11.002  0.1242 -0.1748 -0.1007
70085POPC   GL132993  27.563   5.615  11.295 -0.3399 -0.1392  0.1778
70085POPC   GL232994  27.636   5.874  11.459  0.2984 -0.0646 -0.0401
70085POPC   C1A32995  27.992   5.426  11.264  0.2450 -0.0380  0.0943
70085POPC   D2A32996  28.360   5.315  11.391 -0.2029 -0.0794 -0.2465
70085POPC   C3A32997  28.470   5.020  11.724 -0.4074  0.2844 -0.1040
70085POPC   C4A32998  28.278   4.664  11.988  0.1173  0.0395  0.0518
70085POPC   C1B32999  28.066   5.992  11.443 -0.0121 -0.3529 -0.2524
70085POPC   C2B33000  28.479   6.105  11.304  0.0270  0.2510 -0.1885
70085POPC   C3B33001  28.816   6.200  11.028  0.1587 -0.1797 -0.2612
70085POPC   C4B33002  28.962   6.346  10.639 -0.0819  0.0436 -0.1642
70086POPC   NC333003  20.639  14.889  20.732  0.1064 -0.2222 -0.0161
70086POPC   PO433004  20.876  14.651  20.917 -0.0524 -0.0885 -0.1564
70086POPC   GL133005  21.052  14.740  20.527  0.1061  0.0162  0.0530
70086POPC   GL233006  20.958  14.558  20.411  0.1328 -0.0871 -0.2069
70086POPC   C1A33007  21.483  14.645  20.389 -0.3506 -0.0990  0.0624
70086POPC   D2A33008  21.756  14.671  19.997  0.1145 -0.0645  0.2545
70086POPC   C3A33009  21.567  15.037  19.753 -0.3894 -0.2599  0.0002
70086POPC   C4A33010  21.138  15.261  19.824  0.1042  0.5363 -0.1237
70086POPC   C1B33011  20.714  14.460  20.016  0.1237 -0.1448  0.1032
70086POPC   C2B33012  20.531  14.598  19.626  0.1083  0.0210  0.0532
70086POPC   C3B33013  20.698  14.815  19.290  0.1035  0.1395  0.0227
70086POPC   C4B33014  20.860  14.770  18.878 -0.1440  0.0831 -0.1214
70087POPC   NC333015  27.378   4.556  13.631  0.0869  0.0307 -0.0249
70087POPC   PO433016  27.303   4.916  13.798  0.0821 -0.1096 -0.0031
70087POPC   GL133017  27.550   5.109  13.720  0.2138 -0.1035 -0.1866
70087POPC   GL233018  27.794   4.895  13.681 -0.1452 -0.4025 -0.1615
70087POPC   C1A33019  27.869   5.426  13.562  0.0385  0.3990  0.0862
70087POPC   D2A33020  28.051   5.846  13.452 -0.0687  0.0970  0.0155
70087POPC   C3A33021  28.309   5.948  13.091  0.1686  0.0406  0.1659
70087POPC   C4A33022  28.449   6.144  12.678 -0.1264 -0.2654 -0.0546
70087POPC   C1B33023  27.965   4.914  13.211 -0.3386 -0.0886  0.1129
70087POPC   C2B33024  28.047   4.947  12.807 -0.1305 -0.1052  0.0851
70087POPC   C3B33025  27.995   4.651  12.426  0.1119 -0.1117  0.0491
70087POPC   C4B33026  27.705   4.483  12.079  0.1750  0.0132  0.2422
70088POPC   NC333027  20.707  15.940  20.460 -0.0910  0.0443 -0.1155
70088POPC   PO433028  20.319  15.941  20.592 -0.0301 -0.0418  0.2416
70088POPC   GL133029  20.346  15.741  20.258  0.2556  0.0312 -0.0595
70088POPC   GL233030  20.451  15.471  20.245 -0.3476  0.0643  0.0782
70088POPC   C1A33031  20.268  15.780  19.822  0.0493  0.1659  0.2109
70088POPC   D2A33032  20.301  15.928  19.364  0.0116  0.3396 -0.1779
70088POPC   C3A33033  20.367  15.828  18.910  0.1310  0.1696 -0.3896
70088POPC   C4A33034  20.706  15.637  18.668  0.2173 -0.0500 -0.0571
70088POPC   C1B33035  20.629  15.479  19.831  0.0540  0.2561  0.0924
70088POPC   C2B33036  20.832  15.287  19.459 -0.1212 -0.2046 -0.0146
70088POPC   C3B33037  21.218  14.997  19.322 -0.0377 -0.3983  0.1170
70088POPC   C4B33038  21.392  14.915  18.891  0.3906 -0.0333 -0.3802
70089POPC   NC333039  26.951   8.824  19.544 -0.0087  0.1906  0.0400
70089POPC   PO433040  26.917   8.617  19.198  0.2122  0.0053 -0.2052
70089POPC   GL133041  26.680   8.774  18.866 -0.0368 -0.4300  0.1078
70089POPC   GL233042  26.865   8.986  18.823 -0.0297 -0.1438  0.0483
70089POPC   C1A33043  26.421   9.099  18.568  0.0863  0.0371  0.0486
70089POPC   D2A33044  26.060   9.439  18.673 -0.1578 -0.0429 -0.2033
70089POPC   C3A33045  25.858   9.668  18.361 -0.2504  0.0211 -0.3305
70089POPC   C4A33046  26.009   9.892  17.943 -0.2697  0.0883  0.1691
70089POPC   C1B33047  27.289   9.056  18.901  0.0665  0.1798 -0.2417
70089POPC   C2B33048  27.697   9.205  18.801  0.0668  0.0146 -0.2953
70089POPC   C3B33049  28.176   9.243  18.819  0.0078  0.3011 -0.0974
70089POPC   C4B33050  28.561   8.998  18.629 -0.2120 -0.2088 -0.1667
70090POPC   NC333051  20.044   4.091  19.419  0.4093  0.3565  0.0495
70090POPC   PO433052  20.228   4.437  19.421 -0.2516 -0.2467 -0.1565
70090POPC   GL133053  19.937   4.456  19.165  0.1034 -0.1690  0.2015
70090POPC   GL233054  20.034   4.270  18.946 -0.1598 -0.3107  0.3375
70090POPC   C1A33055  19.676   4.626  18.811 -0.0184 -0.1514 -0.2512
70090POPC   D2A33056  19.318   4.559  18.567 -0.0130  0.1606 -0.1204
70090POPC   C3A33057  19.497   4.666  18.153  0.1020 -0.1366 -0.1662
70090POPC   C4A33058  19.646   4.675  17.705 -0.3346  0.2652 -0.4155
70090POPC   C1B33059  19.841   4.267  18.543 -0.2530 -0.1251  0.0963
70090POPC   C2B33060  19.750   4.282  18.069 -0.2085  0.2053 -0.2588
70090POPC   C3B33061  19.515   4.006  17.774  0.4421  0.1322 -0.1304
70090POPC   C4B33062  19.271   4.044  17.341  0.0386  0.2841  0.0095
70091POPC   NC333063  19.256  12.592  20.626  0.2218  0.2468  0.2014
70091POPC   PO433064  19.214  12.179  20.716 -0.1325 -0.3094 -0.2658
70091POPC   GL133065  18.998  12.007  20.454 -0.0798 -0.3401  0.0288
70091POPC   GL233066  19.140  11.846  20.338 -0.2159  0.2672  0.1079
70091POPC   C1A33067  18.822  12.109  20.056 -0.0217 -0.1942  0.1531
70091POPC   D2A33068  18.918  11.848  19.733 -0.1587  0.4066 -0.3707
70091POPC   C3A33069  18.578  11.596  19.563 -0.0699 -0.0120  0.2068
70091POPC   C4A33070  18.411  11.199  19.616 -0.1269 -0.3713  0.1710
70091POPC   C1B33071  19.306  11.554  20.056  0.0695  0.2613  0.2627
70091POPC   C2B33072  19.627  11.425  19.719  0.0983 -0.0290 -0.0689
70091POPC   C3B33073  19.862  11.438  19.331  0.0634  0.3319  0.1846
70091POPC   C4B33074  20.154  11.367  19.009 -0.1572  0.1339  0.1979
70092POPC   NC333075  23.681   9.949  19.982 -0.1452 -0.3373 -0.0872
70092POPC   PO433076  24.038   9.884  19.883 -0.0730  0.0846 -0.0515
70092POPC   GL133077  23.828   9.988  19.521  0.1426  0.1134  0.2872
70092POPC   GL233078  23.526   9.833  19.492  0.0427  0.0795  0.1415
70092POPC   C1A33079  23.824  10.007  19.063  0.2154 -0.2420  0.1384
70092POPC   D2A33080  23.807   9.909  18.556 -0.0814 -0.2231  0.1536
70092POPC   C3A33081  23.972  10.144  18.153  0.4014  0.1410  0.2335
70092POPC   C4A33082  23.847  10.542  17.932 -0.2955 -0.0905  0.1415
70092POPC   C1B33083  23.259  10.185  19.299  0.1280  0.1285  0.0842
70092POPC   C2B33084  23.236  10.625  19.056 -0.1547  0.0223 -0.1815
70092POPC   C3B33085  23.291  10.827  18.609  0.2565  0.0161  0.2189
70092POPC   C4B33086  23.062  11.223  18.353 -0.1193  0.1423  0.0229
70093POPC   NC333087  28.304  14.404  19.822 -0.3744 -0.1054 -0.0002
70093POPC   PO433088  28.317  14.029  19.991  0.0767 -0.2130 -0.0558
70093POPC   GL133089  28.390  13.978  19.607  0.1421  0.2295  0.0932
70093POPC   GL233090  28.124  14.086  19.455 -0.0068 -0.0332 -0.1979
70093POPC   C1A33091  28.654  14.140  19.248 -0.3940 -0.0444  0.1465
70093POPC   D2A33092  28.833  14.080  18.817 -0.0704 -0.1729 -0.1223
70093POPC   C3A33093  29.184  13.851  18.947  0.2033  0.1632 -0.0824
70093POPC   C4A33094  29.289  13.460  18.958  0.0669 -0.2113  0.2307
70093POPC   C1B33095  28.226  14.037  19.007  0.0660  0.0016 -0.0001
70093POPC   C2B33096  28.465  13.817  18.677 -0.0373 -0.0156 -0.0308
70093POPC   C3B33097  28.392  13.993  18.314  0.2952 -0.0540  0.0835
70093POPC   C4B33098  28.536  14.109  17.905 -0.3928  0.0470  0.3152
70094POPC   NC333099  20.289  15.079  21.105 -0.0898  0.2553 -0.3129
70094POPC   PO433100  20.177  15.043  20.751  0.0138 -0.1440  0.0235
70094POPC   GL133101  20.137  15.021  20.392  0.0796 -0.0029  0.1763
70094POPC   GL233102  19.997  15.273  20.174  0.1298  0.2272 -0.3035
70094POPC   C1A33103  20.107  14.662  20.108  0.0616  0.3423  0.2064
70094POPC   D2A33104  20.169  14.238  19.847 -0.0878 -0.0709  0.0390
70094POPC   C3A33105  20.316  14.184  19.442  0.1917  0.1914  0.2698
70094POPC   C4A33106  20.619  14.312  19.095 -0.1455 -0.1750 -0.2597
70094POPC   C1B33107  19.841  15.282  19.733 -0.1508  0.1066  0.0470
70094POPC   C2B33108  19.758  15.142  19.313 -0.1914  0.2640  0.2297
70094POPC   C3B33109  19.733  15.207  18.884 -0.2485 -0.3593  0.2730
70094POPC   C4B33110  19.761  15.245  18.429  0.1569 -0.2138 -0.0118
70095POPC   NC333111  25.299  12.409  20.177 -0.3414 -0.2721  0.2148
70095POPC   PO433112  24.991  12.663  20.123 -0.0590 -0.1107 -0.0208
70095POPC   GL133113  25.240  12.572  19.793  0.1318 -0.0845 -0.0790
70095POPC   GL233114  25.460  12.809  19.879  0.3008  0.0694 -0.2062
70095POPC   C1A33115  25.540  12.292  19.540  0.2689  0.0318  0.0062
70095POPC   D2A33116  25.557  11.997  19.195 -0.0736 -0.1190  0.3300
70095POPC   C3A33117  25.097  11.864  19.034 -0.2314 -0.0180  0.0254
70095POPC   C4A33118  24.747  11.625  19.276  0.1809  0.1330  0.2605
70095POPC   C1B33119  25.607  12.835  19.438 -0.1996 -0.0798 -0.1584
70095POPC   C2B33120  25.648  12.608  19.058 -0.1691 -0.0722  0.0289
70095POPC   C3B33121  25.910  12.275  18.845  0.2212  0.0460 -0.1231
70095POPC   C4B33122  25.520  11.980  18.700  0.2326 -0.2363 -0.0443
70096POPC   NC333123  17.479   2.545  20.146  0.2193  0.0617  0.1350
70096POPC   PO433124  17.687   2.835  20.051 -0.1021 -0.1222 -0.2159
70096POPC   GL133125  17.538   2.687  19.698  0.0629 -0.0393 -0.0465
70096POPC   GL233126  17.221   2.724  19.748  0.0834  0.1143 -0.2871
70096POPC   C1A33127  17.517   2.692  19.247  0.0331  0.0288 -0.1679
70096POPC   D2A33128  17.249   2.703  18.924  0.1212  0.0331 -0.0042
70096POPC   C3A33129  16.946   2.803  18.634  0.1989 -0.0167  0.0516
70096POPC   C4A33130  16.878   2.881  18.177  0.3742  0.1550  0.1471
70096POPC   C1B33131  17.029   2.818  19.331  0.0942  0.0287 -0.1104
70096POPC   C2B33132  16.782   3.125  19.010  0.0193  0.0901 -0.2085
70096POPC   C3B33133  16.665   3.236  18.619 -0.2028 -0.1249 -0.3088
70096POPC   C4B33134  16.435   3.468  18.267 -0.0788 -0.0499 -0.4501
70097POPC   NC333135  30.001  15.681  20.313  0.1769  0.1609 -0.0220
70097POPC   PO433136  30.007  15.298  20.187  0.5806  0.1114  0.1841
70097POPC   GL133137  29.866  14.997  19.968 -0.0260 -0.1752  0.0445
70097POPC   GL233138  30.066  15.069  19.746  0.2096  0.0768  0.1926
70097POPC   C1A33139  29.559  14.621  19.830 -0.0500  0.1345 -0.2198
70097POPC   D2A33140  29.424  14.465  19.408 -0.0836  0.1473  0.2166
70097POPC   C3A33141  29.702  14.236  19.130 -0.1541  0.1121 -0.0033
70097POPC   C4A33142  30.067  14.033  18.982 -0.0388  0.0474  0.1140
70097POPC   C1B33143  30.234  15.257  19.303 -0.5532  0.0960  0.0028
70097POPC   C2B33144  30.436  15.381  18.937 -0.0252 -0.0295 -0.2083
70097POPC   C3B33145  30.687  15.139  18.657 -0.0416  0.0956  0.1206
70097POPC   C4B33146  30.700  14.774  18.380 -0.2822  0.0221  0.0686
70098POPC   NC333147  20.638   0.425  19.888 -0.2477  0.0025 -0.0825
70098POPC   PO433148  20.736   0.182  20.218  0.1280 -0.0115  0.3848
70098POPC   GL133149  21.038   0.139  19.910  0.0651 -0.3377 -0.1447
70098POPC   GL233150  20.899   0.024  19.682 -0.2129  0.0040 -0.1385
70098POPC   C1A33151  21.010   0.494  19.563 -0.1227  0.1668  0.2767
70098POPC   D2A33152  21.185   0.662  19.208 -0.1816 -0.2270  0.0477
70098POPC   C3A33153  21.224   0.408  18.848 -0.0819 -0.1503 -0.4760
70098POPC   C4A33154  21.330   0.127  18.473 -0.0814  0.0110  0.0598
70098POPC   C1B33155  20.631  -0.324  19.627 -0.2238 -0.0531  0.0304
70098POPC   C2B33156  20.749  -0.632  19.337 -0.1415 -0.0820 -0.0522
70098POPC   C3B33157  20.702  -1.040  19.185 -0.2477  0.0456  0.1918
70098POPC   C4B33158  20.456  -1.228  18.825 -0.0096  0.1015  0.1446
70099POPC   NC333159  26.142  13.480  20.336 -0.0181  0.0038  0.0679
70099POPC   PO433160  26.209  13.868  20.359  0.2313  0.0086 -0.0079
70099POPC   GL133161  26.420  13.753  20.079 -0.0680 -0.3935  0.2059
70099POPC   GL233162  26.549  13.466  19.947  0.0832  0.0934  0.0755
70099POPC   C1A33163  26.623  14.047  19.752 -0.1519  0.0292  0.2519
70099POPC   D2A33164  26.562  14.090  19.274 -0.0709  0.0453  0.0456
70099POPC   C3A33165  26.702  13.907  18.837  0.2650  0.0705 -0.1541
70099POPC   C4A33166  26.815  13.774  18.408  0.0080 -0.1123 -0.2633
70099POPC   C1B33167  26.342  13.492  19.560  0.1589  0.0794 -0.0025
70099POPC   C2B33168  26.464  13.534  19.074 -0.1388 -0.1076  0.4477
70099POPC   C3B33169  26.620  13.385  18.638 -0.2112 -0.1943  0.0620
70099POPC   C4B33170  26.864  13.075  18.409 -0.3174 -0.3469 -0.1916
70100POPC   NC333171  27.565   2.052  18.533 -0.0249  0.2405  0.0477
70100POPC   PO433172  27.949   1.955  18.556  0.0214 -0.0590  0.0021
70100POPC   GL133173  28.114   1.880  18.227  0.0830  0.3480  0.0497
70100POPC   GL233174  28.015   1.589  18.106 -0.2578 -0.0556 -0.1134
70100POPC   C1A33175  28.487   1.626  18.035  0.5022  0.0903  0.0579
70100POPC   D2A33176  28.809   1.576  17.732  0.1073  0.0436  0.1295
70100POPC   C3A33177  29.253   1.400  17.747 -0.1599 -0.0857 -0.0747
70100POPC   C4A33178  29.736   1.414  17.685 -0.1673  0.0333 -0.0400
70100POPC   C1B33179  28.158   1.576  17.620  0.1601  0.0377 -0.3304
70100POPC   C2B33180  28.424   1.444  17.265  0.0867 -0.1050 -0.1592
70100POPC   C3B33181  28.749   1.511  16.931 -0.1375 -0.0229 -0.1952
70100POPC   C4B33182  29.082   1.561  16.606 -0.0367 -0.1200  0.1699
70101POPC   NC333183  22.604  31.762  20.412  0.0520 -0.3301  0.0983
70101POPC   PO433184  22.289  31.604  20.615  0.0650 -0.1256 -0.3448
70101POPC   GL133185  22.183  31.751  20.341  0.2386  0.0565  0.0737
70101POPC   GL233186  22.192  31.955  20.124 -0.1937  0.0479  0.0980
70101POPC   C1A33187  22.044  31.568  19.900 -0.1119 -0.2074 -0.2470
70101POPC   D2A33188  22.156  31.299  19.509  0.1892  0.1741 -0.2541
70101POPC   C3A33189  22.374  31.304  19.113  0.0930  0.0440 -0.2075
70101POPC   C4A33190  22.672  31.150  18.818 -0.0336  0.2337 -0.2679
70101POPC   C1B33191  22.134  32.171  19.709 -0.1831 -0.0257  0.0203
70101POPC   C2B33192  22.068  32.207  19.258  0.0253  0.3151  0.0341
70101POPC   C3B33193  21.899  32.370  18.869  0.0177  0.0952 -0.1475
70101POPC   C4B33194  21.883  32.221  18.458 -0.0599 -0.1053  0.1588
70102POPC   NC333195  29.890   4.438  18.653 -0.0512 -0.0268 -0.1609
70102POPC   PO433196  30.217   4.657  18.550  0.0863  0.0420  0.1634
70102POPC   GL133197  30.597   4.894  18.444  0.0109 -0.1483  0.3378
70102POPC   GL233198  30.585   4.932  18.178 -0.0497  0.1828 -0.0197
70102POPC   C1A33199  31.033   4.920  18.250  0.2774 -0.4637 -0.1288
70102POPC   D2A33200  31.262   4.852  17.886 -0.0010  0.0245  0.4707
70102POPC   C3A33201  31.594   5.098  17.657 -0.1208 -0.0288 -0.3483
70102POPC   C4A33202  31.551   5.559  17.518  0.1403  0.3123  0.1095
70102POPC   C1B33203  30.237   4.962  17.845  0.0197  0.1354  0.1633
70102POPC   C2B33204  29.933   5.268  17.706 -0.0066  0.1353  0.0754
70102POPC   C3B33205  29.867   5.453  17.302  0.1423  0.1520  0.0628
70102POPC   C4B33206  30.004   5.474  16.856 -0.2116  0.0231  0.0479
70103POPC   NC333207  21.969   2.920  19.264  0.0693  0.0928 -0.0327
70103POPC   PO433208  22.051   2.558  19.189  0.0393 -0.0316  0.3384
70103POPC   GL133209  22.106   2.628  18.775  0.0950 -0.1426  0.1518
70103POPC   GL233210  22.229   2.376  18.673 -0.2837 -0.1032 -0.0838
70103POPC   C1A33211  21.796   2.521  18.400 -0.1506 -0.1063 -0.3067
70103POPC   D2A33212  21.538   2.551  17.981 -0.0537 -0.3368 -0.2441
70103POPC   C3A33213  21.739   2.532  17.573  0.1463  0.2981 -0.2021
70103POPC   C4A33214  21.991   2.531  17.222  0.0031 -0.0735  0.3061
70103POPC   C1B33215  21.894   2.065  18.519  0.0169  0.0016 -0.0562
70103POPC   C2B33216  21.689   1.815  18.267  0.1478  0.1237  0.1110
70103POPC   C3B33217  21.356   1.613  18.028  0.1746  0.2496 -0.0715
70103POPC   C4B33218  21.052   1.696  17.670 -0.0570 -0.1673  0.0565
70104POPC   NC333219  20.116   6.093  19.726 -0.0387  0.0213 -0.2146
70104POPC   PO433220  19.776   6.151  19.565  0.0254 -0.1060 -0.0287
70104POPC   GL133221  19.731   6.183  19.219 -0.0134 -0.1011  0.1315
70104POPC   GL233222  19.674   6.486  19.153  0.1686  0.3633 -0.0129
70104POPC   C1A33223  19.994   6.291  18.834  0.1348  0.1348 -0.0317
70104POPC   D2A33224  20.131   6.085  18.434 -0.1740  0.3640  0.0546
70104POPC   C3A33225  20.180   6.244  18.001 -0.3683  0.2879  0.0764
70104POPC   C4A33226  19.939   6.478  17.702  0.1662 -0.0385 -0.5798
70104POPC   C1B33227  19.525   6.314  18.776  0.0258  0.2655 -0.0537
70104POPC   C2B33228  19.325   6.281  18.360  0.1142 -0.2015  0.0116
70104POPC   C3B33229  19.013   6.325  18.021 -0.2683  0.3057  0.0696
70104POPC   C4B33230  18.616   6.197  17.778  0.0735 -0.0584  0.1503
70105POPC   NC333231  19.592  32.648  20.460  0.1885 -0.1049 -0.1057
70105POPC   PO433232  19.959  32.598  20.521  0.1075  0.3327 -0.0196
70105POPC   GL133233  20.022  32.699  20.160 -0.0602 -0.2337  0.1839
70105POPC   GL233234  20.277  32.695  20.096  0.0778  0.0090  0.1463
70105POPC   C1A33235  19.796  32.765  19.747  0.0692 -0.0818  0.0106
70105POPC   D2A33236  19.545  32.585  19.365 -0.0714 -0.3192 -0.2304
70105POPC   C3A33237  19.756  32.263  19.130 -0.2028 -0.0368  0.0028
70105POPC   C4A33238  20.066  31.938  19.084  0.0344  0.1384 -0.1141
70105POPC   C1B33239  20.269  32.853  19.685 -0.0863 -0.1525  0.0899
70105POPC   C2B33240  20.541  33.146  19.463  0.1920  0.0214 -0.5064
70105POPC   C3B33241  20.809  33.210  19.121  0.1208 -0.2340 -0.1428
70105POPC   C4B33242  21.179  32.960  19.225 -0.3335  0.0482  0.0723
70106POPC   NC333243  24.966   5.945  11.694 -0.1983 -0.0887  0.1114
70106POPC   PO433244  25.281   6.181  11.603 -0.1076  0.3455 -0.1916
70106POPC   GL133245  24.942   6.428  11.643 -0.1345  0.1844 -0.4104
70106POPC   GL233246  24.909   6.710  11.686  0.0269 -0.1233 -0.0891
70106POPC   C1A33247  24.511   6.367  11.749  0.2650  0.1249  0.1448
70106POPC   D2A33248  24.089   6.313  11.990  0.1781 -0.2621 -0.0578
70106POPC   C3A33249  23.826   6.626  11.775 -0.1665 -0.1571 -0.3462
70106POPC   C4A33250  23.489   6.463  11.442  0.3396 -0.0368  0.0995
70106POPC   C1B33251  24.810   6.970  12.076  0.0664  0.1345  0.0324
70106POPC   C2B33252  24.820   7.231  12.434 -0.3331 -0.1464 -0.1346
70106POPC   C3B33253  24.739   7.614  12.656  0.2241 -0.1317  0.0712
70106POPC   C4B33254  24.782   8.005  12.917  0.3418  0.2438 -0.4520
70107POPC   NC333255  31.211   3.006  20.128 -0.0776 -0.1272 -0.1583
70107POPC   PO433256  31.016   3.057  19.822  0.1048 -0.1531 -0.0509
70107POPC   GL133257  30.983   2.884  19.461 -0.2521  0.0020  0.1860
70107POPC   GL233258  31.084   3.033  19.209 -0.0530 -0.2610 -0.1003
70107POPC   C1A33259  30.720   2.698  19.127  0.0073 -0.0775  0.5146
70107POPC   D2A33260  30.610   2.440  18.675  0.0567 -0.1026 -0.2625
70107POPC   C3A33261  30.886   2.302  18.325  0.1280  0.1688  0.2766
70107POPC   C4A33262  30.958   2.304  17.870 -0.2194 -0.0182  0.1128
70107POPC   C1B33263  31.076   2.817  18.772 -0.1168 -0.3290  0.1335
70107POPC   C2B33264  31.176   2.658  18.348  0.0828  0.0881  0.1569
70107POPC   C3B33265  31.262   2.754  17.873  0.3423 -0.4164  0.0965
70107POPC   C4B33266  31.491   2.485  17.537  0.1290 -0.1775 -0.1750
70108POPC   NC333267  19.230   2.952  20.037  0.0975  0.1994  0.0150
70108POPC   PO433268  19.546   3.061  19.849 -0.0250  0.1148 -0.0567
70108POPC   GL133269  19.314   3.170  19.548 -0.0782  0.1990 -0.0070
70108POPC   GL233270  19.385   3.130  19.327  0.0802 -0.0152 -0.0076
70108POPC   C1A33271  19.041   3.557  19.400  0.1388  0.0863 -0.3384
70108POPC   D2A33272  19.116   3.978  19.184  0.0137  0.2204  0.5741
70108POPC   C3A33273  18.951   3.938  18.741 -0.0809  0.0287  0.1018
70108POPC   C4A33274  18.841   3.859  18.312 -0.0398 -0.1871  0.1353
70108POPC   C1B33275  19.393   3.042  18.841  0.1022  0.1139  0.2338
70108POPC   C2B33276  19.105   3.010  18.493 -0.2654  0.2990 -0.2163
70108POPC   C3B33277  19.061   2.748  18.138 -0.2522  0.4164  0.1603
70108POPC   C4B33278  18.989   2.310  18.053 -0.0392 -0.1387 -0.3572
70109POPC   NC333279  31.094   6.734  19.460 -0.1486 -0.0174  0.1783
70109POPC   PO433280  31.368   6.991  19.616  0.1253  0.0365 -0.0729
70109POPC   GL133281  31.347   7.045  19.210  0.0703  0.2313 -0.1906
70109POPC   GL233282  31.131   7.201  19.166 -0.1639  0.0630 -0.0449
70109POPC   C1A33283  31.461   7.024  18.776  0.0677 -0.1013 -0.2386
70109POPC   D2A33284  31.605   7.026  18.339 -0.0507  0.0103 -0.3962
70109POPC   C3A33285  31.550   7.083  17.880  0.1122  0.2883 -0.1685
70109POPC   C4A33286  31.495   7.409  17.649 -0.0969 -0.1952 -0.0523
70109POPC   C1B33287  31.098   7.461  18.761  0.2714  0.2895  0.0233
70109POPC   C2B33288  30.928   7.641  18.394  0.1280 -0.0074 -0.0600
70109POPC   C3B33289  30.875   8.076  18.133 -0.3399  0.0010 -0.1012
70109POPC   C4B33290  31.136   8.343  17.830 -0.1494 -0.0743  0.0610
70110POPC   NC333291  22.110  10.045  20.320 -0.2119  0.1999  0.3525
70110POPC   PO433292  22.204   9.784  19.988  0.0830  0.2015  0.1175
70110POPC   GL133293  22.232   9.574  19.607 -0.1248 -0.1942 -0.1853
70110POPC   GL233294  22.541   9.572  19.601 -0.0094 -0.3120 -0.3019
70110POPC   C1A33295  22.008   9.376  19.292 -0.0150  0.0696  0.1602
70110POPC   D2A33296  21.805   9.033  19.118  0.3241  0.0904  0.2292
70110POPC   C3A33297  21.551   8.877  18.758 -0.0926 -0.1892 -0.1235
70110POPC   C4A33298  21.432   8.959  18.297  0.3650  0.1914 -0.0221
70110POPC   C1B33299  22.471  10.038  19.484 -0.2207  0.0903  0.1160
70110POPC   C2B33300  22.356  10.475  19.357 -0.3117  0.1377  0.1748
70110POPC   C3B33301  22.063  10.742  19.172 -0.0174  0.0276 -0.1340
70110POPC   C4B33302  22.059  10.973  18.777 -0.0710 -0.1598  0.1216
70111POPC   NC333303  29.063   7.359  19.292  0.0947  0.2414 -0.1732
70111POPC   PO433304  29.355   7.407  19.545 -0.3275 -0.2449  0.3318
70111POPC   GL133305  29.510   7.562  19.219  0.4154 -0.1923  0.0192
70111POPC   GL233306  29.485   7.382  18.986 -0.0899  0.0094 -0.0545
70111POPC   C1A33307  29.484   7.845  18.841  0.2463 -0.2745 -0.1022
70111POPC   D2A33308  29.492   7.916  18.355  0.4188  0.1900 -0.1287
70111POPC   C3A33309  29.700   8.213  18.031 -0.0785 -0.0763 -0.2462
70111POPC   C4A33310  30.027   8.236  17.706  0.1720 -0.2958  0.1403
70111POPC   C1B33311  29.829   7.548  18.713 -0.1607  0.1250 -0.2449
70111POPC   C2B33312  30.182   7.556  18.432 -0.0507  0.3846 -0.4598
70111POPC   C3B33313  30.525   7.623  18.081  0.2037  0.3089  0.2379
70111POPC   C4B33314  30.592   7.931  17.722 -0.1352  0.0674 -0.3746
70112POPC   NC333315  31.511  14.908  20.246 -0.1274 -0.0819  0.0700
70112POPC   PO433316  31.309  14.668  20.430 -0.0319  0.4412  0.3537
70112POPC   GL133317  31.136  14.572  20.116  0.0070 -0.3256  0.2580
70112POPC   GL233318  31.343  14.299  20.073 -0.1555  0.2062  0.2258
70112POPC   C1A33319  31.097  14.670  19.680  0.1408  0.2900 -0.1513
70112POPC   D2A33320  30.965  14.522  19.272  0.0764  0.0030 -0.0950
70112POPC   C3A33321  31.225  14.464  18.883 -0.4394  0.0268 -0.0683
70112POPC   C4A33322  31.540  14.467  18.531  0.0697 -0.1159  0.0476
70112POPC   C1B33323  31.348  14.255  19.612  0.2221  0.2170 -0.3222
70112POPC   C2B33324  31.404  14.049  19.195 -0.1897 -0.0994  0.1607
70112POPC   C3B33325  31.414  13.944  18.756  0.0455 -0.0219 -0.3323
70112POPC   C4B33326  31.606  13.659  18.477 -0.0824  0.1296 -0.0273
70113POPC   NC333327  27.236   6.198  17.707 -0.0274 -0.4009  0.1777
70113POPC   PO433328  27.083   6.572  17.642  0.3687 -0.2878  0.1194
70113POPC   GL133329  27.000   6.961  17.359 -0.0429 -0.1549  0.2500
70113POPC   GL233330  27.272   7.123  17.410  0.1390 -0.1186 -0.2269
70113POPC   C1A33331  26.759   7.387  17.232  0.1970 -0.1747 -0.0987
70113POPC   D2A33332  26.726   7.848  17.347  0.0364  0.1154  0.1667
70113POPC   C3A33333  26.963   8.085  17.009 -0.3453  0.1073 -0.1932
70113POPC   C4A33334  27.177   8.261  16.628 -0.0714 -0.1373  0.3432
70113POPC   C1B33335  27.211   7.449  17.043  0.1079  0.2062  0.0434
70113POPC   C2B33336  27.215   7.783  16.761  0.2580 -0.1987  0.0436
70113POPC   C3B33337  27.323   7.845  16.347  0.0298 -0.0824  0.0301
70113POPC   C4B33338  27.247   7.705  15.886  0.1563 -0.1488  0.0464
70114POPC   NC333339  21.328   4.041  19.095 -0.3772  0.2313  0.0918
70114POPC   PO433340  20.950   4.142  19.214  0.2717  0.1324  0.3326
70114POPC   GL133341  21.016   4.314  18.775 -0.1201 -0.3666  0.2089
70114POPC   GL233342  20.956   4.036  18.733 -0.1948  0.1179  0.1404
70114POPC   C1A33343  21.073   4.384  18.317 -0.0468 -0.1743 -0.0841
70114POPC   D2A33344  21.189   4.307  17.852 -0.0206 -0.0144  0.0613
70114POPC   C3A33345  20.856   4.183  17.583  0.1987 -0.0810  0.0041
70114POPC   C4A33346  20.777   4.100  17.103 -0.0200 -0.0973 -0.1267
70114POPC   C1B33347  20.723   4.051  18.362 -0.0445  0.0663 -0.1746
70114POPC   C2B33348  20.442   4.000  18.001 -0.1388 -0.0471  0.1194
70114POPC   C3B33349  20.068   3.823  17.744  0.1915  0.0844 -0.0023
70114POPC   C4B33350  20.097   3.461  17.510  0.1166  0.0703  0.1133
70115POPC   NC333351  22.662   1.963  18.920  0.0470 -0.0710 -0.0946
70115POPC   PO433352  23.005   1.761  18.927  0.2035 -0.2516 -0.0569
70115POPC   GL133353  22.993   1.502  18.644 -0.0978 -0.0245  0.4320
70115POPC   GL233354  23.106   1.290  18.516 -0.5127  0.0970  0.2081
70115POPC   C1A33355  22.728   1.599  18.276  0.3277  0.1488 -0.4682
70115POPC   D2A33356  22.296   1.679  18.148  0.3252 -0.2086  0.1236
70115POPC   C3A33357  22.107   1.728  17.705 -0.1470  0.0836  0.0166
70115POPC   C4A33358  21.977   1.568  17.284  0.0966  0.2997 -0.3032
70115POPC   C1B33359  22.804   1.108  18.178 -0.0916 -0.1604  0.1901
70115POPC   C2B33360  22.791   1.050  17.738 -0.0810  0.2092  0.3689
70115POPC   C3B33361  22.679   0.831  17.322 -0.1602  0.1861 -0.2909
70115POPC   C4B33362  22.424   0.869  16.903 -0.0318 -0.0418  0.3256
70116POPC   NC333363  32.043  14.427  20.556 -0.0289 -0.1243 -0.2318
70116POPC   PO433364  31.988  14.791  20.406 -0.0939  0.0592 -0.2421
70116POPC   GL133365  32.131  14.825  20.084  0.2012  0.0999 -0.1283
70116POPC   GL233366  32.230  14.555  20.017  0.2011 -0.7187  0.2285
70116POPC   C1A33367  32.635  14.921  19.980 -0.0230 -0.1910  0.0945
70116POPC   D2A33368  33.085  15.112  19.861  0.1201  0.2068  0.1570
70116POPC   C3A33369  33.334  14.898  19.552 -0.0628 -0.0497  0.1133
70116POPC   C4A33370  33.698  14.573  19.368  0.0268 -0.0512 -0.0473
70116POPC   C1B33371  32.230  14.446  19.532  0.0200 -0.0466 -0.1454
70116POPC   C2B33372  32.453  14.652  19.186 -0.3580  0.0875  0.1817
70116POPC   C3B33373  32.801  14.660  18.868  0.0615  0.1922 -0.0407
70116POPC   C4B33374  33.093  14.903  18.637 -0.1065 -0.1783 -0.0403
70117POPC   NC333375  18.919  14.602  20.464  0.1807 -0.0964  0.1762
70117POPC   PO433376  18.598  14.375  20.628 -0.1309  0.3135  0.0628
70117POPC   GL133377  18.469  14.522  20.288  0.4039  0.0584  0.3746
70117POPC   GL233378  18.257  14.699  20.189  0.1029 -0.0867  0.1784
70117POPC   C1A33379  18.346  14.355  19.851 -0.0266 -0.1275 -0.2506
70117POPC   D2A33380  18.529  14.424  19.374  0.0462 -0.1837 -0.0111
70117POPC   C3A33381  18.186  14.399  19.107  0.1793  0.1305 -0.0387
70117POPC   C4A33382  17.883  14.267  18.843 -0.1489  0.4157  0.1219
70117POPC   C1B33383  18.592  14.795  19.889 -0.0255  0.0790 -0.0752
70117POPC   C2B33384  18.756  14.950  19.432  0.0822  0.0129 -0.2662
70117POPC   C3B33385  18.975  14.978  18.979 -0.0019  0.0275 -0.1587
70117POPC   C4B33386  19.349  14.849  18.783  0.1772  0.0546 -0.0790
70118POPC   NC333387  21.463   0.027  19.635 -0.0269 -0.2512 -0.0637
70118POPC   PO433388  21.338  -0.150  19.966  0.2052  0.0293  0.0784
70118POPC   GL133389  21.387  -0.422  19.709 -0.0911  0.2378 -0.0107
70118POPC   GL233390  21.687  -0.490  19.640  0.0505 -0.1545  0.2687
70118POPC   C1A33391  21.178  -0.327  19.354 -0.0552 -0.0912  0.1437
70118POPC   D2A33392  21.094  -0.588  18.999  0.2315  0.0153 -0.3347
70118POPC   C3A33393  21.345  -0.653  18.643 -0.1478  0.0421 -0.2913
70118POPC   C4A33394  21.352  -0.702  18.170  0.2211 -0.2162 -0.3327
70118POPC   C1B33395  21.665  -0.242  19.225  0.0202 -0.1969  0.1928
70118POPC   C2B33396  21.387  -0.164  18.868 -0.0719 -0.2350 -0.0273
70118POPC   C3B33397  20.952  -0.058  18.707  0.1080 -0.1056 -0.2682
70118POPC   C4B33398  20.615   0.199  18.640 -0.0020 -0.0356  0.2209
70119POPC   NC333399  17.274   9.870  20.486 -0.1070  0.0457  0.1247
70119POPC   PO433400  17.306   9.648  20.167 -0.2219 -0.0079 -0.1353
70119POPC   GL133401  17.102   9.640  19.859 -0.4732 -0.3489  0.0342
70119POPC   GL233402  17.367   9.663  19.696 -0.0785  0.0026 -0.1678
70119POPC   C1A33403  17.053   9.333  19.521  0.3739  0.0884  0.2592
70119POPC   D2A33404  17.017   8.954  19.193  0.0132  0.1697 -0.0920
70119POPC   C3A33405  17.158   9.160  18.839  0.2272  0.2432  0.0992
70119POPC   C4A33406  17.100   9.023  18.401  0.0960 -0.0869  0.1712
70119POPC   C1B33407  17.516   9.372  19.362  0.2447 -0.3324  0.1097
70119POPC   C2B33408  17.614   9.345  18.817  0.0365  0.0591 -0.1844
70119POPC   C3B33409  17.571   9.417  18.432 -0.0172 -0.1770  0.1954
70119POPC   C4B33410  17.563   9.315  18.046 -0.0611  0.2540  0.0895
70120POPC   NC333411  21.167  10.778  20.766 -0.0272  0.1523  0.2045
70120POPC   PO433412  20.918  10.495  20.534 -0.0827 -0.2326 -0.1025
70120POPC   GL133413  20.740  10.700  20.313 -0.2755 -0.0917 -0.1059
70120POPC   GL233414  20.589  10.887  20.434 -0.3475  0.0168 -0.1546
70120POPC   C1A33415  20.385  10.719  20.029 -0.3541  0.1230  0.0275
70120POPC   D2A33416  20.045  10.595  19.735  0.3088 -0.2560 -0.1450
70120POPC   C3A33417  20.271  10.580  19.321 -0.1146  0.0622  0.0252
70120POPC   C4A33418  20.576  10.247  19.259  0.1446  0.0459  0.0621
70120POPC   C1B33419  20.666  11.211  20.047  0.1405  0.1362 -0.2354
70120POPC   C2B33420  20.518  11.442  19.664  0.0110  0.0822  0.0779
70120POPC   C3B33421  20.264  11.707  19.370  0.2508  0.0517 -0.1497
70120POPC   C4B33422  20.227  11.818  18.874  0.1336 -0.2675 -0.1462
70121POPC   NC333423  18.633   4.324  19.779  0.3521  0.2304  0.0264
70121POPC   PO433424  18.481   3.995  19.831  0.1830  0.3081  0.2165
70121POPC   GL133425  18.332   3.913  19.477  0.0220 -0.1018  0.0408
70121POPC   GL233426  18.579   4.028  19.349  0.2360 -0.0253 -0.1055
70121POPC   C1A33427  18.175   3.725  19.057  0.1233  0.0758  0.1409
70121POPC   D2A33428  17.844   3.897  18.814 -0.2327  0.0834 -0.0269
70121POPC   C3A33429  18.020   3.792  18.429 -0.2579  0.0027 -0.0151
70121POPC   C4A33430  18.147   3.854  18.016  0.1020 -0.2419 -0.1816
70121POPC   C1B33431  18.541   4.175  18.929  0.1785  0.1302  0.2429
70121POPC   C2B33432  18.442   4.049  18.473  0.4640 -0.0006 -0.2039
70121POPC   C3B33433  18.544   4.123  18.030 -0.4479 -0.2286 -0.1619
70121POPC   C4B33434  18.475   4.084  17.573  0.1375 -0.3120 -0.1325
70122POPC   NC333435  25.404   6.349  13.344  0.2071 -0.0217 -0.4240
70122POPC   PO433436  25.280   6.005  13.519 -0.4129  0.0378  0.0475
70122POPC   GL133437  24.886   6.084  13.517 -0.1032 -0.0224  0.1403
70122POPC   GL233438  24.941   6.303  13.644 -0.2404  0.1312 -0.3373
70122POPC   C1A33439  24.434   6.094  13.705  0.2058  0.2121  0.0285
70122POPC   D2A33440  24.310   5.845  14.077 -0.0443 -0.2093 -0.0997
70122POPC   C3A33441  23.986   6.151  14.257 -0.2447  0.0449 -0.3244
70122POPC   C4A33442  23.789   6.417  14.006 -0.0313 -0.1342  0.2313
70122POPC   C1B33443  24.623   6.615  13.484 -0.3770  0.1766  0.1669
70122POPC   C2B33444  24.348   6.796  13.262 -0.2840 -0.1472  0.0677
70122POPC   C3B33445  24.022   6.993  13.002  0.1436 -0.0710  0.0056
70122POPC   C4B33446  23.832   7.087  12.557  0.1608 -0.1306 -0.1766
70123POPC   NC333447  24.069   5.413  16.498 -0.0942  0.0693 -0.0805
70123POPC   PO433448  24.183   5.692  16.286  0.0791  0.1638 -0.1534
70123POPC   GL133449  23.968   5.813  15.956 -0.0107 -0.1540 -0.0632
70123POPC   GL233450  23.983   5.544  15.835 -0.1451 -0.1443  0.0647
70123POPC   C1A33451  23.773   5.972  15.564  0.0412 -0.3362 -0.0310
70123POPC   D2A33452  23.513   6.313  15.392  0.4029 -0.0316  0.1822
70123POPC   C3A33453  23.387   6.675  15.637 -0.0649  0.1698 -0.1791
70123POPC   C4A33454  23.209   7.061  15.462  0.3781  0.0289 -0.1511
70123POPC   C1B33455  23.906   5.444  15.396 -0.2733 -0.0366 -0.1356
70123POPC   C2B33456  23.898   5.584  14.959  0.0706  0.2861 -0.0225
70123POPC   C3B33457  23.799   5.696  14.559 -0.1341 -0.0999  0.0209
70123POPC   C4B33458  23.530   5.977  14.341  0.0104 -0.3391  0.0260
70124POPC   NC333459  30.281   7.692  19.701  0.0284  0.1686 -0.0423
70124POPC   PO433460  30.044   7.902  19.942 -0.0756  0.1737  0.3471
70124POPC   GL133461  30.189   8.207  19.719 -0.0546 -0.1342 -0.2382
70124POPC   GL233462  30.450   8.327  19.765 -0.0125 -0.0092  0.2813
70124POPC   C1A33463  30.497   8.092  19.347  0.1304  0.0454 -0.3518
70124POPC   D2A33464  30.601   7.904  18.847 -0.0528 -0.1962  0.0004
70124POPC   C3A33465  30.473   8.047  18.434  0.5055  0.0240 -0.0906
70124POPC   C4A33466  30.411   8.297  18.123  0.0221  0.1262  0.0435
70124POPC   C1B33467  30.455   8.637  19.431  0.2374 -0.3035  0.1097
70124POPC   C2B33468  30.502   8.791  18.994 -0.0460  0.1176 -0.2659
70124POPC   C3B33469  30.678   9.088  18.617  0.0229 -0.0894 -0.0614
70124POPC   C4B33470  30.836   9.432  18.324  0.0122  0.1098 -0.2785
70125POPC   NC333471  22.180   7.952  19.388 -0.4967  0.1302 -0.2412
70125POPC   PO433472  22.088   8.299  19.519  0.0204 -0.3719  0.1863
70125POPC   GL133473  21.794   8.261  19.298  0.0996 -0.3181 -0.0735
70125POPC   GL233474  21.898   8.286  19.043 -0.1878  0.0331 -0.0286
70125POPC   C1A33475  21.454   8.611  19.210  0.1705 -0.2578  0.0966
70125POPC   D2A33476  21.364   9.093  19.272  0.2424 -0.2383 -0.0862
70125POPC   C3A33477  21.416   9.351  18.949  0.0246 -0.2360  0.1491
70125POPC   C4A33478  21.414   9.793  18.703 -0.3480  0.0847 -0.3783
70125POPC   C1B33479  21.628   8.406  18.703  0.0467  0.0623 -0.2383
70125POPC   C2B33480  21.331   8.456  18.351 -0.1996 -0.1340 -0.2343
70125POPC   C3B33481  21.157   8.549  17.980  0.0063  0.0041 -0.1088
70125POPC   C4B33482  21.151   8.312  17.632  0.1277 -0.1306 -0.1926
70126POPC   NC333483  25.963   6.436  16.206  0.1730 -0.0727  0.1712
70126POPC   PO433484  25.898   6.655  16.515  0.1658 -0.3756  0.0831
70126POPC   GL133485  26.122   6.925  16.310  0.1690 -0.0935  0.2101
70126POPC   GL233486  25.965   6.946  16.039 -0.2472 -0.3134  0.0133
70126POPC   C1A33487  26.330   7.286  16.101 -0.4353  0.1067 -0.1066
70126POPC   D2A33488  26.373   7.719  16.246  0.0785 -0.0809  0.1148
70126POPC   C3A33489  25.969   7.872  16.125  0.0762  0.0080 -0.3015
70126POPC   C4A33490  25.740   8.220  15.929  0.2414 -0.3646 -0.0458
70126POPC   C1B33491  25.898   7.433  15.833  0.0693  0.0797  0.1871
70126POPC   C2B33492  25.670   7.772  15.630 -0.2466 -0.1857 -0.3250
70126POPC   C3B33493  25.488   8.087  15.353  0.1928  0.0579  0.2066
70126POPC   C4B33494  25.373   8.582  15.293  0.1080 -0.0208  0.0680
70127POPC   NC333495  20.756  13.435  20.556  0.1374  0.1282  0.1861
70127POPC   PO433496  20.571  13.735  20.719  0.1541  0.1941  0.1590
70127POPC   GL133497  20.559  13.795  20.309  0.6854 -0.5115 -0.1930
70127POPC   GL233498  20.721  13.989  20.249 -0.2099  0.2312 -0.2805
70127POPC   C1A33499  20.275  13.735  19.931 -0.0716  0.0677  0.0697
70127POPC   D2A33500  20.353  13.695  19.484 -0.1246  0.2134  0.0535
70127POPC   C3A33501  20.111  13.638  19.104  0.0496  0.0183 -0.0992
70127POPC   C4A33502  19.752  13.884  18.999  0.0544  0.2467 -0.0568
70127POPC   C1B33503  20.636  14.006  19.774  0.1163  0.1504  0.0616
70127POPC   C2B33504  20.739  13.953  19.358 -0.0984 -0.0404  0.0305
70127POPC   C3B33505  20.610  13.813  18.985  0.3861 -0.0797 -0.4554
70127POPC   C4B33506  20.659  13.722  18.515 -0.0565  0.0299 -0.2081
70128POPC   NC333507   0.968   4.892  19.945  0.3393 -0.0720 -0.2644
70128POPC   PO433508   1.195   4.537  19.915 -0.0263  0.1281  0.2028
70128POPC   GL133509   1.200   4.706  19.557  0.0870 -0.1126  0.0769
70128POPC   GL233510   0.844   4.724  19.506 -0.5584  0.0176 -0.1162
70128POPC   C1A33511   1.169   4.873  19.139 -0.0640  0.1755  0.0363
70128POPC   D2A33512   1.223   4.932  18.717  0.3618  0.3777 -0.2257
70128POPC   C3A33513   1.058   5.107  18.294  0.0432 -0.0308  0.0722
70128POPC   C4A33514   0.949   5.281  17.902 -0.0791  0.1170 -0.0026
70128POPC   C1B33515   0.769   5.145  19.233 -0.0037 -0.0730 -0.0249
70128POPC   C2B33516   0.973   5.411  18.882 -0.0568 -0.0013  0.0873
70128POPC   C3B33517   0.916   5.561  18.440  0.2861  0.1375 -0.0649
70128POPC   C4B33518   1.007   5.826  18.036 -0.0268 -0.2852 -0.0853
70129POPC   NC333519  25.523   7.538  18.013  0.1469  0.2343  0.0342
70129POPC   PO433520  25.797   7.703  18.267 -0.0326 -0.4123 -0.0242
70129POPC   GL133521  25.740   7.995  18.021 -0.1438 -0.0206  0.1114
70129POPC   GL233522  25.619   8.012  17.682  0.0602 -0.3149  0.1648
70129POPC   C1A33523  25.921   8.345  17.831 -0.0862  0.1611 -0.1809
70129POPC   D2A33524  25.991   8.802  17.842  0.0130 -0.2080 -0.1947
70129POPC   C3A33525  25.917   8.949  17.409  0.1076  0.0636  0.3894
70129POPC   C4A33526  25.725   9.131  17.000  0.0220  0.2029  0.3139
70129POPC   C1B33527  25.409   8.107  17.270 -0.0951  0.0252 -0.1202
70129POPC   C2B33528  25.263   8.337  16.872  0.2042 -0.0825  0.2323
70129POPC   C3B33529  24.921   8.616  16.628 -0.0559  0.2760  0.0379
70129POPC   C4B33530  24.916   8.807  16.206 -0.2009  0.1864 -0.0104
70130POPC   NC333531  17.047  13.313  20.573  0.0932 -0.0998  0.1489
70130POPC   PO433532  17.446  13.347  20.728 -0.0597  0.0605  0.1842
70130POPC   GL133533  17.357  13.259  20.296  0.0222  0.4193  0.0008
70130POPC   GL233534  17.382  12.981  20.303  0.3573  0.0485 -0.2927
70130POPC   C1A33535  17.588  13.263  19.918  0.0138  0.2380  0.1468
70130POPC   D2A33536  17.998  13.305  19.646  0.2854  0.3447  0.1710
70130POPC   C3A33537  18.252  13.393  19.243 -0.2217 -0.4329  0.0616
70130POPC   C4A33538  18.677  13.202  19.185  0.0064  0.0883  0.1824
70130POPC   C1B33539  17.256  12.836  19.837  0.0037 -0.1911 -0.0319
70130POPC   C2B33540  17.090  12.827  19.419 -0.2410 -0.0502  0.0583
70130POPC   C3B33541  17.001  13.092  19.050 -0.1771  0.1518  0.0132
70130POPC   C4B33542  16.867  13.436  18.753 -0.1047  0.0301  0.0535
70131POPC   NC333543  21.702   7.357  19.081 -0.1136  0.0383  0.3040
70131POPC   PO433544  22.070   7.515  19.170 -0.2920  0.1817  0.4311
70131POPC   GL133545  21.928   7.845  18.972 -0.1126  0.0997 -0.2814
70131POPC   GL233546  21.744   7.763  18.751  0.0598  0.1590 -0.2209
70131POPC   C1A33547  22.124   8.138  18.653  0.0226 -0.0818  0.0526
70131POPC   D2A33548  22.368   8.276  18.242  0.2425  0.1337 -0.1147
70131POPC   C3A33549  22.266   8.723  18.064  0.1921  0.0285  0.0348
70131POPC   C4A33550  22.033   8.815  17.690 -0.3407  0.1774 -0.1281
70131POPC   C1B33551  21.416   7.937  18.419  0.1325  0.1859  0.2946
70131POPC   C2B33552  21.257   7.940  17.961 -0.2109  0.2310  0.2402
70131POPC   C3B33553  20.946   7.838  17.687  0.0364 -0.1113 -0.0499
70131POPC   C4B33554  20.679   7.778  17.305 -0.1286 -0.0089  0.0513
70132POPC   NC333555  30.616  12.300  20.475 -0.0312  0.3473  0.0271
70132POPC   PO433556  30.982  12.420  20.577 -0.1270  0.1849  0.0318
70132POPC   GL133557  31.178  12.614  20.287 -0.2497 -0.0225 -0.0585
70132POPC   GL233558  31.380  12.413  20.214 -0.1783  0.1601 -0.0862
70132POPC   C1A33559  31.311  12.928  19.933  0.4283 -0.0514  0.0364
70132POPC   D2A33560  31.562  13.290  19.794 -0.5888  0.0634 -0.6291
70132POPC   C3A33561  31.632  13.347  19.374 -0.0550  0.1465  0.1784
70132POPC   C4A33562  31.445  13.419  18.978 -0.1800  0.3365  0.1848
70132POPC   C1B33563  31.501  12.403  19.761 -0.1467 -0.1693 -0.1476
70132POPC   C2B33564  31.562  12.092  19.411 -0.2233  0.1915  0.0466
70132POPC   C3B33565  31.472  11.882  19.028 -0.0710  0.0271 -0.1413
70132POPC   C4B33566  31.203  11.769  18.667 -0.0944  0.0476  0.0228
70133POPC   NC333567  18.765  10.038  20.477  0.1750  0.0987  0.1284
70133POPC   PO433568  19.034  10.317  20.559  0.0670 -0.0778 -0.0521
70133POPC   GL133569  19.025  10.206  20.116 -0.3932 -0.2482  0.0890
70133POPC   GL233570  19.286  10.367  20.096  0.0329 -0.0127 -0.0252
70133POPC   C1A33571  18.770  10.245  19.720  0.2040  0.2340  0.0105
70133POPC   D2A33572  18.651  10.162  19.255 -0.1524 -0.1652  0.1902
70133POPC   C3A33573  18.713   9.869  18.885 -0.2888 -0.0557 -0.4247
70133POPC   C4A33574  18.379   9.852  18.565 -0.1283 -0.2201 -0.0368
70133POPC   C1B33575  19.539  10.375  19.696 -0.0025 -0.0127 -0.1519
70133POPC   C2B33576  19.609  10.473  19.339  0.1940 -0.3618  0.1015
70133POPC   C3B33577  19.627  10.739  18.948 -0.2584  0.1679  0.2369
70133POPC   C4B33578  19.531  10.550  18.562  0.0331  0.2847  0.1795
70134POPC   NC333579  26.598   4.289  13.837  0.2421  0.0323 -0.1817
70134POPC   PO433580  26.912   4.434  13.649 -0.0853  0.0135 -0.0433
70134POPC   GL133581  27.013   4.111  13.779 -0.0815  0.0201  0.2859
70134POPC   GL233582  27.312   4.041  13.881  0.2264  0.2200  0.3495
70134POPC   C1A33583  26.930   3.755  13.507 -0.1310  0.0753  0.0196
70134POPC   D2A33584  27.031   3.316  13.321 -0.0036 -0.0363  0.0688
70134POPC   C3A33585  27.226   3.300  12.887  0.2605 -0.2630  0.0562
70134POPC   C4A33586  27.157   3.271  12.418  0.1108 -0.1829 -0.2532
70134POPC   C1B33587  27.413   3.647  13.744 -0.0128 -0.0399 -0.0393
70134POPC   C2B33588  27.516   3.316  13.553 -0.2398 -0.1382  0.0871
70134POPC   C3B33589  27.402   3.030  13.219 -0.2326  0.1179 -0.0327
70134POPC   C4B33590  27.471   2.536  13.170  0.1621 -0.2096  0.3984
70135POPC   NC333591  29.702  13.624  20.611 -0.2025 -0.1044 -0.0700
70135POPC   PO433592  29.591  13.959  20.493 -0.2008  0.0078  0.0323
70135POPC   GL133593  29.368  13.939  20.094 -0.0678 -0.1040 -0.0274
70135POPC   GL233594  29.485  14.166  20.009  0.0661 -0.0684 -0.0459
70135POPC   C1A33595  29.193  13.694  19.779 -0.1260 -0.0372  0.2164
70135POPC   D2A33596  29.127  13.449  19.457  0.0480 -0.3392 -0.3498
70135POPC   C3A33597  28.800  13.164  19.526  0.3760  0.1318  0.0738
70135POPC   C4A33598  28.589  13.055  19.945  0.0894 -0.0738 -0.0628
70135POPC   C1B33599  29.574  13.994  19.571  0.0782  0.0412 -0.0475
70135POPC   C2B33600  29.649  13.746  19.170  0.2376  0.2445  0.0649
70135POPC   C3B33601  29.750  13.811  18.711 -0.0588 -0.1564  0.5030
70135POPC   C4B33602  29.794  14.237  18.444  0.2369  0.0268 -0.0231
70136POPC   NC333603  21.596   0.283  20.199 -0.3064  0.0646  0.2693
70136POPC   PO433604  21.909   0.065  20.306 -0.1851 -0.1572 -0.1907
70136POPC   GL133605  21.880   0.087  19.861 -0.0171  0.0998 -0.1899
70136POPC   GL233606  22.071  -0.185  19.751 -0.0389  0.1667 -0.0317
70136POPC   C1A33607  21.995   0.124  19.398  0.3574  0.0441  0.0245
70136POPC   D2A33608  22.138  -0.004  18.962  0.1779  0.3694 -0.3464
70136POPC   C3A33609  21.863  -0.058  18.598 -0.0430 -0.1558 -0.0557
70136POPC   C4A33610  21.608  -0.256  18.248  0.0036 -0.0980 -0.2659
70136POPC   C1B33611  22.435  -0.225  19.471 -0.0901 -0.3156 -0.0707
70136POPC   C2B33612  22.453  -0.417  19.076 -0.0770 -0.0753 -0.2209
70136POPC   C3B33613  22.279  -0.340  18.627 -0.1330 -0.0985 -0.0394
70136POPC   C4B33614  22.091  -0.276  18.196  0.1589  0.3260 -0.1183
70137POPC   NC333615  21.382   8.692  20.255  0.0685  0.4509  0.1224
70137POPC   PO433616  21.347   9.044  20.046  0.0087  0.2034 -0.4635
70137POPC   GL133617  21.375   9.299  19.819 -0.2152 -0.4745 -0.0861
70137POPC   GL233618  21.068   9.416  19.774 -0.0771  0.2654 -0.0123
70137POPC   C1A33619  21.484   9.550  19.430 -0.1178 -0.0109 -0.0364
70137POPC   D2A33620  21.677   9.770  19.130  0.1212 -0.0037 -0.0436
70137POPC   C3A33621  21.961   9.869  18.775 -0.0613  0.2143 -0.0647
70137POPC   C4A33622  22.365   9.905  18.509  0.4344  0.1470 -0.2701
70137POPC   C1B33623  20.920   9.394  19.302 -0.1982 -0.3141 -0.0696
70137POPC   C2B33624  20.921   9.330  18.857  0.0211 -0.2302  0.1289
70137POPC   C3B33625  21.158   9.328  18.434 -0.2183 -0.1123 -0.3485
70137POPC   C4B33626  21.434   9.458  18.108 -0.0605  0.2388 -0.1822
70138POPC   NC333627  17.431   5.475  20.094 -0.2135 -0.1135 -0.0903
70138POPC   PO433628  17.799   5.497  19.968 -0.1751  0.0662  0.0681
70138POPC   GL133629  17.876   5.621  19.616 -0.0717  0.2296 -0.2230
70138POPC   GL233630  17.596   5.616  19.490 -0.0303  0.0412 -0.2017
70138POPC   C1A33631  17.970   5.377  19.222  0.0100 -0.1787 -0.1220
70138POPC   D2A33632  18.013   5.192  18.832 -0.1819  0.2715  0.1519
70138POPC   C3A33633  17.802   5.193  18.420  0.0277  0.4154 -0.0298
70138POPC   C4A33634  17.581   5.180  18.073 -0.2354  0.0625  0.4312
70138POPC   C1B33635  17.685   5.952  19.149  0.1996  0.1872  0.1468
70138POPC   C2B33636  17.878   6.191  18.840 -0.2308  0.1697 -0.1779
70138POPC   C3B33637  17.814   6.276  18.388  0.0451  0.2411 -0.0423
70138POPC   C4B33638  17.776   6.353  17.904  0.2341  0.1870  0.4260
70139POPC   NC333639  25.073   0.518  19.714  0.1568  0.1250 -0.0164
70139POPC   PO433640  25.106   0.460  19.323 -0.4092 -0.1567 -0.0238
70139POPC   GL133641  25.135   0.286  18.969  0.3135 -0.2203 -0.0465
70139POPC   GL233642  24.922   0.091  19.026 -0.1293 -0.2541 -0.1584
70139POPC   C1A33643  25.003   0.029  18.556  0.0412 -0.0934  0.0782
70139POPC   D2A33644  24.771  -0.204  18.320  0.1047 -0.1358  0.1350
70139POPC   C3A33645  24.996  -0.109  17.877  0.1725  0.1889 -0.0134
70139POPC   C4A33646  25.184   0.273  17.745 -0.1750 -0.1058 -0.0020
70139POPC   C1B33647  24.710  -0.283  18.801  0.2349 -0.2363  0.1419
70139POPC   C2B33648  24.529  -0.588  18.551 -0.0448  0.3565  0.2124
70139POPC   C3B33649  24.561  -0.823  18.175  0.0618  0.1342 -0.2123
70139POPC   C4B33650  24.707  -0.995  17.783  0.0857 -0.0751 -0.1374
70140POPC   NC333651  26.720   1.175  18.903 -0.2139  0.3051  0.2088
70140POPC   PO433652  26.952   0.933  19.036 -0.0165 -0.1740 -0.0438
70140POPC   GL133653  26.823   0.621  18.816 -0.2098  0.1047 -0.0464
70140POPC   GL233654  27.028   0.416  18.801  0.1922  0.2026  0.3264
70140POPC   C1A33655  26.826   0.501  18.360  0.3168 -0.0545 -0.1725
70140POPC   D2A33656  26.563   0.517  17.968 -0.0152 -0.2025 -0.1318
70140POPC   C3A33657  26.771   0.374  17.628 -0.1012  0.1184  0.4192
70140POPC   C4A33658  26.418   0.145  17.393 -0.1933  0.1329 -0.2485
70140POPC   C1B33659  27.270   0.265  18.413 -0.0994  0.0737  0.0695
70140POPC   C2B33660  27.229   0.206  17.983 -0.1318  0.2161  0.0154
70140POPC   C3B33661  27.236   0.239  17.512  0.1012  0.2037  0.1613
70140POPC   C4B33662  27.195  -0.125  17.208  0.2077 -0.4394  0.0401
70141POPC   NC333663  24.647   3.813  16.571 -0.1483  0.0645 -0.3014
70141POPC   PO433664  24.799   3.455  16.610  0.0728 -0.0277 -0.3401
70141POPC   GL133665  24.504   3.298  16.490  0.2549 -0.1267  0.1828
70141POPC   GL233666  24.407   3.208  16.212  0.2431 -0.0947  0.0484
70141POPC   C1A33667  24.480   2.822  16.502 -0.0325 -0.1054  0.1284
70141POPC   D2A33668  24.520   2.340  16.607 -0.0563  0.0487  0.0170
70141POPC   C3A33669  24.136   2.018  16.503  0.1006  0.0437  0.1047
70141POPC   C4A33670  24.148   1.607  16.668 -0.0082 -0.1359 -0.0646
70141POPC   C1B33671  24.391   2.795  15.930 -0.0846 -0.0205 -0.1967
70141POPC   C2B33672  24.083   2.523  15.715  0.0883  0.0618  0.0836
70141POPC   C3B33673  23.750   2.358  15.555  0.0222  0.1108  0.0810
70141POPC   C4B33674  23.704   1.941  15.714  0.1382  0.0314 -0.0371
70142POPC   NC333675  28.088  14.619  20.317 -0.3885 -0.0748  0.2437
70142POPC   PO433676  28.342  14.851  20.113  0.0894  0.0044  0.1076
70142POPC   GL133677  28.668  14.811  19.801  0.0475 -0.0129 -0.0846
70142POPC   GL233678  28.494  15.108  19.730 -0.1955  0.0129  0.1834
70142POPC   C1A33679  28.937  15.028  19.475  0.2954  0.1158  0.2538
70142POPC   D2A33680  28.966  15.115  19.026  0.3055  0.4473  0.1073
70142POPC   C3A33681  28.799  15.301  18.604  0.0424 -0.1239  0.2806
70142POPC   C4A33682  28.850  15.462  18.155  0.1223  0.0844 -0.0456
70142POPC   C1B33683  28.464  14.862  19.358  0.1344  0.0595  0.2152
70142POPC   C2B33684  28.335  14.584  19.015  0.4675  0.0417 -0.1088
70142POPC   C3B33685  28.542  14.387  18.614  0.0811 -0.1263  0.0361
70142POPC   C4B33686  28.889  14.354  18.314 -0.1699  0.0110 -0.0433
70143POPC   NC333687  22.203   5.524  17.918  0.2153  0.3984  0.4847
70143POPC   PO433688  22.326   5.191  18.041 -0.1970 -0.1063  0.0851
70143POPC   GL133689  22.174   5.028  17.773  0.0677 -0.3405  0.0080
70143POPC   GL233690  22.312   4.918  17.623  0.0964  0.1183  0.0908
70143POPC   C1A33691  21.820   4.770  17.628  0.1620 -0.0393 -0.1375
70143POPC   D2A33692  21.396   4.788  17.496  0.0018 -0.1356  0.0461
70143POPC   C3A33693  20.936   4.656  17.434  0.0192  0.0261  0.0733
70143POPC   C4A33694  20.482   4.491  17.492  0.0836 -0.0689 -0.0507
70143POPC   C1B33695  22.077   4.961  17.231 -0.2118  0.3656 -0.1579
70143POPC   C2B33696  21.884   4.783  16.844 -0.0406 -0.2647  0.1896
70143POPC   C3B33697  21.768   4.548  16.480 -0.1108  0.1187 -0.1293
70143POPC   C4B33698  21.576   4.328  16.132 -0.1909 -0.1769  0.1729
70144POPC   NC333699  26.543   5.605  13.225  0.1997  0.1087 -0.0242
70144POPC   PO433700  26.862   5.473  13.466 -0.0629  0.1303  0.1013
70144POPC   GL133701  27.143   5.649  13.669  0.4236  0.0837 -0.1359
70144POPC   GL233702  27.426   5.538  13.796  0.2054  0.0746 -0.2373
70144POPC   C1A33703  27.130   6.090  13.831 -0.1465 -0.0717  0.1738
70144POPC   D2A33704  27.310   6.549  13.809  0.0383 -0.1902  0.0066
70144POPC   C3A33705  27.540   6.842  14.164 -0.1288  0.2114 -0.0149
70144POPC   C4A33706  27.605   6.813  14.577 -0.0503  0.0911  0.0585
70144POPC   C1B33707  27.611   5.944  13.747 -0.2286  0.1347  0.3035
70144POPC   C2B33708  27.793   6.346  13.785 -0.1436 -0.1697  0.0220
70144POPC   C3B33709  27.962   6.684  14.052  0.1055 -0.1006  0.1933
70144POPC   C4B33710  28.403   6.785  14.075 -0.1352 -0.1497 -0.0409
70145POPC   NC333711  32.527  12.011  20.485  0.1248  0.2925  0.1077
70145POPC   PO433712  32.193  11.814  20.576  0.0163  0.1525 -0.1656
70145POPC   GL133713  31.933  11.862  20.177  0.1828 -0.3157  0.1718
70145POPC   GL233714  31.758  11.963  19.932 -0.0145  0.2707 -0.1831
70145POPC   C1A33715  31.968  11.466  19.900 -0.2898 -0.0679  0.0271
70145POPC   D2A33716  32.324  11.254  19.643 -0.1937  0.3088 -0.5135
70145POPC   C3A33717  32.260  11.383  19.248  0.0488 -0.0553  0.0072
70145POPC   C4A33718  32.516  11.698  18.974 -0.0929 -0.0540  0.0065
70145POPC   C1B33719  31.954  12.286  19.705  0.0043 -0.0127  0.3178
70145POPC   C2B33720  32.002  12.504  19.358 -0.2241 -0.3597 -0.0352
70145POPC   C3B33721  32.089  12.486  18.924  0.0678  0.0832  0.0870
70145POPC   C4B33722  32.278  12.472  18.515  0.0017  0.3474 -0.0095
70146POPC   NC333723  30.861   8.399  20.349  0.1425  0.0488 -0.0395
70146POPC   PO433724  30.952   8.317  19.989  0.0068 -0.2058 -0.2051
70146POPC   GL133725  31.178   8.462  19.692  0.1466 -0.3198 -0.3517
70146POPC   GL233726  30.957   8.327  19.494 -0.0700  0.1994  0.0388
70146POPC   C1A33727  31.269   8.680  19.309 -0.0530  0.1465  0.2487
70146POPC   D2A33728  31.245   9.064  18.995 -0.1801  0.0543  0.1992
70146POPC   C3A33729  31.148   8.947  18.589 -0.1085  0.1675 -0.1521
70146POPC   C4A33730  31.290   8.952  18.187 -0.1197  0.4337 -0.2247
70146POPC   C1B33731  30.842   8.370  19.061  0.2044 -0.0829  0.0912
70146POPC   C2B33732  30.962   8.520  18.709 -0.0548 -0.2648 -0.0637
70146POPC   C3B33733  31.169   8.420  18.346 -0.1290  0.0457  0.3424
70146POPC   C4B33734  31.588   8.348  18.190 -0.2088  0.0195 -0.1072
70147POPC   NC333735  26.863   5.585  15.664 -0.1028  0.1226  0.0234
70147POPC   PO433736  26.952   5.958  15.750  0.1179 -0.1314  0.2909
70147POPC   GL133737  27.332   6.122  15.682 -0.3158 -0.0250 -0.2296
70147POPC   GL233738  27.346   6.432  15.771  0.0535  0.2096  0.1160
70147POPC   C1A33739  27.757   6.248  15.582  0.3369  0.2151 -0.0608
70147POPC   D2A33740  28.020   6.481  15.260  0.1043 -0.1675 -0.3576
70147POPC   C3A33741  27.897   6.864  15.047 -0.5068 -0.1283 -0.1240
70147POPC   C4A33742  27.630   7.152  15.249  0.1589  0.1141 -0.1075
70147POPC   C1B33743  27.609   6.806  15.650  0.1501  0.1802 -0.0014
70147POPC   C2B33744  28.040   6.968  15.581  0.0874  0.0574  0.2556
70147POPC   C3B33745  28.305   7.151  15.221  0.2160 -0.1409  0.2105
70147POPC   C4B33746  28.562   7.514  15.090  0.0341 -0.1904 -0.1084
70148POPC   NC333747  30.774  12.947  20.447 -0.2597  0.2266  0.0361
70148POPC   PO433748  31.024  13.220  20.532  0.3387  0.1921  0.0328
70148POPC   GL133749  30.957  13.234  20.103 -0.1714 -0.0504  0.1807
70148POPC   GL233750  31.211  13.395  20.142  0.1641 -0.2131  0.2364
70148POPC   C1A33751  30.889  13.014  19.696 -0.0980  0.0963 -0.0061
70148POPC   D2A33752  30.923  12.689  19.299 -0.0097 -0.0753 -0.2779
70148POPC   C3A33753  31.370  12.542  19.260 -0.3125 -0.1872  0.0016
70148POPC   C4A33754  31.631  12.357  18.930  0.2201 -0.0843  0.0026
70148POPC   C1B33755  31.021  13.541  19.781 -0.0755 -0.0114  0.2689
70148POPC   C2B33756  31.090  13.582  19.338 -0.2259  0.0752  0.0724
70148POPC   C3B33757  30.810  13.561  18.908 -0.3419  0.0356  0.0788
70148POPC   C4B33758  30.315  13.537  19.018 -0.2684 -0.0454 -0.0683
70149POPC   NC333759  23.106   4.110  16.931  0.1138  0.1114  0.1616
70149POPC   PO433760  23.347   4.423  16.885 -0.6784  0.0657  0.1549
70149POPC   GL133761  23.250   4.653  16.568 -0.0271 -0.1091 -0.3219
70149POPC   GL233762  23.396   4.829  16.433 -0.2418 -0.2441 -0.0317
70149POPC   C1A33763  22.963   4.552  16.253  0.1273 -0.1067 -0.1575
70149POPC   D2A33764  22.995   4.176  15.978 -0.1529  0.2985 -0.2608
70149POPC   C3A33765  22.663   3.850  15.968  0.0332 -0.1116 -0.3005
70149POPC   C4A33766  22.547   3.451  15.813 -0.0410  0.1173 -0.0629
70149POPC   C1B33767  23.215   5.154  16.179 -0.1551  0.3578  0.3884
70149POPC   C2B33768  22.994   5.490  15.940 -0.2568  0.0870 -0.0705
70149POPC   C3B33769  22.515   5.520  15.811  0.0130 -0.1196  0.1716
70149POPC   C4B33770  22.144   5.500  15.568  0.0868 -0.0979 -0.3064
70150POPC   NC333771  29.167  14.172  20.689 -0.0721  0.1160  0.1935
70150POPC   PO433772  29.120  13.845  20.489  0.0764  0.5301 -0.3556
70150POPC   GL133773  29.127  13.551  20.231  0.1143 -0.0257  0.0307
70150POPC   GL233774  29.436  13.520  20.180  0.0931  0.2049  0.1608
70150POPC   C1A33775  29.112  13.232  19.899  0.1709  0.1485  0.4254
70150POPC   D2A33776  29.333  13.022  19.499 -0.1873  0.3954  0.0346
70150POPC   C3A33777  29.495  12.992  19.073  0.3319  0.0105  0.1026
70150POPC   C4A33778  29.633  12.750  18.726  0.0664 -0.1168 -0.1629
70150POPC   C1B33779  29.609  13.381  19.795 -0.0892  0.0112 -0.1061
70150POPC   C2B33780  29.722  13.313  19.350  0.0711  0.3161 -0.1008
70150POPC   C3B33781  29.791  13.355  18.885  0.0794  0.2650 -0.4659
70150POPC   C4B33782  29.707  13.213  18.467  0.0531 -0.1422 -0.1680
70151POPC   NC333783  25.575   7.014  16.389 -0.1311  0.0935  0.2702
70151POPC   PO433784  25.518   6.691  16.152  0.0699  0.6177  0.1447
70151POPC   GL133785  25.243   7.044  16.055 -0.1131  0.1009  0.0851
70151POPC   GL233786  25.467   7.257  15.983  0.0808 -0.1170 -0.0148
70151POPC   C1A33787  25.004   7.328  16.285  0.2638  0.0811 -0.2774
70151POPC   D2A33788  24.583   7.484  16.222  0.3561  0.2246  0.0459
70151POPC   C3A33789  24.346   7.866  16.217  0.0371  0.3130 -0.1554
70151POPC   C4A33790  24.194   8.188  15.967 -0.2143  0.0629 -0.0925
70151POPC   C1B33791  25.085   7.371  15.719  0.2169 -0.1451  0.0358
70151POPC   C2B33792  24.794   7.445  15.356  0.1176 -0.0582  0.2213
70151POPC   C3B33793  24.820   7.690  14.978  0.0852  0.0061 -0.0223
70151POPC   C4B33794  24.602   7.961  14.662 -0.2784  0.2232  0.0229
70152POPC   NC333795  24.928  10.759  20.077  0.4549 -0.1541  0.0811
70152POPC   PO433796  25.091  11.150  20.217 -0.0297  0.1808  0.1065
70152POPC   GL133797  25.266  11.251  19.922 -0.1283 -0.0633 -0.2246
70152POPC   GL233798  25.006  11.161  19.729 -0.1339  0.0102  0.0446
70152POPC   C1A33799  25.520  11.152  19.636  0.3132  0.0356  0.0169
70152POPC   D2A33800  25.983  11.357  19.714 -0.2676  0.1287  0.0069
70152POPC   C3A33801  26.204  11.402  19.304  0.0795  0.1858 -0.2639
70152POPC   C4A33802  26.474  11.387  18.886  0.0562  0.1112 -0.0198
70152POPC   C1B33803  24.826  11.115  19.315 -0.0791  0.3263 -0.2937
70152POPC   C2B33804  24.927  10.954  18.852 -0.1698  0.0478 -0.1703
70152POPC   C3B33805  25.029  10.865  18.368 -0.3412 -0.2279  0.1046
70152POPC   C4B33806  25.258  10.780  17.977 -0.0468 -0.0234 -0.1490
70153POPC   NC333807  31.282   7.206  20.063  0.2769  0.0810  0.1081
70153POPC   PO433808  31.189   7.525  19.871  0.0923 -0.1231 -0.2880
70153POPC   GL133809  31.251   7.568  19.498  0.1467  0.3123  0.0348
70153POPC   GL233810  31.534   7.571  19.438  0.1545  0.0307 -0.3558
70153POPC   C1A33811  31.073   7.789  19.107  0.2629 -0.0017 -0.3524
70153POPC   D2A33812  31.096   8.016  18.723 -0.1466 -0.0812 -0.0330
70153POPC   C3A33813  31.479   8.034  18.527  0.1327  0.1543  0.0650
70153POPC   C4A33814  31.870   7.994  18.309 -0.2830 -0.0275  0.0453
70153POPC   C1B33815  31.535   7.452  19.008  0.0222  0.0618 -0.0557
70153POPC   C2B33816  31.579   7.505  18.542  0.0464 -0.0323  0.1511
70153POPC   C3B33817  31.366   7.602  18.104 -0.0848 -0.1736 -0.0840
70153POPC   C4B33818  31.428   7.892  17.800 -0.2376 -0.4771 -0.2168
70154POPC   NC333819  26.196  15.323  19.904 -0.3646  0.1155  0.1870
70154POPC   PO433820  26.395  15.060  20.156  0.1085  0.1373  0.1609
70154POPC   GL133821  26.553  14.981  19.828 -0.0769  0.2217  0.3309
70154POPC   GL233822  26.406  15.060  19.530  0.1478  0.0755 -0.0375
70154POPC   C1A33823  26.982  14.842  19.680 -0.0106  0.1410 -0.0046
70154POPC   D2A33824  27.295  14.560  19.587  0.0866 -0.0171 -0.2279
70154POPC   C3A33825  27.465  14.384  19.129  0.0843 -0.0832  0.1519
70154POPC   C4A33826  27.612  14.426  18.705 -0.1570  0.1492  0.2329
70154POPC   C1B33827  26.511  15.045  19.073  0.1597  0.2389 -0.1964
70154POPC   C2B33828  26.437  15.029  18.614  0.0936 -0.0725 -0.1353
70154POPC   C3B33829  26.643  15.100  18.205  0.0380  0.0710  0.0328
70154POPC   C4B33830  26.832  15.085  17.785  0.1201  0.1073 -0.1450
70155POPC   NC333831  19.994   1.913  19.988  0.3115 -0.2422 -0.1974
70155POPC   PO433832  19.902   2.238  19.750 -0.1319  0.0215  0.1492
70155POPC   GL133833  20.022   1.952  19.513  0.3336 -0.0063 -0.0456
70155POPC   GL233834  20.334   1.963  19.546  0.2164 -0.0206  0.1350
70155POPC   C1A33835  20.179   1.525  19.362  0.1225  0.1515  0.0104
70155POPC   D2A33836  20.220   1.062  19.226 -0.1918 -0.0082  0.0932
70155POPC   C3A33837  20.023   0.888  18.814 -0.0561 -0.0411  0.2032
70155POPC   C4A33838  19.827   1.051  18.464  0.0346  0.2777  0.1513
70155POPC   C1B33839  20.575   1.758  19.190  0.0633  0.0766 -0.0295
70155POPC   C2B33840  20.621   1.770  18.707 -0.0497 -0.0534  0.0670
70155POPC   C3B33841  20.419   1.631  18.308  0.4025  0.0189  0.1835
70155POPC   C4B33842  20.227   1.693  17.874 -0.0384  0.2493  0.1180
70156POPC   NC333843  27.379   5.998  15.141  0.1464  0.0644  0.1744
70156POPC   PO433844  26.964   6.107  15.253 -0.0126  0.0273 -0.0912
70156POPC   GL133845  26.932   6.497  15.202  0.2170  0.0447  0.1810
70156POPC   GL233846  26.560   6.449  15.196  0.0106 -0.3946 -0.3526
70156POPC   C1A33847  26.736   6.846  14.937  0.1791  0.0541  0.2226
70156POPC   D2A33848  26.601   7.136  14.576 -0.3153  0.2151 -0.1472
70156POPC   C3A33849  26.619   7.259  14.134  0.2310 -0.2082 -0.0526
70156POPC   C4A33850  26.606   7.189  13.658 -0.0780 -0.1076 -0.0068
70156POPC   C1B33851  26.411   6.850  15.364  0.2983 -0.3130 -0.1340
70156POPC   C2B33852  26.241   7.281  15.553 -0.2167 -0.1246 -0.0771
70156POPC   C3B33853  26.279   7.588  15.240  0.1288 -0.0756 -0.2642
70156POPC   C4B33854  25.882   7.821  15.156  0.0085  0.1358 -0.0437
70157POPC   NC333855  25.499   2.426  17.714  0.0305 -0.1926  0.0125
70157POPC   PO433856  25.334   2.078  17.739 -0.0308  0.0414  0.0245
70157POPC   GL133857  25.214   1.899  17.452 -0.0390 -0.0983  0.0971
70157POPC   GL233858  24.938   1.823  17.566 -0.1290 -0.1778  0.0180
70157POPC   C1A33859  25.116   1.748  17.045  0.1171  0.1239  0.1534
70157POPC   D2A33860  24.986   1.688  16.650  0.2170  0.1561 -0.1083
70157POPC   C3A33861  24.643   1.354  16.628  0.1516  0.3000 -0.0989
70157POPC   C4A33862  24.317   1.040  16.558  0.1296 -0.1351 -0.0675
70157POPC   C1B33863  24.631   1.640  17.296  0.2972 -0.0107 -0.1834
70157POPC   C2B33864  24.397   1.284  17.098 -0.0084 -0.1145  0.1282
70157POPC   C3B33865  24.124   0.892  17.074  0.2772 -0.1284  0.1054
70157POPC   C4B33866  23.811   0.767  16.717 -0.0886 -0.1887 -0.0444
70158POPC   NC333867  32.118   0.283  19.941 -0.2291 -0.1538  0.2606
70158POPC   PO433868  32.247   0.652  20.013  0.3091 -0.2828  0.2674
70158POPC   GL133869  32.078   0.589  19.577  0.0526  0.0244  0.1005
70158POPC   GL233870  32.320   0.649  19.450 -0.1907 -0.2511  0.0051
70158POPC   C1A33871  31.946   0.444  19.168 -0.1539  0.0981  0.2369
70158POPC   D2A33872  31.990   0.657  18.758  0.2605 -0.0768  0.2540
70158POPC   C3A33873  31.958   0.452  18.385  0.4198 -0.3784 -0.1092
70158POPC   C4A33874  31.732   0.105  18.247 -0.1155  0.3717  0.1662
70158POPC   C1B33875  32.410   0.405  19.037 -0.0789  0.0307 -0.0519
70158POPC   C2B33876  32.205   0.167  18.675 -0.1468 -0.0066  0.1439
70158POPC   C3B33877  31.968  -0.235  18.508  0.0618  0.1505  0.1058
70158POPC   C4B33878  31.873  -0.655  18.453  0.2970  0.0945  0.2371
70159POPC   NC333879  29.198   9.885  19.635  0.0931 -0.1294 -0.1778
70159POPC   PO433880  28.999   9.980  19.972  0.1283 -0.1845  0.1178
70159POPC   GL133881  28.669  10.041  19.715 -0.0370  0.0400  0.3421
70159POPC   GL233882  28.821  10.299  19.550  0.2105  0.0057  0.2892
70159POPC   C1A33883  28.662   9.926  19.242  0.1784  0.3365 -0.2847
70159POPC   D2A33884  28.970  10.007  18.863  0.2474 -0.2540  0.1138
70159POPC   C3A33885  29.190   9.917  18.503  0.2245  0.0449  0.0170
70159POPC   C4A33886  29.579   9.793  18.324  0.0436 -0.2568  0.0204
70159POPC   C1B33887  28.935  10.419  19.132 -0.0023 -0.1017  0.0016
70159POPC   C2B33888  28.872  10.472  18.645 -0.1867 -0.1068 -0.0941
70159POPC   C3B33889  28.582  10.546  18.295  0.1205  0.2092  0.1381
70159POPC   C4B33890  28.211  10.500  18.064 -0.2786  0.3795 -0.1670
70160POPC   NC333891  23.474  32.531  19.578 -0.0388  0.1142  0.0937
70160POPC   PO433892  23.612  32.328  19.880  0.1385  0.1096  0.1757
70160POPC   GL133893  23.649  32.108  19.572  0.3464  0.0685 -0.0825
70160POPC   GL233894  23.749  31.861  19.617  0.0140 -0.1509 -0.1576
70160POPC   C1A33895  23.453  32.210  19.211 -0.0791  0.2383  0.0693
70160POPC   D2A33896  23.096  32.390  18.999  0.3760 -0.2992 -0.2730
70160POPC   C3A33897  22.732  32.192  18.787  0.1098  0.0924 -0.1063
70160POPC   C4A33898  22.354  32.042  18.547  0.2139  0.1325 -0.1564
70160POPC   C1B33899  23.525  31.677  19.244  0.0329  0.0915  0.1099
70160POPC   C2B33900  23.488  31.552  18.799  0.0670 -0.1166  0.1662
70160POPC   C3B33901  23.451  31.518  18.349  0.2764 -0.0373  0.1207
70160POPC   C4B33902  23.077  31.566  18.053 -0.0672 -0.1206 -0.1236
70161POPC   NC333903  26.049  14.231  19.981  0.1125  0.0195  0.0665
70161POPC   PO433904  26.328  14.505  20.106 -0.3194 -0.0430 -0.1388
70161POPC   GL133905  26.510  14.552  19.761 -0.0312  0.0070 -0.2770
70161POPC   GL233906  26.265  14.420  19.586 -0.2707  0.0078  0.0358
70161POPC   C1A33907  26.750  14.478  19.415 -0.1152 -0.3427  0.0311
70161POPC   D2A33908  26.944  14.577  19.018  0.1814 -0.0560  0.2798
70161POPC   C3A33909  27.054  14.331  18.662  0.0616  0.0352  0.2674
70161POPC   C4A33910  26.972  14.227  18.221 -0.3497 -0.1885 -0.2777
70161POPC   C1B33911  26.130  13.987  19.443  0.0959  0.2456  0.1354
70161POPC   C2B33912  25.899  13.723  19.151 -0.1595  0.1127  0.1247
70161POPC   C3B33913  25.683  13.846  18.780  0.2369 -0.0064  0.0797
70161POPC   C4B33914  25.827  14.112  18.413 -0.1991 -0.0753 -0.0862
70162POPC   NC333915  18.644  32.726  20.366 -0.2743  0.2048  0.2058
70162POPC   PO433916  18.562  33.073  20.172  0.0792 -0.2684 -0.0667
70162POPC   GL133917  18.407  33.237  19.836 -0.1562 -0.2520  0.2046
70162POPC   GL233918  18.610  33.181  19.655 -0.3344  0.0352 -0.1187
70162POPC   C1A33919  18.182  33.253  19.437 -0.2336 -0.3164 -0.3204
70162POPC   D2A33920  17.894  33.310  19.128 -0.1012 -0.0309  0.0408
70162POPC   C3A33921  18.118  33.538  18.832 -0.1909  0.0981 -0.0183
70162POPC   C4A33922  18.533  33.616  18.682 -0.0180 -0.1323  0.1493
70162POPC   C1B33923  18.525  32.918  19.273  0.1170  0.1066 -0.1499
70162POPC   C2B33924  18.353  33.067  18.853 -0.3580 -0.1308 -0.0264
70162POPC   C3B33925  18.330  33.257  18.465  0.1468 -0.2938  0.2396
70162POPC   C4B33926  18.448  33.472  18.054  0.1506 -0.0415 -0.2469
70163POPC   NC333927  14.342   8.596  20.487  0.2879 -0.0269  0.0275
70163POPC   PO433928  14.713   8.599  20.401  0.1229 -0.2576 -0.2039
70163POPC   GL133929  14.627   8.615  20.041  0.1237 -0.2586 -0.2183
70163POPC   GL233930  14.754   8.882  19.909  0.1033 -0.1038  0.1561
70163POPC   C1A33931  14.329   8.730  19.686  0.0289  0.2499  0.0649
70163POPC   D2A33932  14.136   9.029  19.426 -0.0341 -0.1577 -0.0303
70163POPC   C3A33933  14.332   8.935  19.007  0.1703  0.1198 -0.1558
70163POPC   C4A33934  14.419   9.019  18.553 -0.1525 -0.0458 -0.1120
70163POPC   C1B33935  15.057   9.199  19.764 -0.0044 -0.0945 -0.1368
70163POPC   C2B33936  15.393   9.413  19.485 -0.0042  0.0462  0.0639
70163POPC   C3B33937  15.746   9.141  19.360 -0.0853  0.0853 -0.1680
70163POPC   C4B33938  15.603   8.688  19.169  0.0565 -0.1540 -0.0114
70164POPC   NC333939  16.509   9.972  20.450 -0.0796  0.2963 -0.3038
70164POPC   PO433940  16.756   9.735  20.211  0.1279 -0.0975 -0.4323
70164POPC   GL133941  16.665   9.907  19.834 -0.3130 -0.0048 -0.3065
70164POPC   GL233942  16.359   9.798  19.763  0.3833 -0.0405 -0.4394
70164POPC   C1A33943  16.876  10.054  19.429 -0.1669 -0.0514  0.0741
70164POPC   D2A33944  16.655  10.150  18.972  0.1972  0.1034  0.1267
70164POPC   C3A33945  16.504  10.528  18.682  0.0025  0.1850 -0.3206
70164POPC   C4A33946  16.145  10.656  18.448  0.1171 -0.0522  0.1114
70164POPC   C1B33947  16.353  10.068  19.401  0.0266  0.0379 -0.0055
70164POPC   C2B33948  16.219  10.402  19.093 -0.2851  0.1208 -0.1640
70164POPC   C3B33949  15.857  10.529  18.822 -0.0359  0.2943 -0.0866
70164POPC   C4B33950  15.729  10.418  18.339  0.0004  0.2108 -0.1877
70165POPC   NC333951  19.481  11.018  20.828 -0.0270 -0.1064  0.3327
70165POPC   PO433952  19.680  11.333  20.794  0.2455  0.2427  0.0797
70165POPC   GL133953  19.553  11.435  20.431  0.3222 -0.0958  0.1466
70165POPC   GL233954  19.758  11.375  20.232  0.1260  0.1198 -0.3308
70165POPC   C1A33955  19.692  11.802  20.081 -0.0193 -0.0367  0.2216
70165POPC   D2A33956  19.932  11.755  19.678  0.2268 -0.0762 -0.0248
70165POPC   C3A33957  19.846  11.960  19.264  0.0301 -0.2027 -0.0279
70165POPC   C4A33958  19.647  11.728  18.956 -0.1689  0.1168  0.2294
70165POPC   C1B33959  20.116  11.370  19.947  0.0503 -0.2227  0.0493
70165POPC   C2B33960  20.145  11.122  19.546  0.0348  0.1274  0.0287
70165POPC   C3B33961  19.944  10.953  19.223  0.1411 -0.0535  0.1278
70165POPC   C4B33962  20.071  10.945  18.787  0.0703  0.0723  0.0699
70166POPC   NC333963  20.577  11.809  20.753  0.3067  0.1868  0.2551
70166POPC   PO433964  20.319  12.141  20.753 -0.1549 -0.1179 -0.1541
70166POPC   GL133965  20.338  12.167  20.320  0.0634  0.1756  0.1452
70166POPC   GL233966  20.130  11.899  20.312 -0.0337  0.1384 -0.1874
70166POPC   C1A33967  20.581  12.321  19.982 -0.3600 -0.1379 -0.0977
70166POPC   D2A33968  20.895  12.342  19.611  0.3175 -0.1853  0.3217
70166POPC   C3A33969  21.201  12.620  19.397 -0.0783 -0.1767  0.0112
70166POPC   C4A33970  21.436  12.842  19.079 -0.0696  0.3654  0.0503
70166POPC   C1B33971  20.401  11.881  19.925 -0.1371 -0.0968  0.0015
70166POPC   C2B33972  20.324  12.149  19.533  0.0495 -0.0904  0.1549
70166POPC   C3B33973  20.232  12.306  19.151  0.1670 -0.0818  0.1952
70166POPC   C4B33974  20.427  12.263  18.716  0.1309 -0.1883 -0.1650
70167POPC   NC333975  31.718   2.237  19.782  0.2467  0.1670  0.2282
70167POPC   PO433976  32.081   2.111  19.794 -0.1103 -0.0166 -0.1802
70167POPC   GL133977  31.930   1.972  19.484  0.1560  0.0987 -0.1275
70167POPC   GL233978  32.172   1.861  19.340 -0.2121  0.2136  0.2254
70167POPC   C1A33979  31.623   1.707  19.312  0.1744 -0.0787  0.3809
70167POPC   D2A33980  31.728   1.349  19.060  0.0526  0.0200 -0.2244
70167POPC   C3A33981  31.911   1.136  18.724  0.0768 -0.2425 -0.3159
70167POPC   C4A33982  32.264   1.036  18.458  0.1509 -0.0905 -0.4358
70167POPC   C1B33983  32.078   1.669  18.935 -0.1148 -0.0747 -0.0830
70167POPC   C2B33984  32.065   1.666  18.491 -0.0661 -0.1386 -0.0894
70167POPC   C3B33985  32.171   2.059  18.217 -0.1463  0.0617 -0.1077
70167POPC   C4B33986  32.431   2.112  17.855  0.5034 -0.0361 -0.0734
70168POPC   NC333987  16.770   5.678  19.348  0.1095 -0.3067  0.0456
70168POPC   PO433988  16.406   5.690  19.458  0.4648  0.0116  0.1721
70168POPC   GL133989  16.338   5.618  19.119  0.1278  0.1718 -0.2860
70168POPC   GL233990  16.415   5.790  18.955 -0.2639 -0.0631 -0.0891
70168POPC   C1A33991  16.203   5.397  18.736 -0.0942  0.0931  0.0449
70168POPC   D2A33992  16.177   5.441  18.271  0.0217  0.4165  0.1277
70168POPC   C3A33993  16.491   5.369  17.912  0.1817 -0.1388 -0.1458
70168POPC   C4A33994  16.777   5.580  17.606 -0.1161  0.2002 -0.0400
70168POPC   C1B33995  16.266   5.947  18.572 -0.0866 -0.0037  0.5821
70168POPC   C2B33996  16.365   6.139  18.139  0.0637 -0.0405 -0.0037
70168POPC   C3B33997  16.583   6.144  17.704  0.3920 -0.0418  0.4311
70168POPC   C4B33998  16.586   6.318  17.280 -0.1284  0.1160 -0.0397
70169POPC   NC333999  25.718  15.855  19.380 -0.2163  0.1541  0.0088
70169POPC   PO434000  25.384  15.932  19.599  0.0932 -0.0675  0.1126
70169POPC   GL134001  25.177  15.637  19.530 -0.2785  0.2295 -0.0304
70169POPC   GL234002  25.250  15.379  19.478 -0.1000  0.2866 -0.2776
70169POPC   C1A34003  24.842  15.553  19.234  0.0211 -0.1142 -0.0222
70169POPC   D2A34004  24.520  15.313  19.077 -0.1887 -0.0224 -0.0530
70169POPC   C3A34005  24.634  14.852  19.030  0.0758 -0.2197  0.1728
70169POPC   C4A34006  24.557  14.669  18.609  0.1425 -0.2731 -0.1087
70169POPC   C1B34007  25.483  15.333  19.138  0.1324 -0.0264  0.1410
70169POPC   C2B34008  25.470  15.269  18.705 -0.1298 -0.2396  0.0282
70169POPC   C3B34009  25.481  15.205  18.208 -0.1707  0.1978 -0.0109
70169POPC   C4B34010  25.683  15.340  17.859  0.1062 -0.1888 -0.3080
70170POPC   NC334011  29.635   2.825  19.306  0.0776  0.0557  0.0767
70170POPC   PO434012  29.753   2.460  19.152 -0.1037  0.2905 -0.0552
70170POPC   GL134013  29.808   2.002  19.175 -0.2629  0.0680 -0.1264
70170POPC   GL234014  29.554   1.837  19.095 -0.0163 -0.2868 -0.3231
70170POPC   C1A34015  30.120   1.690  19.158 -0.0762  0.0906  0.1111
70170POPC   D2A34016  30.163   1.263  19.339  0.1168  0.1168  0.1367
70170POPC   C3A34017  30.141   0.897  19.052  0.1054  0.1997  0.1630
70170POPC   C4A34018  30.092   0.420  18.902  0.1717 -0.0346 -0.1111
70170POPC   C1B34019  29.866   1.733  18.746  0.0329  0.1827 -0.1849
70170POPC   C2B34020  29.802   1.443  18.420 -0.1051 -0.0322  0.5438
70170POPC   C3B34021  29.999   1.231  18.102  0.1141  0.0548  0.3140
70170POPC   C4B34022  30.094   0.994  17.746  0.0318 -0.2600  0.1664
70171POPC   NC334023  22.642  12.508  20.740 -0.1716  0.1484 -0.3462
70171POPC   PO434024  22.509  12.508  20.372  0.0044  0.0490  0.0579
70171POPC   GL134025  22.840  12.608  20.013 -0.1296 -0.0852 -0.1509
70171POPC   GL234026  22.625  12.661  19.866  0.0589 -0.0900  0.5158
70171POPC   C1A34027  22.958  12.341  19.641  0.0429  0.0068  0.0921
70171POPC   D2A34028  23.129  12.020  19.357  0.2444 -0.0330 -0.0386
70171POPC   C3A34029  23.367  12.072  19.016 -0.1890 -0.0739  0.0554
70171POPC   C4A34030  23.682  12.028  18.635  0.1105  0.0122  0.0716
70171POPC   C1B34031  22.806  12.881  19.468 -0.2878  0.1702 -0.0083
70171POPC   C2B34032  22.895  12.925  18.987 -0.0543 -0.0914  0.1045
70171POPC   C3B34033  23.219  12.894  18.613  0.0975 -0.2118  0.1927
70171POPC   C4B34034  23.493  12.886  18.270  0.1697  0.1378  0.0925
70172POPC   NC334035  26.999  10.034  20.333 -0.2854 -0.0558  0.1040
70172POPC   PO434036  26.890   9.840  19.979 -0.1935  0.3690 -0.2023
70172POPC   GL134037  26.970   9.748  19.616 -0.1201 -0.2544 -0.0315
70172POPC   GL234038  27.186   9.892  19.524  0.1766 -0.1419 -0.2290
70172POPC   C1A34039  26.805   9.548  19.240 -0.1608 -0.3217 -0.1028
70172POPC   D2A34040  26.513   9.379  18.938  0.0040 -0.0886  0.0162
70172POPC   C3A34041  26.493   9.633  18.563  0.4253 -0.2423 -0.0040
70172POPC   C4A34042  26.609  10.052  18.710 -0.0876  0.1722 -0.1305
70172POPC   C1B34043  27.038   9.985  19.068  0.4025  0.2423  0.0591
70172POPC   C2B34044  27.045   9.849  18.621  0.2794  0.3252  0.1502
70172POPC   C3B34045  26.870   9.836  18.151 -0.0795  0.2223 -0.0291
70172POPC   C4B34046  26.693  10.206  17.934  0.1375  0.2443  0.0042
70173POPC   NC334047  30.821   6.128  19.082  0.1406  0.0137 -0.1718
70173POPC   PO434048  31.038   6.247  19.387 -0.1221  0.0560  0.0486
70173POPC   GL134049  31.201   6.383  19.041  0.1897 -0.1392 -0.1720
70173POPC   GL234050  31.342   6.586  18.985 -0.0256 -0.0445 -0.4754
70173POPC   C1A34051  30.956   6.427  18.630 -0.1543  0.2804 -0.2139
70173POPC   D2A34052  30.838   6.364  18.212  0.1461 -0.1343  0.0410
70173POPC   C3A34053  30.964   6.750  17.953  0.0334 -0.1251  0.0309
70173POPC   C4A34054  31.180   6.923  17.622 -0.0015 -0.1850 -0.0154
70173POPC   C1B34055  31.430   6.513  18.558 -0.0843 -0.0535 -0.2816
70173POPC   C2B34056  31.405   6.603  18.126  0.3866 -0.0174 -0.0106
70173POPC   C3B34057  31.583   6.595  17.727  0.0350 -0.1139  0.1233
70173POPC   C4B34058  31.430   6.493  17.313  0.0927 -0.0873 -0.4265
70174POPC   NC334059  24.357   0.451  19.421  0.1443 -0.1951 -0.2350
70174POPC   PO434060  24.086   0.167  19.390 -0.1168 -0.0770 -0.0664
70174POPC   GL134061  24.062  -0.145  19.168  0.1338  0.2393 -0.0706
70174POPC   GL234062  23.857  -0.384  19.276  0.1149  0.0275  0.0944
70174POPC   C1A34063  24.145  -0.431  18.802  0.3005  0.3204  0.0101
70174POPC   D2A34064  23.923  -0.463  18.370  0.1691  0.2549  0.3241
70174POPC   C3A34065  23.535  -0.592  18.161 -0.1483 -0.0853 -0.0125
70174POPC   C4A34066  23.168  -0.765  17.959  0.4281  0.2209  0.1879
70174POPC   C1B34067  23.638  -0.231  18.875  0.0406  0.0755 -0.1556
70174POPC   C2B34068  23.380  -0.298  18.541  0.3113 -0.1963  0.1465
70174POPC   C3B34069  23.087  -0.356  18.188 -0.2010 -0.1632  0.1532
70174POPC   C4B34070  22.758  -0.003  18.085 -0.1477  0.2444 -0.1878
70175POPC   NC334071  20.110  15.512  20.607  0.1069 -0.1189  0.1803
70175POPC   PO434072  19.718  15.631  20.533 -0.1040 -0.0777 -0.0603
70175POPC   GL134073  19.634  15.855  20.211  0.2465  0.3342 -0.1509
70175POPC   GL234074  19.833  15.807  20.056  0.0347  0.2192 -0.2467
70175POPC   C1A34075  19.411  15.695  19.840 -0.1046  0.2923 -0.2085
70175POPC   D2A34076  19.429  15.581  19.411 -0.2368  0.1531 -0.1021
70175POPC   C3A34077  19.549  15.870  19.127  0.4125  0.0240  0.3300
70175POPC   C4A34078  19.391  16.033  18.747 -0.0986  0.0073 -0.1459
70175POPC   C1B34079  19.853  15.786  19.552  0.1085 -0.0008 -0.1488
70175POPC   C2B34080  19.971  15.580  19.145  0.0795 -0.0031  0.5484
70175POPC   C3B34081  19.840  15.726  18.706 -0.3129 -0.0684  0.1978
70175POPC   C4B34082  19.835  15.865  18.295  0.1949 -0.2403 -0.0194
70176POPC   NC334083  23.162   9.547  20.202 -0.2402  0.0271 -0.2574
70176POPC   PO434084  23.202   9.798  19.901 -0.1256 -0.1154 -0.1876
70176POPC   GL134085  22.975   9.987  19.635  0.1089 -0.1035 -0.1078
70176POPC   GL234086  22.891  10.285  19.744 -0.1736 -0.1277  0.1044
70176POPC   C1A34087  22.862   9.891  19.209 -0.3216 -0.1998 -0.3064
70176POPC   D2A34088  22.959   9.811  18.724  0.1508  0.0326  0.0719
70176POPC   C3A34089  22.875   9.775  18.257 -0.0025  0.0097 -0.4076
70176POPC   C4A34090  23.002  10.098  17.978 -0.1982  0.0587  0.0548
70176POPC   C1B34091  22.808  10.405  19.316 -0.2470  0.1889  0.0685
70176POPC   C2B34092  22.637  10.679  18.957  0.1802  0.1301  0.0649
70176POPC   C3B34093  22.781  10.730  18.525  0.1501 -0.3476  0.0213
70176POPC   C4B34094  23.106  10.718  18.193  0.0416 -0.1263 -0.0112
70177POPC   NC334095  24.952   7.104  18.022 -0.2611  0.1931 -0.1591
70177POPC   PO434096  25.038   7.441  18.159  0.0029 -0.2467  0.0517
70177POPC   GL134097  25.065   7.704  17.979  0.0376 -0.3866  0.1560
70177POPC   GL234098  25.247   7.924  18.030  0.0319 -0.0661 -0.0687
70177POPC   C1A34099  24.970   7.773  17.492 -0.0735 -0.0840 -0.0163
70177POPC   D2A34100  24.884   8.076  17.114  0.1244 -0.0479 -0.1308
70177POPC   C3A34101  24.600   8.235  16.761  0.0812  0.1167 -0.2040
70177POPC   C4A34102  24.432   8.670  16.707  0.4925  0.1289  0.1154
70177POPC   C1B34103  25.123   8.273  17.734  0.1134 -0.0832  0.2746
70177POPC   C2B34104  25.114   8.560  17.410  0.0986  0.2042  0.3065
70177POPC   C3B34105  25.108   8.826  17.007  0.0136  0.1734  0.0434
70177POPC   C4B34106  25.406   8.869  16.664  0.2161  0.0229 -0.2129
70178POPC   NC334107  22.747   6.036  17.872  0.3139 -0.1424  0.2013
70178POPC   PO434108  22.864   6.312  18.118 -0.3969 -0.5085 -0.2860
70178POPC   GL134109  22.727   6.480  17.817 -0.2687 -0.0258  0.0468
70178POPC   GL234110  22.465   6.459  17.894  0.0658 -0.2090 -0.1543
70178POPC   C1A34111  22.637   6.653  17.362 -0.4557  0.3573  0.0884
70178POPC   D2A34112  22.377   6.684  16.965 -0.1517  0.0091  0.0147
70178POPC   C3A34113  21.972   6.973  16.813  0.2597  0.1141  0.2603
70178POPC   C4A34114  21.609   7.210  16.813 -0.0036  0.1220  0.5998
70178POPC   C1B34115  22.052   6.663  17.902  0.0280 -0.2526 -0.1166
70178POPC   C2B34116  21.738   6.974  17.958 -0.3278  0.1939 -0.0865
70178POPC   C3B34117  21.284   6.969  17.907  0.2898 -0.3079 -0.0457
70178POPC   C4B34118  21.094   6.524  17.895 -0.1687 -0.0608  0.1255
70179POPC   NC334119  23.637  12.537  20.019  0.0552 -0.1579 -0.0488
70179POPC   PO434120  23.982  12.660  20.123  0.0545  0.4166 -0.2457
70179POPC   GL134121  24.009  12.668  19.765 -0.1357 -0.0198 -0.2041
70179POPC   GL234122  24.051  12.407  19.624  0.1037  0.2227  0.3235
70179POPC   C1A34123  24.324  12.942  19.531  0.1074  0.3275 -0.1166
70179POPC   D2A34124  24.674  12.861  19.258 -0.1157  0.1285 -0.1018
70179POPC   C3A34125  24.757  12.619  18.846  0.0280  0.1732  0.1746
70179POPC   C4A34126  24.629  12.364  18.462 -0.3763  0.3336  0.0706
70179POPC   C1B34127  23.874  12.612  19.225 -0.1318  0.0627 -0.2874
70179POPC   C2B34128  23.770  12.515  18.808  0.3354  0.0249 -0.0836
70179POPC   C3B34129  23.456  12.482  18.514  0.1252 -0.0271 -0.3638
70179POPC   C4B34130  23.167  12.126  18.426  0.0511  0.1694 -0.0876
70180POPC   NC334131  25.551   3.311  16.375  0.0275  0.0939 -0.0217
70180POPC   PO434132  25.221   3.170  16.460  0.0158  0.2194 -0.2188
70180POPC   GL134133  25.474   2.794  16.397 -0.1882  0.0830  0.2428
70180POPC   GL234134  25.412   2.882  16.101  0.3086 -0.0612  0.0383
70180POPC   C1A34135  25.803   2.490  16.244 -0.0549  0.1577  0.1055
70180POPC   D2A34136  26.007   2.188  15.983 -0.0159 -0.1011  0.0827
70180POPC   C3A34137  26.406   1.977  15.760  0.3599  0.1223  0.2155
70180POPC   C4A34138  26.819   1.971  15.606 -0.0443 -0.0161  0.0633
70180POPC   C1B34139  25.320   2.408  15.958  0.2488  0.2581  0.0839
70180POPC   C2B34140  24.918   2.183  15.830  0.0430 -0.0243  0.1935
70180POPC   C3B34141  24.507   2.250  15.596 -0.0743  0.0466  0.0129
70180POPC   C4B34142  24.138   1.966  15.421 -0.1494 -0.1481 -0.1391
70181POPC   NC334143  29.525   6.585  18.794 -0.1554  0.0870 -0.1510
70181POPC   PO434144  29.276   6.273  18.820 -0.0120 -0.0746 -0.0082
70181POPC   GL134145  29.257   6.271  18.446 -0.0121 -0.1664 -0.1598
70181POPC   GL234146  29.354   6.575  18.326 -0.0997 -0.3246  0.0462
70181POPC   C1A34147  29.274   6.267  17.971  0.0802  0.2109  0.0826
70181POPC   D2A34148  29.597   6.290  17.675  0.0175  0.0392  0.0256
70181POPC   C3A34149  29.944   6.016  17.408  0.1306  0.0436 -0.1154
70181POPC   C4A34150  30.326   5.741  17.359 -0.3533  0.0207  0.2258
70181POPC   C1B34151  29.723   6.639  18.000  0.1216 -0.1164 -0.0005
70181POPC   C2B34152  29.970   6.544  17.589  0.0629  0.1445 -0.1411
70181POPC   C3B34153  29.982   6.568  17.102  0.0757 -0.2862 -0.0249
70181POPC   C4B34154  30.050   6.703  16.669 -0.1324  0.0511 -0.1682
70182POPC   NC334155  23.586   6.739  17.180  0.1195  0.0580 -0.1663
70182POPC   PO434156  23.881   6.499  17.084 -0.0360  0.0682 -0.0433
70182POPC   GL134157  23.763   6.476  16.670 -0.2512  0.3758 -0.0063
70182POPC   GL234158  23.703   6.735  16.649  0.1041  0.0528  0.0574
70182POPC   C1A34159  23.390   6.361  16.488  0.0845  0.0512 -0.1687
70182POPC   D2A34160  22.922   6.418  16.484  0.1306  0.1215 -0.2049
70182POPC   C3A34161  22.726   6.348  16.907  0.2508  0.0143  0.1570
70182POPC   C4A34162  22.658   6.160  17.359 -0.0436  0.1347  0.1016
70182POPC   C1B34163  23.645   7.211  16.683 -0.4454 -0.3978  0.1596
70182POPC   C2B34164  23.379   7.568  16.580  0.0001  0.1187 -0.0102
70182POPC   C3B34165  23.303   7.999  16.708  0.0932  0.0215 -0.0307
70182POPC   C4B34166  23.279   8.299  17.053  0.1772 -0.1089 -0.1268
70183POPC   NC334167  30.218   9.764  20.481 -0.3395 -0.2303 -0.1882
70183POPC   PO434168  30.370   9.436  20.321 -0.1687  0.4002  0.0239
70183POPC   GL134169  30.398   9.606  19.979  0.1048  0.0573  0.2227
70183POPC   GL234170  30.557   9.850  19.828 -0.0182  0.2554  0.2949
70183POPC   C1A34171  30.747   9.454  19.650  0.0133  0.1335 -0.1033
70183POPC   D2A34172  31.087   9.506  19.353  0.0124  0.2834 -0.0065
70183POPC   C3A34173  31.251   9.550  18.908  0.0758 -0.1355  0.4041
70183POPC   C4A34174  31.317   9.393  18.505 -0.1470  0.0573 -0.0100
70183POPC   C1B34175  30.693   9.952  19.384  0.0424 -0.1488 -0.1230
70183POPC   C2B34176  30.905  10.086  18.945 -0.0422 -0.0801 -0.0672
70183POPC   C3B34177  31.100   9.901  18.576 -0.0968  0.1216  0.1232
70183POPC   C4B34178  31.401  10.184  18.320  0.3197 -0.1691 -0.2315
70184POPC   NC334179  24.507   6.968  17.571 -0.0008  0.1778  0.1106
70184POPC   PO434180  24.900   7.043  17.478 -0.1128  0.1267 -0.1463
70184POPC   GL134181  24.890   7.361  17.229 -0.1515  0.1110  0.1656
70184POPC   GL234182  24.558   7.426  17.195  0.0899  0.3513  0.1886
70184POPC   C1A34183  25.156   7.683  16.991  0.2349  0.1811  0.0697
70184POPC   D2A34184  25.552   7.878  16.737  0.0119 -0.1368  0.2141
70184POPC   C3A34185  25.563   8.221  16.381  0.0371 -0.1680 -0.1563
70184POPC   C4A34186  25.432   8.638  16.202  0.1289  0.0472  0.2358
70184POPC   C1B34187  24.387   7.810  17.012  0.2175  0.0029 -0.0862
70184POPC   C2B34188  24.198   8.256  17.085 -0.3582 -0.1334 -0.1192
70184POPC   C3B34189  24.125   8.712  17.159  0.0015  0.0847  0.0281
70184POPC   C4B34190  24.301   9.186  17.245  0.2424 -0.3291 -0.1136
70185POPC   NC334191  27.411  14.258  20.094 -0.1140 -0.0629 -0.1518
70185POPC   PO434192  27.803  14.215  20.222 -0.0209  0.1572 -0.0807
70185POPC   GL134193  27.770  13.968  19.898 -0.2423 -0.0077 -0.3269
70185POPC   GL234194  27.907  13.698  19.833 -0.1337  0.2817  0.1201
70185POPC   C1A34195  27.437  13.660  19.776  0.2221 -0.0741  0.1610
70185POPC   D2A34196  27.272  13.451  19.385  0.1905  0.1871  0.5949
70185POPC   C3A34197  27.607  13.345  19.103  0.1461 -0.1204 -0.2206
70185POPC   C4A34198  27.719  13.365  18.628 -0.2561  0.0824  0.0566
70185POPC   C1B34199  27.927  13.583  19.360  0.0041 -0.1623 -0.2363
70185POPC   C2B34200  28.061  13.619  18.911 -0.1084  0.3859 -0.2003
70185POPC   C3B34201  28.339  13.331  18.660  0.1255 -0.0539 -0.5551
70185POPC   C4B34202  28.541  12.915  18.602 -0.1876  0.0228 -0.1305
70186POPC   NC334203  31.184  11.073  20.400 -0.0795 -0.0342 -0.1012
70186POPC   PO434204  31.502  11.148  20.222 -0.3023  0.0172 -0.2016
70186POPC   GL134205  31.613  11.012  19.920 -0.1121 -0.1691 -0.2728
70186POPC   GL234206  31.896  10.973  19.995 -0.2634 -0.0911 -0.1565
70186POPC   C1A34207  31.262  11.182  19.592  0.0001 -0.0915 -0.0094
70186POPC   D2A34208  31.167  11.592  19.393 -0.0904  0.0568 -0.1219
70186POPC   C3A34209  30.958  11.796  19.079 -0.2375  0.1967  0.1037
70186POPC   C4A34210  30.633  11.859  18.723 -0.0824 -0.2444  0.1621
70186POPC   C1B34211  31.778  11.108  19.547 -0.1295 -0.1345 -0.0642
70186POPC   C2B34212  31.793  11.181  19.115 -0.2247  0.1386  0.0079
70186POPC   C3B34213  31.840  11.594  18.831 -0.1472  0.4109 -0.1978
70186POPC   C4B34214  32.173  11.922  18.683 -0.2229  0.4283 -0.2015
70187POPC   NC334215  18.150  13.915  20.529 -0.1469  0.0481  0.1195
70187POPC   PO434216  18.488  13.859  20.718  0.0958 -0.1442  0.0913
70187POPC   GL134217  18.552  13.798  20.331 -0.0606  0.2227 -0.3631
70187POPC   GL234218  18.461  13.919  20.049  0.0446 -0.0832 -0.0605
70187POPC   C1A34219  18.913  13.718  20.059 -0.1504  0.0200 -0.0689
70187POPC   D2A34220  19.369  13.641  19.796 -0.3052 -0.2530  0.1206
70187POPC   C3A34221  19.485  13.189  19.651 -0.0771 -0.3203 -0.1162
70187POPC   C4A34222  19.584  12.841  19.366 -0.2808  0.0175 -0.0502
70187POPC   C1B34223  18.267  13.862  19.598 -0.2487 -0.3988 -0.0604
70187POPC   C2B34224  18.189  13.888  19.129 -0.1918 -0.3602  0.3682
70187POPC   C3B34225  18.164  13.908  18.657 -0.0196 -0.0809  0.0367
70187POPC   C4B34226  18.232  13.969  18.192  0.0749  0.0429 -0.1786
70188POPC   NC334227  25.876   6.599  12.629 -0.0868  0.2076 -0.0088
70188POPC   PO434228  25.687   6.600  12.280 -0.0457 -0.1919 -0.1431
70188POPC   GL134229  25.401   6.752  12.503 -0.1443 -0.0928 -0.3069
70188POPC   GL234230  25.581   7.026  12.533  0.1930  0.2076 -0.0023
70188POPC   C1A34231  24.928   6.713  12.575 -0.1729 -0.2182  0.1379
70188POPC   D2A34232  24.577   6.948  12.762 -0.0852 -0.0291  0.1277
70188POPC   C3A34233  24.307   7.165  12.456  0.2783  0.0105 -0.0222
70188POPC   C4A34234  24.055   7.266  12.137 -0.1552  0.2801 -0.3630
70188POPC   C1B34235  25.793   7.405  12.586  0.2223 -0.1509 -0.2031
70188POPC   C2B34236  25.922   7.710  12.320  0.1159  0.1469 -0.1533
70188POPC   C3B34237  26.296   7.803  11.987  0.0904 -0.0389 -0.4430
70188POPC   C4B34238  26.586   8.159  12.095 -0.1471  0.1996 -0.0751
70189POPC   NC334239  28.278   3.131  18.136 -0.1620  0.0802 -0.2295
70189POPC   PO434240  28.029   2.802  18.050  0.0767 -0.0298 -0.1316
70189POPC   GL134241  28.175   2.724  17.684 -0.2816  0.0304 -0.0956
70189POPC   GL234242  27.960   2.573  17.540 -0.0854 -0.0274  0.1035
70189POPC   C1A34243  28.630   2.561  17.682  0.1314  0.3155  0.1275
70189POPC   D2A34244  29.096   2.462  17.582 -0.0899  0.0485  0.0172
70189POPC   C3A34245  29.177   2.193  17.222 -0.2072  0.2164 -0.2116
70189POPC   C4A34246  28.944   1.967  16.920  0.1422 -0.2786  0.1327
70189POPC   C1B34247  28.234   2.454  17.266 -0.2488  0.0810  0.1629
70189POPC   C2B34248  28.338   2.467  16.790 -0.1504 -0.1765  0.0246
70189POPC   C3B34249  28.520   2.409  16.347 -0.3666 -0.0208  0.2302
70189POPC   C4B34250  28.746   2.577  15.915 -0.0652  0.0359  0.1901
70190POPC   NC334251  27.611   2.867  17.702  0.0005 -0.2740  0.0841
70190POPC   PO434252  27.457   3.084  17.432 -0.1446 -0.2876  0.0990
70190POPC   GL134253  27.761   2.989  17.289 -0.2405 -0.1334 -0.1023
70190POPC   GL234254  28.039   3.060  17.225  0.1616  0.0606 -0.0142
70190POPC   C1A34255  27.868   2.713  16.941 -0.1894 -0.3372  0.3241
70190POPC   D2A34256  27.682   2.362  16.682  0.2166 -0.0963  0.0383
70190POPC   C3A34257  27.908   2.088  16.864  0.0393 -0.0729 -0.0676
70190POPC   C4A34258  28.274   2.032  17.071 -0.0591 -0.1321  0.2118
70190POPC   C1B34259  28.257   2.955  16.831 -0.1620 -0.1059 -0.1072
70190POPC   C2B34260  28.259   2.820  16.378 -0.2199 -0.0082 -0.0003
70190POPC   C3B34261  28.248   2.752  15.915 -0.0182 -0.1100  0.1375
70190POPC   C4B34262  28.385   2.772  15.441  0.0483  0.0602 -0.2472
70191POPC   NC334263  25.439   2.730  17.206  0.0330  0.1124  0.0520
70191POPC   PO434264  25.818   2.740  17.311 -0.2278  0.2537  0.2201
70191POPC   GL134265  25.742   2.386  17.111 -0.0360  0.1347 -0.2982
70191POPC   GL234266  25.968   2.246  17.097 -0.0586  0.1210 -0.1252
70191POPC   C1A34267  25.591   1.997  16.932  0.2609  0.1756 -0.0228
70191POPC   D2A34268  25.497   1.658  16.618 -0.1999  0.0897 -0.0786
70191POPC   C3A34269  25.296   1.310  16.812  0.1825 -0.0543 -0.1673
70191POPC   C4A34270  25.036   1.106  16.519 -0.2156 -0.1620  0.0127
70191POPC   C1B34271  26.344   2.038  16.958 -0.0242 -0.1544 -0.3360
70191POPC   C2B34272  26.534   1.617  16.895 -0.2817  0.1654  0.1739
70191POPC   C3B34273  26.662   1.211  16.883  0.0201 -0.0370  0.1393
70191POPC   C4B34274  26.544   0.782  16.696 -0.1599 -0.1577  0.4283
70192POPC   NC334275  26.417   0.329  18.991  0.1117 -0.2907  0.2246
70192POPC   PO434276  26.368   0.109  19.304 -0.1855 -0.0651 -0.3899
70192POPC   GL134277  26.057  -0.075  19.092 -0.2105 -0.0052 -0.0851
70192POPC   GL234278  26.264  -0.295  19.061 -0.0014 -0.0760 -0.2229
70192POPC   C1A34279  26.041  -0.011  18.659 -0.2539  0.4025 -0.0423
70192POPC   D2A34280  26.315  -0.008  18.299  0.2249 -0.0309  0.2734
70192POPC   C3A34281  26.529  -0.045  17.855 -0.2158  0.1983  0.1178
70192POPC   C4A34282  26.917  -0.131  17.677  0.0500 -0.1879 -0.1083
70192POPC   C1B34283  26.411  -0.457  18.644 -0.1220 -0.1686 -0.0105
70192POPC   C2B34284  26.539  -0.908  18.546 -0.2057 -0.2056  0.0415
70192POPC   C3B34285  26.385  -1.313  18.339  0.1407  0.0654 -0.1879
70192POPC   C4B34286  26.415  -1.700  18.167  0.1206  0.3472  0.2643
70193POPC   NC334287  26.859   6.585  17.168  0.1133 -0.1657 -0.0260
70193POPC   PO434288  26.533   6.628  16.964 -0.0982  0.0819 -0.4808
70193POPC   GL134289  26.611   6.965  16.830 -0.1450  0.2234  0.0258
70193POPC   GL234290  26.883   7.037  16.958 -0.0841 -0.0472 -0.0479
70193POPC   C1A34291  26.433   7.411  16.687 -0.0844 -0.1114 -0.1154
70193POPC   D2A34292  26.688   7.832  16.632 -0.1456  0.0966  0.0169
70193POPC   C3A34293  26.546   8.263  16.602  0.0840 -0.1269 -0.1456
70193POPC   C4A34294  26.845   8.595  16.453 -0.0037  0.2613 -0.1925
70193POPC   C1B34295  26.927   7.406  16.604  0.1904  0.1499 -0.1833
70193POPC   C2B34296  26.849   7.575  16.204 -0.0384  0.0630 -0.1032
70193POPC   C3B34297  26.578   7.703  15.850 -0.0010  0.0400 -0.3217
70193POPC   C4B34298  26.175   7.881  15.630  0.0154 -0.0804 -0.0302
70194POPC   NC334299  16.493  32.487  20.687  0.0449 -0.1752 -0.0834
70194POPC   PO434300  16.332  32.214  20.412  0.1854  0.2082 -0.1361
70194POPC   GL134301  16.373  32.255  20.015 -0.1948 -0.1995  0.3292
70194POPC   GL234302  16.597  32.040  19.919  0.0630 -0.0297 -0.0866
70194POPC   C1A34303  16.612  32.403  19.636 -0.0416  0.0144 -0.1469
70194POPC   D2A34304  16.967  32.464  19.267  0.0987 -0.0785  0.1211
70194POPC   C3A34305  16.784  32.350  18.894 -0.2806  0.2880 -0.1503
70194POPC   C4A34306  16.549  32.076  18.589 -0.3928  0.2836 -0.1714
70194POPC   C1B34307  16.214  32.010  19.652 -0.3756 -0.2484 -0.1170
70194POPC   C2B34308  15.827  31.973  19.354 -0.2145 -0.0768 -0.1826
70194POPC   C3B34309  15.494  31.736  19.269  0.0274 -0.0885 -0.2507
70194POPC   C4B34310  15.208  31.446  19.046  0.0838 -0.0742 -0.0087
70195POPC   NC334311  31.536  13.545  20.507 -0.0115  0.0983 -0.1408
70195POPC   PO434312  31.859  13.504  20.738 -0.5846  0.0663  0.3116
70195POPC   GL134313  32.038  13.597  20.340 -0.2438  0.0619 -0.2038
70195POPC   GL234314  31.929  13.854  20.296 -0.0057 -0.1648 -0.2029
70195POPC   C1A34315  32.025  13.616  19.894  0.2084 -0.1719 -0.2278
70195POPC   D2A34316  32.119  13.555  19.446  0.2468  0.0233  0.1241
70195POPC   C3A34317  31.867  13.696  19.107  0.2065 -0.2109 -0.1123
70195POPC   C4A34318  31.983  13.975  18.769 -0.0255  0.0108 -0.1037
70195POPC   C1B34319  31.830  14.188  20.006  0.0960  0.3919  0.1555
70195POPC   C2B34320  31.687  14.640  19.830 -0.0259  0.1695 -0.0047
70195POPC   C3B34321  31.943  15.005  19.653 -0.1616  0.2491 -0.0412
70195POPC   C4B34322  32.413  15.068  19.528  0.2195  0.2002 -0.0271
70196POPC   NC334323  21.118   3.208  18.973 -0.0101  0.5402 -0.1110
70196POPC   PO434324  20.797   3.074  19.167  0.0417  0.0805  0.2781
70196POPC   GL134325  20.536   3.098  18.849  0.0343  0.0706 -0.1218
70196POPC   GL234326  20.404   3.356  18.820  0.0605  0.2071  0.0098
70196POPC   C1A34327  20.324   2.881  18.474 -0.0063 -0.1063 -0.0806
70196POPC   D2A34328  20.042   2.597  18.280  0.1522  0.2345  0.1681
70196POPC   C3A34329  20.114   2.601  17.857  0.0246  0.2565 -0.0041
70196POPC   C4A34330  20.250   2.982  17.605 -0.0949  0.3332 -0.4093
70196POPC   C1B34331  20.219   3.411  18.407 -0.2011  0.1522  0.1068
70196POPC   C2B34332  19.969   3.119  18.153 -0.0735 -0.1231 -0.1512
70196POPC   C3B34333  19.685   2.878  17.850  0.2033  0.0829 -0.1119
70196POPC   C4B34334  19.565   2.435  17.993  0.0714 -0.0621  0.1046
70197POPC   NC334335  22.313  13.338  20.498 -0.0096 -0.2293 -0.2880
70197POPC   PO434336  22.395  12.945  20.626  0.1691 -0.4132 -0.1238
70197POPC   GL134337  22.351  12.885  20.238 -0.2026  0.3378 -0.0582
70197POPC   GL234338  22.367  13.097  20.028  0.0475  0.1968 -0.0352
70197POPC   C1A34339  21.985  12.730  19.968  0.0683 -0.0965 -0.1729
70197POPC   D2A34340  21.511  12.893  19.867 -0.4941  0.1123  0.1609
70197POPC   C3A34341  21.313  13.103  19.511  0.1695 -0.0740 -0.0692
70197POPC   C4A34342  21.427  13.346  19.157 -0.2543  0.1068  0.1545
70197POPC   C1B34343  22.293  12.914  19.603 -0.0712 -0.0620  0.0059
70197POPC   C2B34344  22.428  13.077  19.189  0.0247  0.0470  0.1367
70197POPC   C3B34345  22.512  13.145  18.751  0.1335 -0.0160 -0.2494
70197POPC   C4B34346  22.354  13.363  18.375  0.0295  0.2490 -0.0450
70198POPC   NC334347  21.088  12.480  20.668  0.2232 -0.0416  0.0364
70198POPC   PO434348  20.690  12.554  20.606 -0.0361 -0.2201  0.2140
70198POPC   GL134349  20.630  12.667  20.262 -0.1403  0.0774 -0.3227
70198POPC   GL234350  20.363  12.669  20.182  0.3112 -0.1058 -0.1562
70198POPC   C1A34351  20.626  13.108  20.113  0.0817 -0.1273 -0.1955
70198POPC   D2A34352  20.694  13.491  19.912  0.0889 -0.0912  0.0545
70198POPC   C3A34353  20.979  13.510  19.507  0.3625  0.0172 -0.5318
70198POPC   C4A34354  20.992  13.503  19.039  0.1450 -0.0652 -0.0203
70198POPC   C1B34355  20.439  12.677  19.724  0.1106  0.0028 -0.1073
70198POPC   C2B34356  20.585  12.592  19.329 -0.2589  0.0289 -0.0945
70198POPC   C3B34357  20.554  12.760  18.916 -0.1204  0.1316 -0.2072
70198POPC   C4B34358  20.630  12.645  18.496 -0.1783 -0.0329  0.0263
70199POPC   NC334359  25.169   5.834  15.292  0.0399 -0.2889  0.2188
70199POPC   PO434360  25.112   6.137  15.499 -0.0034  0.0016  0.0437
70199POPC   GL134361  25.254   6.455  15.169 -0.0717 -0.2005 -0.0714
70199POPC   GL234362  24.993   6.483  15.107  0.2352  0.1945  0.0929
70199POPC   C1A34363  25.235   6.914  15.090  0.3667  0.1619  0.1837
70199POPC   D2A34364  25.129   7.334  14.936 -0.1564  0.0848 -0.0210
70199POPC   C3A34365  25.279   7.560  14.588  0.1851 -0.0639 -0.0858
70199POPC   C4A34366  25.425   7.924  14.415  0.0949  0.1657 -0.0165
70199POPC   C1B34367  24.546   6.484  14.996 -0.0592 -0.0470  0.3187
70199POPC   C2B34368  24.446   6.807  14.631 -0.1615  0.0341  0.1865
70199POPC   C3B34369  24.356   7.056  14.231 -0.2216  0.2107  0.2496
70199POPC   C4B34370  23.957   7.116  14.059  0.1479  0.0273 -0.1228
70200POPC   NC334371  26.215   1.589  18.159 -0.1829  0.2373 -0.2021
70200POPC   PO434372  26.161   1.449  18.525 -0.0447  0.0438  0.1514
70200POPC   GL134373  26.211   1.173  18.331 -0.0981 -0.3241 -0.0422
70200POPC   GL234374  25.975   0.995  18.430 -0.0603  0.1096  0.0758
70200POPC   C1A34375  26.240   0.878  17.937 -0.0702  0.1516 -0.2165
70200POPC   D2A34376  26.316   0.654  17.547 -0.2970  0.3254 -0.0391
70200POPC   C3A34377  26.636   0.712  17.199 -0.0330  0.2964  0.1368
70200POPC   C4A34378  27.079   0.730  17.406  0.0615 -0.0058 -0.1353
70200POPC   C1B34379  26.388   0.855  18.547  0.3620 -0.0402  0.3598
70200POPC   C2B34380  26.735   1.011  18.310  0.4418 -0.0983 -0.2840
70200POPC   C3B34381  27.106   1.319  18.212 -0.3150 -0.0910  0.0255
70200POPC   C4B34382  27.309   1.334  17.798 -0.2062 -0.0259 -0.1030
70201POPC   NC334383  21.723   2.967  18.807  0.0632  0.5400 -0.0575
70201POPC   PO434384  21.954   3.239  18.896 -0.3590 -0.2982 -0.1913
70201POPC   GL134385  21.912   3.119  18.449 -0.1410  0.1123 -0.2042
70201POPC   GL234386  22.172   2.886  18.438  0.1883  0.0518  0.1728
70201POPC   C1A34387  21.482   2.899  18.362 -0.1906 -0.0505  0.1558
70201POPC   D2A34388  21.074   2.747  18.247  0.0429  0.1706 -0.1734
70201POPC   C3A34389  20.952   2.469  17.906 -0.1010  0.1669  0.3380
70201POPC   C4A34390  21.139   2.589  17.465 -0.3066  0.0092 -0.0381
70201POPC   C1B34391  21.958   2.953  18.032 -0.1627  0.2078  0.2003
70201POPC   C2B34392  21.567   3.027  17.758 -0.2305  0.6512 -0.3376
70201POPC   C3B34393  21.618   2.936  17.292  0.1811  0.1386 -0.0138
70201POPC   C4B34394  21.638   2.915  16.787 -0.2074 -0.2016 -0.2363
70202POPC   NC334395  31.698   6.671  19.765  0.1815  0.1015 -0.3292
70202POPC   PO434396  31.718   6.684  19.389 -0.1371  0.0836  0.1639
70202POPC   GL134397  31.785   6.457  19.084 -0.2888  0.3378  0.1131
70202POPC   GL234398  32.109   6.363  19.096  0.0164 -0.0657  0.0366
70202POPC   C1A34399  31.898   6.641  18.685  0.1669 -0.0737 -0.1179
70202POPC   D2A34400  31.949   6.629  18.276  0.0396 -0.2806  0.1355
70202POPC   C3A34401  32.088   7.063  18.103  0.1898  0.0658  0.1470
70202POPC   C4A34402  32.420   7.326  17.964 -0.0579  0.2030 -0.1995
70202POPC   C1B34403  32.403   6.443  18.698  0.0379 -0.2392 -0.0607
70202POPC   C2B34404  32.832   6.564  18.568 -0.1741  0.0956  0.0206
70202POPC   C3B34405  33.261   6.688  18.591  0.0322  0.0728 -0.4075
70202POPC   C4B34406  33.688   6.642  18.399 -0.0559 -0.1531  0.2666
70203POPC   NC334407  28.810  15.523  19.837 -0.2850 -0.0633  0.0687
70203POPC   PO434408  28.425  15.573  19.930  0.2878 -0.3171  0.4982
70203POPC   GL134409  28.410  15.830  19.486 -0.2950 -0.0863  0.1677
70203POPC   GL234410  28.327  15.588  19.399  0.0292  0.2794  0.1675
70203POPC   C1A34411  28.489  15.775  18.996  0.0693  0.1359  0.1071
70203POPC   D2A34412  28.475  15.706  18.477 -0.0317  0.0905 -0.0730
70203POPC   C3A34413  28.032  15.675  18.284  0.3585  0.0509 -0.1553
70203POPC   C4A34414  27.635  15.732  18.508  0.0956 -0.0593 -0.2448
70203POPC   C1B34415  28.467  15.244  19.117 -0.0491  0.1854  0.0204
70203POPC   C2B34416  28.474  14.979  18.775 -0.0056 -0.2081  0.0146
70203POPC   C3B34417  28.510  14.761  18.319 -0.3827 -0.0898  0.0922
70203POPC   C4B34418  28.758  14.599  17.928 -0.0864  0.2393  0.0307
70204POPC   NC334419  32.020  12.287  20.474 -0.2257 -0.1881  0.0043
70204POPC   PO434420  31.712  12.500  20.600 -0.1344  0.2001 -0.2234
70204POPC   GL134421  31.878  12.734  20.289 -0.0209  0.1921 -0.4997
70204POPC   GL234422  31.771  12.694  20.043  0.0702 -0.0053  0.1120
70204POPC   C1A34423  32.335  12.833  20.154 -0.0885 -0.1709 -0.2760
70204POPC   D2A34424  32.367  13.143  19.779  0.2795 -0.0524  0.0003
70204POPC   C3A34425  32.069  13.042  19.451 -0.0569 -0.1179 -0.1612
70204POPC   C4A34426  31.828  12.922  19.052 -0.2525  0.2791 -0.0632
70204POPC   C1B34427  31.632  12.834  19.592  0.3390  0.0439  0.0866
70204POPC   C2B34428  31.248  13.047  19.385  0.1871 -0.0934 -0.1457
70204POPC   C3B34429  30.922  13.133  19.091 -0.1055 -0.0233  0.0336
70204POPC   C4B34430  30.481  13.059  19.034 -0.2092  0.1288  0.0922
70205POPC   NC334431  30.962   0.719  20.316  0.1491  0.1150 -0.1033
70205POPC   PO434432  31.095   0.356  20.497 -0.0605 -0.1371  0.1449
70205POPC   GL134433  30.956   0.029  20.218 -0.0490  0.0617  0.0374
70205POPC   GL234434  31.253  -0.021  20.126 -0.2759  0.3118 -0.0756
70205POPC   C1A34435  30.862  -0.221  19.858 -0.0751  0.0472 -0.2545
70205POPC   D2A34436  30.928  -0.512  19.538  0.0526 -0.0262 -0.1285
70205POPC   C3A34437  30.920  -0.598  19.103  0.0946 -0.1925 -0.0680
70205POPC   C4A34438  30.808  -0.608  18.649 -0.4084  0.2287  0.0955
70205POPC   C1B34439  31.328  -0.038  19.687  0.2019 -0.1144  0.0951
70205POPC   C2B34440  31.555   0.088  19.291  0.2128  0.1644  0.1593
70205POPC   C3B34441  31.453   0.343  18.910 -0.1817  0.1876 -0.1237
70205POPC   C4B34442  31.326   0.571  18.491  0.0337 -0.1563 -0.0061
70206POPC   NC334443  31.468   0.548  20.282 -0.0475  0.1466  0.2465
70206POPC   PO434444  31.681   0.338  20.116 -0.1527  0.3311 -0.6512
70206POPC   GL134445  31.731   0.331  19.719 -0.0351  0.1276 -0.3230
70206POPC   GL234446  31.524   0.457  19.631 -0.1025 -0.0824  0.1253
70206POPC   C1A34447  32.026   0.094  19.491  0.0011 -0.1290  0.2275
70206POPC   D2A34448  31.897  -0.115  18.996 -0.5954 -0.1748 -0.1330
70206POPC   C3A34449  31.525  -0.123  18.776  0.2147 -0.1562 -0.1459
70206POPC   C4A34450  31.456  -0.362  18.366 -0.0195  0.0561  0.1756
70206POPC   C1B34451  31.488   0.693  19.220 -0.1604 -0.1836 -0.2490
70206POPC   C2B34452  31.431   0.938  18.822  0.2028  0.1913  0.0457
70206POPC   C3B34453  31.548   1.088  18.399  0.1648 -0.1352  0.2131
70206POPC   C4B34454  31.856   1.068  18.149  0.1928 -0.0143  0.1731
70207POPC   NC334455  27.205   6.074  16.618 -0.1276  0.0442  0.0135
70207POPC   PO434456  27.546   6.104  16.775  0.4353 -0.1546 -0.0515
70207POPC   GL134457  27.912   6.224  16.571  0.0228  0.1571  0.0354
70207POPC   GL234458  28.040   6.036  16.513  0.1609  0.3961 -0.0490
70207POPC   C1A34459  28.315   6.416  16.683 -0.0367 -0.2580 -0.1064
70207POPC   D2A34460  28.628   6.776  16.794  0.1963  0.0198  0.0355
70207POPC   C3A34461  28.925   6.929  16.509 -0.1267  0.0591 -0.3609
70207POPC   C4A34462  29.049   6.856  16.050  0.1844  0.0457 -0.0775
70207POPC   C1B34463  28.266   6.312  16.201 -0.1966 -0.0010 -0.0613
70207POPC   C2B34464  28.687   6.497  16.193  0.0142  0.0512  0.0715
70207POPC   C3B34465  29.150   6.449  16.362  0.3172  0.1866  0.0971
70207POPC   C4B34466  29.450   6.730  16.369  0.2400  0.0163  0.4389
70208POPC   NC334467  28.268   3.992  18.463 -0.2475  0.1671  0.0812
70208POPC   PO434468  28.152   4.292  18.270 -0.0371 -0.1840  0.2841
70208POPC   GL134469  28.302   4.451  17.906  0.2972  0.0495 -0.1325
70208POPC   GL234470  28.575   4.407  18.055  0.1022  0.0744 -0.0137
70208POPC   C1A34471  28.484   4.292  17.450  0.1205 -0.0865 -0.1058
70208POPC   D2A34472  28.841   4.456  17.165 -0.0976 -0.3499 -0.0704
70208POPC   C3A34473  28.854   4.616  16.717  0.2461 -0.2049 -0.0335
70208POPC   C4A34474  28.860   4.565  16.269 -0.1088  0.2238  0.1954
70208POPC   C1B34475  28.901   4.505  17.773  0.1315  0.1547 -0.0722
70208POPC   C2B34476  29.168   4.710  17.468  0.0412  0.0011  0.4404
70208POPC   C3B34477  29.328   4.734  17.013  0.0495 -0.2947  0.2858
70208POPC   C4B34478  29.691   4.767  16.798  0.1756  0.2368  0.2831
70209POPC   NC334479  20.673   1.248  20.222 -0.0945 -0.0837  0.2010
70209POPC   PO434480  20.753   0.812  20.176 -0.0014 -0.0668 -0.0649
70209POPC   GL134481  20.574   0.921  19.725  0.0655 -0.2610  0.0579
70209POPC   GL234482  20.345   0.751  19.613 -0.3201  0.0056 -0.1184
70209POPC   C1A34483  20.680   0.840  19.293  0.2755 -0.0501  0.1611
70209POPC   D2A34484  20.541   0.836  18.824 -0.2866  0.1316 -0.0879
70209POPC   C3A34485  20.374   0.564  18.488 -0.0301  0.0367 -0.2181
70209POPC   C4A34486  20.251   0.171  18.267  0.2644  0.1685  0.1228
70209POPC   C1B34487  20.149   0.567  19.196  0.3785 -0.1641 -0.2150
70209POPC   C2B34488  19.951   0.416  18.858 -0.0511  0.0340  0.0698
70209POPC   C3B34489  19.714   0.534  18.521 -0.1234 -0.2439  0.2348
70209POPC   C4B34490  19.343   0.583  18.217 -0.0786 -0.0585 -0.1163
70210POPC   NC334491  21.853   2.117  19.024 -0.0831  0.0981 -0.3929
70210POPC   PO434492  22.186   1.905  19.076  0.0589  0.0991  0.1377
70210POPC   GL134493  22.266   1.628  18.834  0.1670 -0.1795 -0.1848
70210POPC   GL234494  22.525   1.449  18.883 -0.0552  0.3000 -0.2808
70210POPC   C1A34495  21.952   1.419  18.540 -0.1676 -0.0209  0.2610
70210POPC   D2A34496  21.895   1.397  18.041 -0.3132 -0.2485 -0.0392
70210POPC   C3A34497  21.529   1.157  18.003  0.2089  0.2727  0.2248
70210POPC   C4A34498  21.154   1.170  17.723  0.0980 -0.3266 -0.2324
70210POPC   C1B34499  22.445   1.242  18.492  0.0987 -0.2585 -0.1274
70210POPC   C2B34500  22.320   1.213  18.064 -0.1469 -0.0882  0.1890
70210POPC   C3B34501  22.273   1.031  17.658  0.1436 -0.0032 -0.0300
70210POPC   C4B34502  22.073   0.848  17.326  0.1824 -0.1546 -0.3193
70211POPC   NC334503  19.345   7.318  20.099 -0.0251 -0.1236  0.3067
70211POPC   PO434504  19.649   7.459  20.283  0.2152 -0.4222  0.1078
70211POPC   GL134505  19.574   7.751  20.042 -0.4523 -0.0661 -0.0859
70211POPC   GL234506  19.811   7.696  19.883  0.0729 -0.5653  0.2942
70211POPC   C1A34507  19.564   8.010  19.647 -0.0820 -0.0488 -0.0282
70211POPC   D2A34508  19.801   8.413  19.559  0.0437 -0.2508 -0.2038
70211POPC   C3A34509  19.467   8.656  19.339 -0.2607  0.3808 -0.0551
70211POPC   C4A34510  19.005   8.524  19.320  0.2898  0.1961 -0.1134
70211POPC   C1B34511  19.623   7.547  19.509 -0.0683 -0.2352  0.2675
70211POPC   C2B34512  19.485   7.648  19.082 -0.2511  0.0542  0.1400
70211POPC   C3B34513  19.474   7.730  18.621 -0.2245 -0.1311 -0.1756
70211POPC   C4B34514  19.606   7.978  18.183 -0.2902  0.0977  0.2339
70212POPC   NC334515  23.028   2.753  18.081  0.0425  0.2079  0.0912
70212POPC   PO434516  23.039   2.434  18.316  0.0243  0.1519  0.1399
70212POPC   GL134517  23.039   2.238  17.949  0.1934 -0.2355 -0.0916
70212POPC   GL234518  22.973   2.385  17.711 -0.1133  0.2452  0.0252
70212POPC   C1A34519  22.758   1.878  17.919 -0.0765  0.0152  0.1659
70212POPC   D2A34520  22.583   1.484  17.675 -0.0053 -0.0445 -0.0590
70212POPC   C3A34521  22.496   1.678  17.246  0.1725 -0.0587 -0.0619
70212POPC   C4A34522  22.192   1.903  16.979 -0.1137 -0.0904  0.1089
70212POPC   C1B34523  22.672   2.126  17.420 -0.0578  0.0054  0.1761
70212POPC   C2B34524  22.233   2.169  17.426 -0.0592  0.1471  0.1236
70212POPC   C3B34525  21.794   2.043  17.282 -0.1925  0.0185 -0.1005
70212POPC   C4B34526  21.597   1.876  16.889  0.0652  0.1167  0.4469
70213POPC   NC334527  18.585  12.907  20.721 -0.0723  0.0971 -0.2760
70213POPC   PO434528  18.933  13.013  20.557 -0.1802  0.1383 -0.1177
70213POPC   GL134529  18.918  12.730  20.299  0.2151  0.1136  0.4469
70213POPC   GL234530  18.678  12.592  20.342 -0.1079 -0.1388 -0.1635
70213POPC   C1A34531  19.042  12.517  19.882 -0.0628 -0.0249  0.1990
70213POPC   D2A34532  19.272  12.404  19.532 -0.1015 -0.0984  0.4164
70213POPC   C3A34533  19.775  12.375  19.638  0.1453 -0.2205 -0.1823
70213POPC   C4A34534  20.003  12.357  20.057  0.2464 -0.2723  0.2997
70213POPC   C1B34535  18.486  12.448  19.931  0.0683  0.1847  0.1932
70213POPC   C2B34536  18.670  12.246  19.521 -0.2810  0.0776 -0.2145
70213POPC   C3B34537  18.755  11.991  19.172 -0.2656  0.0337  0.2857
70213POPC   C4B34538  18.717  11.749  18.798 -0.3180 -0.1642  0.1685
70214POPC   NC334539  28.001   5.372  15.787  0.0737 -0.0111  0.2582
70214POPC   PO434540  27.606   5.249  15.841  0.0267  0.0827 -0.1858
70214POPC   GL134541  27.635   4.925  15.646 -0.2289  0.0058  0.1646
70214POPC   GL234542  27.830   4.953  15.513  0.1720 -0.1473  0.4985
70214POPC   C1A34543  27.731   4.468  15.761  0.0293 -0.0837 -0.0246
70214POPC   D2A34544  28.136   4.293  15.654 -0.0542  0.1478 -0.0046
70214POPC   C3A34545  28.204   4.165  15.201  0.0049 -0.0106 -0.2431
70214POPC   C4A34546  28.169   3.907  14.793  0.3133 -0.0160 -0.1080
70214POPC   C1B34547  28.195   4.814  15.737 -0.0072  0.4159 -0.2093
70214POPC   C2B34548  28.624   4.689  15.792 -0.2141  0.1352  0.0329
70214POPC   C3B34549  29.103   4.681  15.848 -0.2363 -0.1637  0.1130
70214POPC   C4B34550  29.595   4.751  15.727  0.2392 -0.1257  0.0358
70215POPC   NC334551  20.332  16.875  20.536 -0.1699  0.0641  0.1763
70215POPC   PO434552  20.039  16.657  20.393 -0.4137 -0.0485 -0.1357
70215POPC   GL134553  19.979  16.572  19.972 -0.2860  0.0126 -0.1754
70215POPC   GL234554  19.762  16.744  19.906  0.2981 -0.3383  0.1777
70215POPC   C1A34555  20.148  16.421  19.587 -0.0664  0.0508 -0.2565
70215POPC   D2A34556  20.573  16.430  19.413  0.1128  0.0591  0.2579
70215POPC   C3A34557  20.632  16.261  18.921 -0.0298 -0.1886 -0.3297
70215POPC   C4A34558  20.646  16.117  18.499  0.0097 -0.2074  0.3108
70215POPC   C1B34559  19.744  16.730  19.466 -0.1257  0.0122 -0.0609
70215POPC   C2B34560  20.001  16.828  19.107 -0.0133  0.0657  0.2140
70215POPC   C3B34561  20.059  17.095  18.735  0.0357  0.1000 -0.2704
70215POPC   C4B34562  19.814  17.136  18.333  0.1212  0.1705 -0.1922
70216POPC   NC334563  27.493   8.096  18.509 -0.1269  0.0442 -0.4071
70216POPC   PO434564  27.159   7.980  18.664 -0.0178 -0.2589 -0.1843
70216POPC   GL134565  26.999   8.127  18.369  0.2429 -0.3028 -0.4038
70216POPC   GL234566  27.148   8.019  18.125 -0.0442  0.2934  0.0622
70216POPC   C1A34567  26.965   8.510  18.044 -0.0083  0.1547 -0.3299
70216POPC   D2A34568  26.769   8.750  17.721  0.0582 -0.1990  0.2475
70216POPC   C3A34569  26.904   8.565  17.302 -0.2596 -0.2069 -0.2327
70216POPC   C4A34570  27.093   8.723  16.897  0.0492 -0.2677  0.2274
70216POPC   C1B34571  27.475   7.958  17.780  0.1028 -0.0445 -0.0774
70216POPC   C2B34572  27.891   7.994  17.588 -0.0307  0.4729  0.3112
70216POPC   C3B34573  28.040   8.112  17.187 -0.1164 -0.2279 -0.1779
70216POPC   C4B34574  27.997   8.474  16.809  0.0057 -0.0395  0.0970
70217POPC   NC334575  16.997  10.609  20.677  0.1049 -0.2838  0.2680
70217POPC   PO434576  16.908  10.271  20.534 -0.0392  0.0358 -0.0915
70217POPC   GL134577  16.784  10.168  20.149  0.5241 -0.2445  0.0820
70217POPC   GL234578  17.063  10.121  20.049 -0.2791  0.0369 -0.2133
70217POPC   C1A34579  16.708  10.426  19.754 -0.0772  0.4144  0.0430
70217POPC   D2A34580  16.855  10.503  19.282  0.3833  0.2942 -0.0658
70217POPC   C3A34581  17.011  10.476  18.821  0.1480  0.0498 -0.2627
70217POPC   C4A34582  17.195  10.159  18.542 -0.2432 -0.0961 -0.0348
70217POPC   C1B34583  17.160  10.563  19.970 -0.0943  0.1718 -0.2087
70217POPC   C2B34584  16.952  10.888  19.678  0.1061  0.1416 -0.1697
70217POPC   C3B34585  16.811  11.195  19.333 -0.0722 -0.2257  0.0465
70217POPC   C4B34586  16.606  11.645  19.215 -0.0251  0.3134 -0.1148
70218POPC   NC334587  21.630   8.085  19.711 -0.0430  0.2813  0.3991
70218POPC   PO434588  21.637   7.868  19.414  0.1542 -0.1683  0.0270
70218POPC   GL134589  21.384   7.781  19.154 -0.0466 -0.1247 -0.0850
70218POPC   GL234590  21.393   8.031  19.018 -0.2261  0.0305 -0.1936
70218POPC   C1A34591  21.289   7.586  18.778  0.1568 -0.0350  0.0687
70218POPC   D2A34592  21.001   7.336  18.519 -0.0762  0.1551  0.1652
70218POPC   C3A34593  20.684   7.612  18.284 -0.1838  0.1586  0.4003
70218POPC   C4A34594  20.451   7.754  17.862 -0.0459 -0.4755 -0.1769
70218POPC   C1B34595  21.148   8.308  18.772 -0.2225 -0.1169 -0.1744
70218POPC   C2B34596  20.921   8.227  18.392 -0.0942 -0.0741 -0.0617
70218POPC   C3B34597  20.757   8.201  17.953  0.3808  0.2878  0.1626
70218POPC   C4B34598  20.501   8.165  17.631  0.0555  0.0788 -0.0069
70219POPC   NC334599  30.268   3.685  18.835 -0.0012  0.0668 -0.0528
70219POPC   PO434600  30.627   3.740  18.966 -0.1897  0.1277 -0.1470
70219POPC   GL134601  30.620   3.873  18.571 -0.4405  0.0205  0.1508
70219POPC   GL234602  30.645   3.572  18.491  0.2710 -0.2132  0.3608
70219POPC   C1A34603  30.908   4.088  18.283 -0.2454 -0.3130  0.2149
70219POPC   D2A34604  31.018   4.461  18.094 -0.0090 -0.0331  0.1548
70219POPC   C3A34605  31.026   4.368  17.635 -0.0936 -0.3510  0.1412
70219POPC   C4A34606  30.744   4.049  17.443 -0.1665 -0.3608  0.1503
70219POPC   C1B34607  30.620   3.633  17.959 -0.4349  0.0932  0.0176
70219POPC   C2B34608  30.638   3.531  17.518 -0.0394  0.4060 -0.1742
70219POPC   C3B34609  30.660   3.467  17.011  0.0494 -0.1336  0.1622
70219POPC   C4B34610  30.692   3.647  16.608 -0.0453 -0.1326  0.2736
70220POPC   NC334611  25.190   6.286  12.500  0.0722  0.1488  0.0043
70220POPC   PO434612  25.402   6.412  12.796  0.0177  0.0505  0.0678
70220POPC   GL134613  25.354   6.786  12.929 -0.2780  0.1049  0.2102
70220POPC   GL234614  25.330   6.900  13.266 -0.6966  0.2087 -0.0735
70220POPC   C1A34615  25.103   7.167  12.807 -0.1116  0.2148  0.0066
70220POPC   D2A34616  24.890   7.462  13.088  0.0533 -0.2315  0.0846
70220POPC   C3A34617  25.034   7.785  13.408 -0.0162 -0.0029  0.3282
70220POPC   C4A34618  25.304   8.160  13.574  0.0943  0.1339 -0.1380
70220POPC   C1B34619  25.302   7.345  13.301  0.1218  0.1357 -0.0310
70220POPC   C2B34620  25.343   7.620  12.955  0.0211  0.0611  0.2859
70220POPC   C3B34621  25.407   7.720  12.515 -0.2754  0.1193 -0.0537
70220POPC   C4B34622  25.507   7.795  12.069  0.0908  0.0672  0.0646
70221POPC   NC334623  24.115  15.006  20.478 -0.4338  0.0854  0.0491
70221POPC   PO434624  23.948  15.328  20.248  0.0069  0.1399 -0.2638
70221POPC   GL134625  23.819  15.488  19.927  0.0892 -0.0526  0.2945
70221POPC   GL234626  24.059  15.491  19.770  0.2280  0.0962 -0.1265
70221POPC   C1A34627  23.456  15.712  19.726 -0.0622 -0.1773 -0.0364
70221POPC   D2A34628  23.281  15.704  19.305  0.0337 -0.3345 -0.0122
70221POPC   C3A34629  23.730  15.837  19.029 -0.2145 -0.2503  0.3307
70221POPC   C4A34630  23.858  15.813  18.614  0.0459  0.0418  0.0445
70221POPC   C1B34631  24.032  15.432  19.232 -0.1599  0.0295 -0.1997
70221POPC   C2B34632  23.797  15.286  18.845  0.2471 -0.2005  0.0330
70221POPC   C3B34633  23.331  15.380  18.832 -0.2279  0.0832 -0.3131
70221POPC   C4B34634  22.894  15.215  18.764 -0.1647  0.0145 -0.2534
70222POPC   NC334635  20.597   5.421  19.417 -0.0766  0.4569  0.4514
70222POPC   PO434636  20.603   5.799  19.405  0.3798  0.3004 -0.2224
70222POPC   GL134637  20.535   5.999  19.031  0.1293 -0.1875 -0.2064
70222POPC   GL234638  20.680   6.309  18.955 -0.3853 -0.0570 -0.1322
70222POPC   C1A34639  20.541   5.864  18.584 -0.2721  0.3134 -0.0456
70222POPC   D2A34640  20.444   5.795  18.120  0.2604 -0.0658  0.0612
70222POPC   C3A34641  20.665   5.701  17.752  0.0084  0.1269 -0.1133
70222POPC   C4A34642  20.869   5.896  17.408 -0.2688 -0.2576 -0.0969
70222POPC   C1B34643  20.708   6.463  18.507  0.1969 -0.0922  0.1607
70222POPC   C2B34644  20.620   6.660  18.072 -0.0196  0.1690  0.1022
70222POPC   C3B34645  20.530   6.916  17.685 -0.1360  0.0355  0.0653
70222POPC   C4B34646  20.685   6.970  17.309 -0.4047 -0.3158 -0.0389
70223POPC   NC334647  23.504   5.729  17.305  0.0652  0.0553  0.0639
70223POPC   PO434648  23.348   5.388  17.336  0.0145 -0.0999 -0.0992
70223POPC   GL134649  23.055   5.373  16.996 -0.0631  0.3773  0.1056
70223POPC   GL234650  22.803   5.520  17.118 -0.2792 -0.3898 -0.1625
70223POPC   C1A34651  22.911   5.032  16.729 -0.0281 -0.0733  0.2723
70223POPC   D2A34652  22.530   4.848  16.421 -0.1540  0.0807  0.1476
70223POPC   C3A34653  22.454   5.071  16.002  0.0777  0.0879  0.0518
70223POPC   C4A34654  22.052   5.062  15.803  0.2459  0.1852 -0.4572
70223POPC   C1B34655  22.508   5.305  16.833  0.0935 -0.0199  0.0762
70223POPC   C2B34656  22.147   5.086  16.552  0.1286  0.0195 -0.0932
70223POPC   C3B34657  21.815   4.973  16.293 -0.0057  0.0599  0.0479
70223POPC   C4B34658  21.567   5.167  15.934 -0.2868  0.1222  0.1142
70224POPC   NC334659  27.809   5.677  16.760 -0.0817  0.3555 -0.1647
70224POPC   PO434660  27.960   5.809  17.108  0.2028 -0.0798  0.0303
70224POPC   GL134661  28.280   5.678  16.950  0.2013  0.3792  0.2917
70224POPC   GL234662  28.425   5.914  16.780  0.6002  0.1047 -0.0239
70224POPC   C1A34663  28.692   5.465  16.737 -0.0873 -0.1632 -0.0019
70224POPC   D2A34664  29.056   5.141  16.844  0.1623  0.0344 -0.1719
70224POPC   C3A34665  29.212   4.858  16.479 -0.0391  0.0901  0.2232
70224POPC   C4A34666  29.516   4.588  16.238  0.0101 -0.1547 -0.1431
70224POPC   C1B34667  28.740   5.896  16.443  0.0192  0.1013  0.2112
70224POPC   C2B34668  29.070   6.008  16.145 -0.1458  0.5093  0.1120
70224POPC   C3B34669  29.475   6.237  15.978  0.1036  0.1615  0.1155
70224POPC   C4B34670  29.849   6.183  15.765 -0.2566  0.1003  0.0925
70225POPC   NC334671  17.699  11.310  20.366  0.2455  0.2171  0.0543
70225POPC   PO434672  17.326  11.408  20.411  0.0159 -0.1188 -0.0259
70225POPC   GL134673  17.431  11.343  19.989  0.1347  0.2447 -0.2588
70225POPC   GL234674  17.382  11.077  19.901 -0.0736 -0.0858  0.0236
70225POPC   C1A34675  17.580  11.547  19.577 -0.1190 -0.4151  0.0574
70225POPC   D2A34676  17.722  11.696  19.173  0.3410  0.2284  0.1043
70225POPC   C3A34677  17.662  12.182  19.073  0.1462 -0.1907  0.0461
70225POPC   C4A34678  17.672  12.664  19.159  0.0778 -0.0579  0.0948
70225POPC   C1B34679  17.458  11.125  19.475 -0.2339  0.3206 -0.0074
70225POPC   C2B34680  17.368  11.357  19.107  0.1290  0.1981  0.1692
70225POPC   C3B34681  17.460  11.709  18.772 -0.0258 -0.0738  0.2812
70225POPC   C4B34682  17.550  12.001  18.470 -0.0948  0.4794 -0.0505
70226POPC   NC334683  27.037   6.206  12.879  0.0532 -0.0016  0.0274
70226POPC   PO434684  26.670   6.178  13.006  0.1298 -0.1291  0.0979
70226POPC   GL134685  26.876   6.371  13.310  0.0149 -0.2002 -0.3056
70226POPC   GL234686  26.650   6.496  13.433  0.1542  0.0487  0.1598
70226POPC   C1A34687  27.324   6.451  13.308  0.0128  0.3596  0.0613
70226POPC   D2A34688  27.628   6.511  12.925 -0.1737 -0.1078 -0.2859
70226POPC   C3A34689  27.467   6.947  12.927 -0.1646 -0.2165 -0.1133
70226POPC   C4A34690  27.261   7.394  12.943  0.2543 -0.0637  0.0313
70226POPC   C1B34691  26.501   6.894  13.245 -0.0980  0.4225 -0.3364
70226POPC   C2B34692  26.335   7.283  13.185  0.2224 -0.2090 -0.0582
70226POPC   C3B34693  26.351   7.641  13.430  0.1070 -0.3727  0.3456
70226POPC   C4B34694  26.156   8.083  13.296 -0.3045 -0.0172 -0.1656
70227POPC   NC334695  17.130   4.281  19.579  0.1332  0.1591  0.2101
70227POPC   PO434696  17.378   3.968  19.624 -0.0196 -0.1233  0.0269
70227POPC   GL134697  17.417   4.122  19.240  0.0394  0.1014  0.1523
70227POPC   GL234698  17.203   4.272  19.115  0.1695 -0.0756  0.3223
70227POPC   C1A34699  17.382   3.808  18.923  0.1886 -0.0723  0.2118
70227POPC   D2A34700  17.466   3.690  18.498 -0.1480 -0.0468 -0.0963
70227POPC   C3A34701  17.574   3.366  18.202  0.0697 -0.0812  0.0962
70227POPC   C4A34702  17.444   3.253  17.759 -0.1554 -0.3105  0.2561
70227POPC   C1B34703  17.202   4.622  18.823 -0.1069 -0.2821 -0.1177
70227POPC   C2B34704  16.941   4.886  18.524 -0.1003 -0.2046 -0.0197
70227POPC   C3B34705  17.049   5.138  18.120  0.0847 -0.1299 -0.2168
70227POPC   C4B34706  17.220   5.215  17.676  0.0117  0.0537  0.0179
70228POPC   NC334707  19.775   9.705  20.172  0.1280  0.2972  0.0979
70228POPC   PO434708  19.796   9.284  20.231  0.0260  0.0237  0.0781
70228POPC   GL134709  19.756   9.330  19.743 -0.0148 -0.0478  0.4197
70228POPC   GL234710  19.580   9.559  19.580  0.0985  0.2393 -0.1341
70228POPC   C1A34711  19.640   9.164  19.302 -0.2083  0.0604 -0.1798
70228POPC   D2A34712  19.639   9.214  18.803  0.2659 -0.1407 -0.0211
70228POPC   C3A34713  19.649   9.012  18.388  0.2192 -0.3207 -0.0034
70228POPC   C4A34714  19.336   8.965  18.088  0.2115 -0.1405  0.1961
70228POPC   C1B34715  19.521   9.609  19.079 -0.1579  0.2986  0.0283
70228POPC   C2B34716  19.184   9.781  18.801  0.2969 -0.3013  0.4172
70228POPC   C3B34717  18.913   9.783  18.395  0.0468  0.1207 -0.0249
70228POPC   C4B34718  18.698  10.009  18.026 -0.1897 -0.1965 -0.0937
70229POPC   NC334719  24.782   5.827  14.378 -0.3026  0.1506  0.0936
70229POPC   PO434720  24.908   5.418  14.259 -0.0679  0.1927 -0.1708
70229POPC   GL134721  24.788   5.502  13.886 -0.5335  0.2880 -0.0314
70229POPC   GL234722  24.997   5.515  13.639  0.0677 -0.0240 -0.3230
70229POPC   C1A34723  24.364   5.411  13.770 -0.0100 -0.0814 -0.1178
70229POPC   D2A34724  23.984   5.258  13.532  0.1105 -0.0933  0.4253
70229POPC   C3A34725  23.717   5.249  13.141  0.4933  0.0634 -0.1894
70229POPC   C4A34726  23.411   5.252  12.789 -0.3236 -0.0744  0.1194
70229POPC   C1B34727  24.633   5.720  13.464 -0.0645  0.2169  0.1755
70229POPC   C2B34728  24.169   5.755  13.299  0.1549 -0.1439 -0.0824
70229POPC   C3B34729  23.820   5.688  12.986 -0.2461 -0.1131 -0.3325
70229POPC   C4B34730  23.716   5.666  12.570 -0.0468  0.0115 -0.1237
70230POPC   NC334731  23.584  13.552  20.185  0.2049  0.1380  0.1230
70230POPC   PO434732  23.244  13.713  20.275  0.1513  0.5282  0.0195
70230POPC   GL134733  23.102  13.620  20.034  0.0041  0.0265  0.0576
70230POPC   GL234734  22.794  13.457  20.127 -0.0050  0.1331  0.1525
70230POPC   C1A34735  22.877  13.863  19.749  0.2426 -0.0981 -0.0265
70230POPC   D2A34736  22.656  13.910  19.376 -0.1808  0.0027 -0.0272
70230POPC   C3A34737  22.248  14.041  19.522  0.1429 -0.1529 -0.1946
70230POPC   C4A34738  21.882  13.990  19.800  0.2001  0.0143 -0.1692
70230POPC   C1B34739  22.704  13.336  19.691 -0.0656  0.2934 -0.0002
70230POPC   C2B34740  22.776  13.436  19.202  0.0832  0.0822 -0.1084
70230POPC   C3B34741  22.982  13.372  18.798 -0.0891  0.0017  0.2185
70230POPC   C4B34742  23.222  13.408  18.390  0.0180  0.1344  0.0058
70231POPC   NC334743  24.427  10.027  20.180 -0.1994 -0.3293 -0.1870
70231POPC   PO434744  24.512   9.682  20.007  0.3161 -0.1927 -0.0877
70231POPC   GL134745  24.607   9.803  19.580  0.1706  0.1321 -0.0965
70231POPC   GL234746  24.379   9.966  19.442  0.2760  0.0382 -0.4780
70231POPC   C1A34747  24.878   9.901  19.227  0.0731 -0.3195  0.1456
70231POPC   D2A34748  24.853  10.261  18.948 -0.1100 -0.0993  0.0441
70231POPC   C3A34749  25.114  10.493  18.647 -0.0259 -0.1772 -0.2072
70231POPC   C4A34750  25.503  10.562  18.346 -0.0155  0.0960 -0.1604
70231POPC   C1B34751  24.285  10.152  19.007  0.1852 -0.2215 -0.1539
70231POPC   C2B34752  24.203  10.325  18.606 -0.2095 -0.3232  0.1943
70231POPC   C3B34753  24.301  10.549  18.180  0.1834 -0.1172  0.0268
70231POPC   C4B34754  24.312  10.906  17.778  0.0075 -0.0399  0.1961
70232POPC   NC334755  27.914  10.205  20.670  0.0798 -0.0522 -0.0474
70232POPC   PO434756  27.673  10.381  20.381 -0.0424 -0.0531 -0.0036
70232POPC   GL134757  27.616  10.580  20.078  0.0554 -0.2527  0.0211
70232POPC   GL234758  27.328  10.677  19.998  0.0755 -0.2966 -0.0506
70232POPC   C1A34759  27.628  11.030  19.837  0.1288  0.1376 -0.2358
70232POPC   D2A34760  27.809  11.177  19.424  0.2778  0.0303 -0.0073
70232POPC   C3A34761  27.896  11.437  19.032 -0.3730 -0.0096 -0.2291
70232POPC   C4A34762  27.911  11.649  18.631 -0.0836  0.2655 -0.0243
70232POPC   C1B34763  27.311  10.588  19.520  0.0477 -0.0725 -0.1184
70232POPC   C2B34764  27.117  10.510  19.108  0.2070 -0.1741  0.1444
70232POPC   C3B34765  27.091  10.321  18.713 -0.0782 -0.0451  0.1670
70232POPC   C4B34766  26.791  10.399  18.394  0.2738  0.1504 -0.1587
70233POPC   NC334767  16.833   8.307  20.278 -0.0057  0.1321 -0.2246
70233POPC   PO434768  17.010   7.947  20.308  0.0507  0.0462  0.0024
70233POPC   GL134769  16.978   7.840  19.900  0.6366 -0.0356  0.0534
70233POPC   GL234770  17.194   7.949  19.741 -0.1053 -0.1893 -0.0672
70233POPC   C1A34771  16.748   7.987  19.494 -0.2561  0.3114  0.1072
70233POPC   D2A34772  16.655   7.819  19.095 -0.2454  0.1183  0.1245
70233POPC   C3A34773  16.691   8.166  18.750 -0.3433  0.0285 -0.0860
70233POPC   C4A34774  16.568   8.185  18.293 -0.0255 -0.2227  0.2214
70233POPC   C1B34775  17.219   7.928  19.247 -0.2967 -0.4009  0.0977
70233POPC   C2B34776  17.277   8.004  18.796 -0.1587  0.2706 -0.0879
70233POPC   C3B34777  17.010   7.852  18.423 -0.0827  0.0455 -0.1663
70233POPC   C4B34778  16.799   7.852  17.998  0.3077 -0.2058 -0.0186
70234POPC   NC334779  18.693   4.976  19.782  0.1008  0.0549  0.1847
70234POPC   PO434780  18.357   4.762  19.869 -0.2030  0.1487  0.0812
70234POPC   GL134781  18.152   4.586  19.578 -0.0500  0.3397  0.0748
70234POPC   GL234782  18.183   4.324  19.631 -0.1181 -0.0726 -0.0058
70234POPC   C1A34783  17.914   4.777  19.155  0.2867 -0.0791 -0.1226
70234POPC   D2A34784  17.878   4.773  18.663  0.1699  0.2331  0.1488
70234POPC   C3A34785  18.245   4.796  18.460  0.3702 -0.0072  0.1402
70234POPC   C4A34786  18.508   4.581  18.167  0.0919 -0.2194  0.3463
70234POPC   C1B34787  18.118   4.296  19.169 -0.0004 -0.1768  0.0841
70234POPC   C2B34788  18.091   4.312  18.692  0.0031 -0.0897 -0.0528
70234POPC   C3B34789  18.058   4.401  18.220  0.3069 -0.0001 -0.2910
70234POPC   C4B34790  18.224   4.394  17.819  0.2461  0.2138  0.0904
70235POPC   NC334791  22.989  15.986  19.911  0.1526  0.0016  0.0546
70235POPC   PO434792  23.195  16.336  19.866 -0.0315 -0.0207 -0.2080
70235POPC   GL134793  23.205  16.307  19.414  0.2632  0.0844  0.1206
70235POPC   GL234794  23.062  16.575  19.358 -0.0291  0.0630 -0.3024
70235POPC   C1A34795  23.191  16.103  18.989  0.0771  0.0456  0.2356
70235POPC   D2A34796  23.330  15.839  18.617 -0.1594 -0.2463  0.1545
70235POPC   C3A34797  23.191  15.890  18.183 -0.1943 -0.2334  0.0085
70235POPC   C4A34798  23.457  15.997  17.820  0.0921  0.3476  0.0362
70235POPC   C1B34799  22.776  16.157  19.240 -0.0845 -0.1122  0.2395
70235POPC   C2B34800  22.727  15.870  18.909 -0.1122  0.0500 -0.2251
70235POPC   C3B34801  22.784  15.628  18.515 -0.0658 -0.0470  0.1379
70235POPC   C4B34802  23.005  15.303  18.218 -0.1750  0.0019 -0.1191
70236POPC   NC334803  17.539  14.428  20.400  0.1077  0.0598 -0.0017
70236POPC   PO434804  17.948  14.358  20.337 -0.1864 -0.0013 -0.0112
70236POPC   GL134805  17.835  14.388  19.992  0.2643 -0.0777  0.3904
70236POPC   GL234806  17.549  14.416  19.900  0.0669  0.2235 -0.1382
70236POPC   C1A34807  17.885  14.535  19.547 -0.2860 -0.0949  0.0013
70236POPC   D2A34808  17.704  14.615  19.125 -0.1713  0.2783 -0.1459
70236POPC   C3A34809  17.984  14.783  18.822 -0.1734  0.0673  0.0888
70236POPC   C4A34810  18.030  14.956  18.379 -0.0629  0.2033 -0.0315
70236POPC   C1B34811  17.299  14.206  19.568  0.1300 -0.2510  0.0525
70236POPC   C2B34812  17.113  13.882  19.270 -0.1882  0.0554  0.0929
70236POPC   C3B34813  17.276  13.514  18.979 -0.2281 -0.2138  0.0770
70236POPC   C4B34814  17.312  13.271  18.576 -0.1050 -0.0288  0.0149
70237POPC   NC334815  18.585   8.312  20.564 -0.0479 -0.0622  0.0720
70237POPC   PO434816  18.841   8.179  20.294 -0.0853 -0.0547  0.0980
70237POPC   GL134817  18.800   8.043  19.878  0.1602  0.3811  0.1096
70237POPC   GL234818  18.713   7.842  19.940  0.1332  0.0543 -0.0817
70237POPC   C1A34819  18.640   8.141  19.486  0.1729  0.4036 -0.1226
70237POPC   D2A34820  18.541   8.266  19.067 -0.1274  0.0955  0.0923
70237POPC   C3A34821  18.832   8.495  18.831 -0.0463  0.2079  0.1572
70237POPC   C4A34822  18.955   8.594  18.402  0.1520 -0.0324 -0.1086
70237POPC   C1B34823  18.568   7.676  19.530 -0.0140  0.0025 -0.0486
70237POPC   C2B34824  18.601   7.741  19.114 -0.1350  0.1299 -0.1459
70237POPC   C3B34825  18.626   7.874  18.684  0.0705  0.0890  0.2279
70237POPC   C4B34826  18.537   8.288  18.464  0.1713 -0.0863 -0.1984
70238POPC   NC334827  23.486   4.053  17.528 -0.1674 -0.1445 -0.0463
70238POPC   PO434828  23.253   3.784  17.368 -0.0758 -0.2031  0.3105
70238POPC   GL134829  22.975   3.717  17.093 -0.0737  0.1228  0.0641
70238POPC   GL234830  22.777   3.578  17.283  0.1914  0.0370  0.0685
70238POPC   C1A34831  22.556   3.947  17.013  0.0742 -0.1096 -0.1030
70238POPC   D2A34832  22.128   4.160  16.827 -0.1397 -0.0548 -0.0227
70238POPC   C3A34833  22.058   4.083  16.379  0.2889 -0.0658  0.0341
70238POPC   C4A34834  22.152   4.221  15.930 -0.1397  0.1354 -0.0964
70238POPC   C1B34835  22.656   3.189  17.091  0.2328 -0.2634  0.3539
70238POPC   C2B34836  22.524   3.282  16.625  0.0586 -0.1773 -0.3589
70238POPC   C3B34837  22.423   3.175  16.218 -0.0726 -0.1585  0.3038
70238POPC   C4B34838  22.521   2.928  15.908 -0.0260 -0.2200 -0.0444
70239POPC   NC334839  21.562   1.800  19.797 -0.0870 -0.2754 -0.0347
70239POPC   PO434840  21.251   2.026  19.650 -0.0054  0.2877 -0.1596
70239POPC   GL134841  21.319   1.999  19.345  0.0121  0.0575  0.2753
70239POPC   GL234842  21.374   2.192  19.187 -0.0789  0.0853 -0.0358
70239POPC   C1A34843  21.065   1.726  19.103  0.2077  0.1952  0.1455
70239POPC   D2A34844  20.988   1.515  18.729 -0.1796  0.0372 -0.0293
70239POPC   C3A34845  20.720   1.281  18.442 -0.1463 -0.2440 -0.1182
70239POPC   C4A34846  20.315   1.044  18.418 -0.0631 -0.0867  0.2762
70239POPC   C1B34847  21.395   1.955  18.823 -0.1599  0.1548 -0.1159
70239POPC   C2B34848  21.177   1.844  18.430  0.2082 -0.1410 -0.1123
70239POPC   C3B34849  20.911   1.626  18.197  0.0309  0.1249 -0.0261
70239POPC   C4B34850  20.708   1.282  17.952  0.0475  0.0059 -0.1886
70240POPC   NC334851  17.515   5.979  19.838 -0.1968 -0.2095 -0.0621
70240POPC   PO434852  17.155   6.067  19.943 -0.0355  0.0290  0.1621
70240POPC   GL134853  17.031   6.133  19.573 -0.2938 -0.5025 -0.2104
70240POPC   GL234854  17.270   6.043  19.430 -0.0263 -0.2168 -0.1234
70240POPC   C1A34855  17.061   6.414  19.184 -0.0587 -0.2188  0.1842
70240POPC   D2A34856  16.962   6.591  18.825 -0.3129  0.1390  0.2586
70240POPC   C3A34857  17.049   6.260  18.515  0.0923  0.1382  0.2268
70240POPC   C4A34858  16.943   6.167  18.054  0.0611 -0.1573  0.0814
70240POPC   C1B34859  17.181   5.924  19.025 -0.4515  0.2108  0.0428
70240POPC   C2B34860  17.438   5.901  18.623 -0.2387 -0.1043  0.1420
70240POPC   C3B34861  17.791   5.728  18.353  0.3926 -0.0448 -0.1938
70240POPC   C4B34862  18.025   5.410  18.044 -0.0364  0.0989  0.3254
70241POPC   NC334863  23.084   1.923  18.369  0.1497  0.2970 -0.1373
70241POPC   PO434864  23.395   1.925  18.143 -0.2632 -0.4094 -0.0018
70241POPC   GL134865  23.304   1.673  17.870 -0.3292 -0.0897  0.0827
70241POPC   GL234866  23.182   1.487  17.989  0.0441  0.0804  0.2542
70241POPC   C1A34867  23.037   1.668  17.470  0.0470  0.0926  0.1635
70241POPC   D2A34868  22.968   1.751  17.065  0.1344 -0.0664  0.1524
70241POPC   C3A34869  23.223   1.942  16.704 -0.4597  0.0756  0.0400
70241POPC   C4A34870  23.118   2.104  16.277  0.0953  0.0402 -0.0404
70241POPC   C1B34871  23.288   1.188  17.615 -0.1083 -0.2066  0.1133
70241POPC   C2B34872  23.045   1.201  17.203  0.0268  0.0835  0.0548
70241POPC   C3B34873  22.715   1.289  16.882 -0.2233  0.0622 -0.1732
70241POPC   C4B34874  22.223   1.332  16.911  0.0823  0.2586  0.0331
70242POPC   NC334875  32.145   3.488  19.713  0.1406 -0.3059  0.2048
70242POPC   PO434876  32.162   3.894  19.592  0.2841  0.1480  0.2034
70242POPC   GL134877  32.408   3.692  19.374 -0.4039  0.1463  0.2330
70242POPC   GL234878  32.270   3.498  19.198  0.0236 -0.0523 -0.2041
70242POPC   C1A34879  32.744   3.905  19.099  0.1756  0.1153  0.2293
70242POPC   D2A34880  33.113   3.958  18.819 -0.0399  0.2705 -0.2497
70242POPC   C3A34881  33.040   3.776  18.368  0.2308  0.2767  0.1693
70242POPC   C4A34882  33.221   3.947  17.942  0.0009  0.3263  0.2580
70242POPC   C1B34883  32.298   3.844  18.893 -0.0686 -0.0984  0.0679
70242POPC   C2B34884  32.213   3.859  18.438  0.2494 -0.0358  0.3872
70242POPC   C3B34885  32.352   4.136  18.125  0.1680  0.0101 -0.1088
70242POPC   C4B34886  32.252   4.360  17.714  0.0572 -0.1623  0.0094
70243POPC   NC334887  23.982   4.401  16.871 -0.0394 -0.1066  0.0543
70243POPC   PO434888  23.769   4.415  16.546  0.2818 -0.3826 -0.1545
70243POPC   GL134889  23.362   4.198  16.475  0.3156  0.2383  0.2602
70243POPC   GL234890  23.463   3.929  16.577  0.0186  0.0693 -0.1142
70243POPC   C1A34891  22.960   4.020  16.456  0.2309  0.2953 -0.0185
70243POPC   D2A34892  22.575   3.813  16.596  0.0565 -0.1310  0.1786
70243POPC   C3A34893  22.319   3.682  16.244  0.1052 -0.0710 -0.1520
70243POPC   C4A34894  22.037   3.446  15.931  0.1055  0.1598  0.2305
70243POPC   C1B34895  23.304   3.811  16.095  0.0833 -0.1178  0.0352
70243POPC   C2B34896  23.055   3.673  15.737  0.0760  0.0314  0.1254
70243POPC   C3B34897  22.784   3.689  15.330  0.0104 -0.2470 -0.1164
70243POPC   C4B34898  22.479   3.847  15.026  0.1321  0.1684  0.0426
70244POPC   NC334899  32.515   6.592  19.464  0.1237 -0.1546 -0.2596
70244POPC   PO434900  32.198   6.831  19.545  0.1735 -0.0236 -0.3283
70244POPC   GL134901  32.041   6.835  19.094 -0.0030 -0.1359 -0.1426
70244POPC   GL234902  32.340   6.828  19.036  0.0089 -0.0388 -0.0141
70244POPC   C1A34903  31.912   7.224  18.850 -0.0060  0.0908  0.1510
70244POPC   D2A34904  31.967   7.692  18.813 -0.0907  0.0817  0.0033
70244POPC   C3A34905  31.652   7.958  19.014 -0.0717  0.0344  0.1723
70244POPC   C4A34906  31.339   8.279  19.060  0.0257  0.0881 -0.0308
70244POPC   C1B34907  32.281   7.001  18.612  0.0703  0.2431  0.2325
70244POPC   C2B34908  32.082   7.414  18.425 -0.1912  0.1430 -0.0317
70244POPC   C3B34909  31.871   7.510  18.065  0.0790 -0.1740  0.0302
70244POPC   C4B34910  31.840   7.759  17.658 -0.2487  0.3737  0.3601
70245POPC   NC334911  24.365   6.344  16.968 -0.3106 -0.0510  0.1157
70245POPC   PO434912  24.443   6.663  17.128  0.4298  0.4175 -0.1630
70245POPC   GL134913  24.312   7.028  17.120 -0.2125 -0.0954 -0.0289
70245POPC   GL234914  24.002   7.007  17.021  0.2315 -0.1286 -0.0695
70245POPC   C1A34915  24.449   7.195  16.686 -0.3592 -0.2332 -0.0454
70245POPC   D2A34916  24.741   7.535  16.749 -0.1473 -0.0198  0.3178
70245POPC   C3A34917  24.902   7.892  16.438 -0.0135 -0.2669  0.3298
70245POPC   C4A34918  25.111   8.287  16.243 -0.0179  0.1822  0.1662
70245POPC   C1B34919  24.057   7.467  16.814 -0.0646 -0.0030 -0.0069
70245POPC   C2B34920  23.963   7.902  16.592 -0.0041  0.2259 -0.0522
70245POPC   C3B34921  24.048   8.303  16.487 -0.1882 -0.2766  0.0694
70245POPC   C4B34922  23.969   8.758  16.634  0.1280 -0.1770  0.0555
70246POPC   NC334923  25.151  32.815  19.453  0.1519 -0.0037 -0.0313
70246POPC   PO434924  24.807  32.549  19.414 -0.0119  0.2009  0.0448
70246POPC   GL134925  24.691  32.175  19.256  0.0526 -0.0509  0.5114
70246POPC   GL234926  24.445  32.298  19.200  0.3794  0.4010 -0.2015
70246POPC   C1A34927  24.911  32.041  18.893  0.5302 -0.1095 -0.0497
70246POPC   D2A34928  25.094  31.755  18.501  0.0856 -0.3490 -0.0415
70246POPC   C3A34929  25.508  31.917  18.433 -0.1790 -0.0470  0.0861
70246POPC   C4A34930  25.945  31.817  18.314 -0.1656 -0.1610  0.0785
70246POPC   C1B34931  24.375  31.941  18.888  0.0569 -0.2614  0.2018
70246POPC   C2B34932  24.554  31.603  18.702 -0.1066 -0.3019  0.2872
70246POPC   C3B34933  24.666  31.524  18.275 -0.3303  0.1448 -0.0698
70246POPC   C4B34934  25.071  31.531  17.997 -0.1152  0.0544 -0.0601
70247POPC   NC334935  24.313   6.101  16.438 -0.0551 -0.1152  0.1328
70247POPC   PO434936  24.019   6.086  16.727  0.4533  0.3123  0.0002
70247POPC   GL134937  23.802   5.995  16.431  0.3209  0.1102  0.1265
70247POPC   GL234938  23.615   5.775  16.323  0.0464 -0.0491 -0.0710
70247POPC   C1A34939  23.633   6.166  16.014 -0.1381 -0.1111  0.0343
70247POPC   D2A34940  23.894   6.495  15.721  0.2456  0.0475  0.0756
70247POPC   C3A34941  23.964   6.540  15.294 -0.0431 -0.0180 -0.0164
70247POPC   C4A34942  24.045   6.743  14.933 -0.0505  0.1986  0.3116
70247POPC   C1B34943  23.505   5.689  15.933  0.1786  0.0747 -0.1928
70247POPC   C2B34944  23.239   5.791  15.588 -0.0256  0.0720  0.1885
70247POPC   C3B34945  23.070   6.047  15.260  0.0785  0.2210 -0.2070
70247POPC   C4B34946  22.675   6.124  15.035  0.0466 -0.1545  0.2547
70248POPC   NC334947  25.981  12.836  20.698  0.2649 -0.1211  0.1283
70248POPC   PO434948  26.044  13.000  20.370  0.0003 -0.0570 -0.0492
70248POPC   GL134949  26.228  13.089  20.043  0.0176  0.2453 -0.2724
70248POPC   GL234950  25.946  13.197  19.891  0.2596 -0.0002  0.2129
70248POPC   C1A34951  26.529  13.038  19.697 -0.1783 -0.1169 -0.2305
70248POPC   D2A34952  26.526  12.702  19.339 -0.0866  0.1311 -0.1290
70248POPC   C3A34953  26.581  12.311  19.591  0.3518  0.2668  0.0650
70248POPC   C4A34954  26.503  12.189  20.034 -0.4384  0.0533  0.1714
70248POPC   C1B34955  25.841  13.388  19.494 -0.1026 -0.1356 -0.2665
70248POPC   C2B34956  25.617  13.191  19.125  0.0897 -0.3394 -0.2008
70248POPC   C3B34957  25.713  13.280  18.673 -0.0794 -0.0772 -0.0470
70248POPC   C4B34958  25.800  13.236  18.229  0.0793 -0.0652  0.3211
70249POPC   NC334959  29.909  12.107  20.890 -0.1774 -0.1586 -0.2305
70249POPC   PO434960  29.963  12.295  20.580  0.2498 -0.3038 -0.1002
70249POPC   GL134961  30.168  12.309  20.309  0.2193 -0.2578  0.1206
70249POPC   GL234962  30.081  12.025  20.152  0.2109 -0.1683 -0.1466
70249POPC   C1A34963  29.972  12.440  19.891 -0.2080 -0.0583 -0.0061
70249POPC   D2A34964  29.974  12.333  19.469 -0.0670  0.0024 -0.0365
70249POPC   C3A34965  30.251  12.512  19.145  0.0759 -0.1603 -0.0969
70249POPC   C4A34966  30.564  12.379  18.760 -0.1354  0.0644 -0.1398
70249POPC   C1B34967  30.172  11.956  19.702  0.0741  0.0996 -0.2249
70249POPC   C2B34968  30.147  11.611  19.414  0.0839  0.0542  0.0625
70249POPC   C3B34969  30.516  11.517  19.075  0.0533  0.0094  0.1864
70249POPC   C4B34970  30.768  11.396  18.689 -0.0457 -0.2304  0.2050
70250POPC   NC334971  24.668   3.608  17.064  0.1241 -0.0605  0.0854
70250POPC   PO434972  24.308   3.536  16.968  0.1322 -0.4309 -0.2999
70250POPC   GL134973  24.133   3.204  16.729 -0.1046 -0.0227 -0.1015
70250POPC   GL234974  24.156   3.025  16.948 -0.0666 -0.0083 -0.1937
70250POPC   C1A34975  23.925   3.110  16.310 -0.1552 -0.0540  0.1182
70250POPC   D2A34976  23.906   3.007  15.880  0.0420  0.1681 -0.0576
70250POPC   C3A34977  23.541   2.799  15.744  0.0055 -0.2454  0.0815
70250POPC   C4A34978  23.281   3.011  15.419  0.1545  0.3963  0.3241
70250POPC   C1B34979  23.732   2.820  16.776 -0.0953 -0.2468 -0.0451
70250POPC   C2B34980  23.293   2.671  16.657  0.0339 -0.0701 -0.2659
70250POPC   C3B34981  22.938   2.348  16.633  0.2102 -0.0374 -0.1515
70250POPC   C4B34982  22.659   1.974  16.681 -0.0556  0.1097  0.1356
70251POPC   NC334983  18.725  10.981  20.534  0.1257  0.1151  0.2469
70251POPC   PO434984  19.099  10.818  20.514 -0.2194 -0.1010  0.0017
70251POPC   GL134985  19.050  11.075  20.203 -0.1913 -0.2446  0.5697
70251POPC   GL234986  19.321  11.067  20.150  0.2060 -0.1291  0.1711
70251POPC   C1A34987  18.919  10.962  19.739  0.1045 -0.0011  0.3881
70251POPC   D2A34988  18.609  10.718  19.510 -0.2670  0.1898 -0.2574
70251POPC   C3A34989  18.585  11.002  19.145 -0.1161  0.0873  0.0070
70251POPC   C4A34990  18.753  11.200  18.731 -0.1361 -0.2236  0.2829
70251POPC   C1B34991  19.402  10.925  19.725 -0.0291  0.1405 -0.0369
70251POPC   C2B34992  19.230  10.871  19.306  0.0237 -0.3819  0.2472
70251POPC   C3B34993  19.200  10.982  18.880 -0.2527  0.0021 -0.0209
70251POPC   C4B34994  19.167  10.978  18.398  0.3028  0.0751 -0.0123
70252POPC   NC334995  25.585   6.275  15.487  0.0181  0.0179  0.0552
70252POPC   PO434996  25.857   6.457  15.657 -0.0114 -0.2861  0.1446
70252POPC   GL134997  25.870   6.877  15.615 -0.1332 -0.2038  0.1958
70252POPC   GL234998  25.588   6.943  15.522 -0.0438  0.1828 -0.0477
70252POPC   C1A34999  25.973   7.107  15.218 -0.2767 -0.0545 -0.3187
70252POPC   D2A35000  25.682   7.338  14.970 -0.0499 -0.0504  0.0442
70252POPC   C3A35001  25.791   7.692  14.690  0.0810  0.0590 -0.2978
70252POPC   C4A35002  26.032   8.143  14.646  0.0216  0.0022 -0.1214
70252POPC   C1B35003  25.515   7.351  15.428  0.5225  0.0964 -0.1790
70252POPC   C2B35004  25.258   7.677  15.229  0.4131 -0.0738  0.0352
70252POPC   C3B35005  25.169   8.023  14.981  0.1006  0.1298  0.2703
70252POPC   C4B35006  25.212   8.455  14.774  0.0161  0.0282 -0.0364
70253POPC   NC335007  29.983   3.103  18.984 -0.1361 -0.2489  0.1171
70253POPC   PO435008  30.066   3.085  19.376  0.2690  0.0271 -0.1555
70253POPC   GL135009  30.353   2.813  19.042  0.3283 -0.1359 -0.1705
70253POPC   GL235010  30.191   2.615  18.938  0.1207 -0.0545  0.1453
70253POPC   C1A35011  30.622   2.999  18.692  0.0240 -0.2750 -0.0309
70253POPC   D2A35012  30.962   3.182  18.412 -0.0444  0.3415  0.2637
70253POPC   C3A35013  30.950   3.243  17.899 -0.0439  0.0386 -0.2741
70253POPC   C4A35014  31.097   3.178  17.486  0.1504 -0.0747 -0.3348
70253POPC   C1B35015  30.168   2.716  18.474 -0.0100  0.1054 -0.1084
70253POPC   C2B35016  30.555   2.740  18.245  0.1825  0.0599  0.0734
70253POPC   C3B35017  30.771   2.751  17.795  0.2834  0.4172 -0.0085
70253POPC   C4B35018  30.975   2.737  17.395 -0.0999  0.1711 -0.0639
70254POPC   NC335019  21.251  13.465  20.516 -0.2053 -0.0389 -0.0615
70254POPC   PO435020  21.486  13.153  20.556 -0.2382 -0.1016  0.0705
70254POPC   GL135021  21.578  13.225  20.197 -0.0668  0.1360  0.0971
70254POPC   GL235022  21.839  13.381  20.255  0.2283  0.0392  0.3326
70254POPC   C1A35023  21.158  13.311  19.977 -0.4349 -0.1754  0.4332
70254POPC   D2A35024  20.872  13.095  19.671 -0.5686  0.2736  0.1832
70254POPC   C3A35025  20.955  13.012  19.171  0.0824  0.0354 -0.0759
70254POPC   C4A35026  21.044  13.095  18.742 -0.0929  0.1095 -0.1309
70254POPC   C1B35027  21.904  13.296  19.771 -0.3052  0.0001 -0.2728
70254POPC   C2B35028  21.769  12.942  19.486 -0.1779 -0.2292  0.2376
70254POPC   C3B35029  22.063  12.550  19.280  0.4892 -0.1074  0.3981
70254POPC   C4B35030  22.095  12.070  19.362  0.3116 -0.1467 -0.1796
70255POPC   NC335031  22.120  12.593  20.882  0.1154 -0.0271 -0.1016
70255POPC   PO435032  22.188  12.228  20.755 -0.1110 -0.0183 -0.0987
70255POPC   GL135033  22.202  12.132  20.347  0.0602 -0.3199 -0.2288
70255POPC   GL235034  22.425  12.079  20.098 -0.1063 -0.2641 -0.1656
70255POPC   C1A35035  21.944  12.214  20.021  0.2728 -0.0685  0.1754
70255POPC   D2A35036  21.689  12.445  19.687 -0.4242  0.2751  0.0247
70255POPC   C3A35037  21.244  12.411  19.896  0.1309  0.0227  0.2350
70255POPC   C4A35038  20.976  12.740  19.964  0.0214  0.0856 -0.1494
70255POPC   C1B35039  22.423  12.259  19.695 -0.1302  0.2409 -0.1095
70255POPC   C2B35040  22.522  12.483  19.304  0.1962  0.2411 -0.1338
70255POPC   C3B35041  22.353  12.605  18.879  0.0099 -0.0935  0.1895
70255POPC   C4B35042  21.951  12.536  18.652  0.0735 -0.0282  0.0517
70256POPC   NC335043  20.281   5.628  19.034 -0.1026  0.3270  0.0983
70256POPC   PO435044  20.080   5.861  19.255  0.2071  0.1305  0.3601
70256POPC   GL135045  19.828   5.781  18.868 -0.1494 -0.1375 -0.0984
70256POPC   GL235046  19.559   5.615  18.757  0.4327 -0.1083 -0.0585
70256POPC   C1A35047  19.683   5.939  18.438  0.1825 -0.0479 -0.0470
70256POPC   D2A35048  19.765   6.344  18.160 -0.2363 -0.0222  0.0820
70256POPC   C3A35049  19.459   6.501  17.823  0.1435 -0.1753  0.5437
70256POPC   C4A35050  19.057   6.617  17.632  0.0453 -0.0262  0.0650
70256POPC   C1B35051  19.314   5.674  18.341  0.1786 -0.2137  0.0793
70256POPC   C2B35052  19.419   5.981  17.986  0.3285 -0.0052  0.3065
70256POPC   C3B35053  19.219   6.094  17.587  0.0711 -0.2522  0.0057
70256POPC   C4B35054  19.304   6.334  17.196  0.0474 -0.0003  0.3394
70257POPC   NC335055  26.929   7.637  18.486  0.1253 -0.1177 -0.1256
70257POPC   PO435056  26.633   7.731  18.727  0.0773 -0.0040  0.4994
70257POPC   GL135057  26.574   7.939  18.405  0.2660 -0.3355  0.1986
70257POPC   GL235058  26.489   8.238  18.451  0.1789 -0.3061  0.3153
70257POPC   C1A35059  26.641   8.098  17.988  0.0425  0.2295  0.2600
70257POPC   D2A35060  26.962   8.068  17.677  0.1484 -0.1262 -0.0558
70257POPC   C3A35061  27.330   8.401  17.491  0.1433  0.0911 -0.1746
70257POPC   C4A35062  27.668   8.455  17.152  0.2292 -0.0914 -0.1369
70257POPC   C1B35063  26.368   8.498  18.068 -0.1099 -0.1343  0.0984
70257POPC   C2B35064  26.415   8.975  18.034  0.1441  0.0410  0.2846
70257POPC   C3B35065  26.221   9.283  17.716 -0.0160  0.0599  0.0860
70257POPC   C4B35066  26.283   9.707  17.490  0.2105  0.2374 -0.1015
70258POPC   NC335067  28.075   9.672  19.892 -0.2121  0.4153  0.0446
70258POPC   PO435068  28.122   9.342  19.671  0.0226  0.2043 -0.0848
70258POPC   GL135069  28.253   9.705  19.342 -0.0856  0.5997  0.0356
70258POPC   GL235070  28.425   9.532  19.121 -0.0002 -0.4019 -0.1541
70258POPC   C1A35071  28.103   9.985  19.024 -0.0702 -0.0402 -0.0420
70258POPC   D2A35072  27.924  10.410  18.881 -0.1622 -0.0700  0.0295
70258POPC   C3A35073  27.543  10.545  18.733 -0.3204 -0.3964 -0.0413
70258POPC   C4A35074  27.192  10.890  18.686 -0.0217 -0.1649 -0.0681
70258POPC   C1B35075  28.471   9.757  18.723  0.2259  0.0980 -0.0050
70258POPC   C2B35076  28.650   9.997  18.355  0.2176  0.0722  0.0462
70258POPC   C3B35077  28.426  10.028  17.934  0.0137 -0.1929 -0.1088
70258POPC   C4B35078  28.349   9.909  17.434 -0.0487 -0.3547  0.1028
70259POPC   NC335079  26.297   6.358  15.641 -0.0318  0.1481  0.0409
70259POPC   PO435080  26.443   6.153  15.975  0.0831 -0.0536  0.1679
70259POPC   GL135081  26.515   6.494  16.010 -0.3420  0.2008 -0.0557
70259POPC   GL235082  26.455   6.740  15.988  0.1824 -0.1642  0.0387
70259POPC   C1A35083  26.971   6.670  16.049  0.0792  0.2078  0.0452
70259POPC   D2A35084  27.440   6.626  16.231  0.1591 -0.3430 -0.1445
70259POPC   C3A35085  27.645   7.026  16.160 -0.4241  0.1557  0.0835
70259POPC   C4A35086  28.073   7.119  16.068 -0.4253 -0.1741  0.1279
70259POPC   C1B35087  26.738   7.055  15.828  0.0553  0.3818 -0.1614
70259POPC   C2B35088  26.736   7.336  15.444  0.0169  0.3346 -0.3881
70259POPC   C3B35089  26.633   7.364  14.984 -0.0366  0.3228 -0.1603
70259POPC   C4B35090  26.900   7.719  14.760  0.2447 -0.0626  0.0409
70260POPC   NC335091  27.053   5.468  12.676  0.1455  0.1808 -0.2014
70260POPC   PO435092  27.002   5.844  12.570 -0.2181  0.2763  0.0114
70260POPC   GL135093  27.438   5.879  12.443 -0.0410 -0.2197  0.1287
70260POPC   GL235094  27.462   6.149  12.498 -0.0549 -0.2565  0.1139
70260POPC   C1A35095  27.903   5.813  12.326 -0.1566 -0.1073  0.3756
70260POPC   D2A35096  28.280   6.055  12.273 -0.1561 -0.1474 -0.0145
70260POPC   C3A35097  28.163   6.469  12.022  0.0810  0.0746  0.1719
70260POPC   C4A35098  27.940   6.875  11.986 -0.1262  0.1746 -0.3831
70260POPC   C1B35099  27.334   6.639  12.474  0.2887 -0.0587 -0.0903
70260POPC   C2B35100  27.492   7.046  12.294  0.0370  0.2819 -0.0161
70260POPC   C3B35101  27.450   7.328  12.003 -0.2061 -0.0392 -0.0435
70260POPC   C4B35102  27.272   7.685  11.780 -0.2493  0.1329  0.1433
70261POPC   NC335103  22.748   5.058  17.270  0.0036  0.0503  0.2248
70261POPC   PO435104  22.884   5.270  17.588  0.1011  0.0388 -0.2816
70261POPC   GL135105  22.530   5.386  17.601 -0.2248  0.0418 -0.2349
70261POPC   GL235106  22.519   5.689  17.520 -0.0809 -0.0386 -0.1024
70261POPC   C1A35107  22.048   5.439  17.396 -0.0968  0.2457 -0.0048
70261POPC   D2A35108  21.866   5.337  16.951  0.2745 -0.1647  0.1326
70261POPC   C3A35109  22.139   5.579  16.651  0.0764 -0.0929 -0.0405
70261POPC   C4A35110  22.183   5.943  16.352  0.1561 -0.1905  0.2477
70261POPC   C1B35111  22.436   5.833  17.077  0.2353 -0.0041  0.1489
70261POPC   C2B35112  22.690   5.830  16.684 -0.2234 -0.2697  0.1878
70261POPC   C3B35113  22.704   5.951  16.278 -0.3572 -0.0822 -0.1007
70261POPC   C4B35114  22.733   5.931  15.811  0.1498 -0.0945  0.0128
70262POPC   NC335115  24.097  15.872  20.176 -0.0073 -0.0264 -0.0164
70262POPC   PO435116  24.341  15.894  19.832 -0.0780 -0.1121  0.0546
70262POPC   GL135117  24.487  15.640  19.487  0.2281 -0.0621 -0.2067
70262POPC   GL235118  24.353  15.849  19.348 -0.1291  0.0265  0.1577
70262POPC   C1A35119  24.412  15.203  19.556 -0.2130  0.3239 -0.0145
70262POPC   D2A35120  24.214  14.893  19.339  0.0224 -0.0523 -0.1870
70262POPC   C3A35121  23.775  14.919  19.230  0.0424 -0.4690  0.1866
70262POPC   C4A35122  23.555  15.214  19.503 -0.1507  0.4439  0.1222
70262POPC   C1B35123  24.265  15.813  18.929  0.2179  0.0163  0.0585
70262POPC   C2B35124  24.313  15.491  18.664 -0.1432 -0.0343 -0.3516
70262POPC   C3B35125  24.536  15.285  18.376  0.2551 -0.1512  0.1425
70262POPC   C4B35126  24.498  14.838  18.198 -0.0337 -0.0339 -0.0656
70263POPC   NC335127  32.713   5.333  19.732  0.2537  0.0865 -0.1609
70263POPC   PO435128  32.550   5.623  19.527 -0.0863 -0.0794 -0.1147
70263POPC   GL135129  32.791   5.559  19.246 -0.1549 -0.1716 -0.0657
70263POPC   GL235130  32.600   5.573  19.058 -0.3665 -0.0608 -0.2611
70263POPC   C1A35131  33.072   5.911  19.073 -0.0542  0.1305 -0.0447
70263POPC   D2A35132  33.147   6.197  18.766  0.0648 -0.1523  0.0875
70263POPC   C3A35133  33.298   6.318  18.298 -0.2738  0.0222 -0.1234
70263POPC   C4A35134  33.498   6.495  17.958 -0.0804 -0.0618  0.0485
70263POPC   C1B35135  32.785   5.520  18.637  0.0218 -0.0730  0.0310
70263POPC   C2B35136  32.910   5.278  18.294 -0.2447  0.0214  0.0129
70263POPC   C3B35137  32.608   5.162  17.933  0.0146 -0.0989  0.0320
70263POPC   C4B35138  32.475   5.143  17.455  0.2140  0.0611 -0.1084
70264POPC   NC335139  27.290   4.371  14.250  0.0715 -0.3384 -0.2145
70264POPC   PO435140  27.254   4.699  14.473 -0.0664  0.3077  0.2763
70264POPC   GL135141  27.660   4.769  14.652  0.0978  0.1204  0.1130
70264POPC   GL235142  27.761   4.481  14.735 -0.1809  0.0206 -0.0709
70264POPC   C1A35143  28.090   4.829  14.503  0.0625  0.3393  0.1441
70264POPC   D2A35144  28.502   4.992  14.611 -0.1353 -0.2069  0.1158
70264POPC   C3A35145  28.542   5.307  14.931  0.0816  0.2993 -0.0038
70264POPC   C4A35146  28.366   5.698  15.113 -0.0828  0.3377  0.2950
70264POPC   C1B35147  27.953   4.352  14.303 -0.0323  0.2788 -0.0813
70264POPC   C2B35148  27.766   4.363  13.872  0.1235 -0.1864  0.1706
70264POPC   C3B35149  27.816   4.393  13.404 -0.2005 -0.1487  0.2577
70264POPC   C4B35150  27.973   4.448  12.981  0.0105  0.0118 -0.1691
70265POPC   NC335151  23.045  12.069  20.090  0.1469  0.1542 -0.2015
70265POPC   PO435152  23.435  12.102  20.194  0.0072  0.0523  0.2152
70265POPC   GL135153  23.386  12.205  19.801 -0.1546 -0.4639 -0.0264
70265POPC   GL235154  23.561  12.037  19.634 -0.1083  0.1529 -0.1686
70265POPC   C1A35155  23.402  12.475  19.423 -0.1756  0.0037  0.2122
70265POPC   D2A35156  23.281  12.651  19.082  0.0326  0.2200  0.1261
70265POPC   C3A35157  22.946  12.466  18.793  0.0304 -0.3861  0.0649
70265POPC   C4A35158  22.679  12.464  18.434  0.5086 -0.1419 -0.3031
70265POPC   C1B35159  23.863  12.002  19.251 -0.1663  0.2170 -0.0998
70265POPC   C2B35160  24.233  12.050  19.071 -0.0816  0.1034  0.1380
70265POPC   C3B35161  24.674  12.143  18.891  0.0878  0.1984 -0.1481
70265POPC   C4B35162  24.882  11.908  18.587 -0.2794  0.0509  0.2740
70266POPC   NC335163  19.262  15.412  20.609 -0.2056 -0.0354 -0.2648
70266POPC   PO435164  19.230  15.014  20.537  0.1546 -0.0440 -0.2322
70266POPC   GL135165  19.227  14.907  20.202  0.1702  0.1203  0.0415
70266POPC   GL235166  19.057  14.769  20.007  0.1090 -0.0111  0.1910
70266POPC   C1A35167  19.561  14.852  19.824 -0.2752 -0.3310 -0.1421
70266POPC   D2A35168  19.904  14.632  19.630 -0.1940 -0.1510  0.1453
70266POPC   C3A35169  20.205  14.797  19.285 -0.0318 -0.1415  0.0137
70266POPC   C4A35170  20.312  14.655  18.833 -0.0948 -0.2163  0.2381
70266POPC   C1B35171  19.062  14.604  19.606  0.0363 -0.2591 -0.2452
70266POPC   C2B35172  18.941  14.544  19.205  0.2039 -0.1587 -0.2280
70266POPC   C3B35173  18.640  14.437  18.897  0.2093  0.1552  0.0574
70266POPC   C4B35174  18.354  14.599  18.595 -0.1006 -0.1771 -0.1351
70267POPC   NC335175  28.075  12.472  20.641 -0.0466  0.2598  0.0920
70267POPC   PO435176  27.696  12.473  20.650 -0.2515 -0.0225  0.4017
70267POPC   GL135177  27.846  12.614  20.180  0.0529 -0.0303  0.1995
70267POPC   GL235178  27.878  12.787  20.300 -0.1167  0.1664  0.1529
70267POPC   C1A35179  27.571  12.795  19.880 -0.2980 -0.1914 -0.2345
70267POPC   D2A35180  27.301  12.970  19.538 -0.0298 -0.1109  0.0257
70267POPC   C3A35181  27.178  12.932  19.093 -0.2435  0.2669  0.1505
70267POPC   C4A35182  27.135  12.667  18.724 -0.4905 -0.1832 -0.1540
70267POPC   C1B35183  28.121  12.891  19.878  0.3167  0.1313  0.0635
70267POPC   C2B35184  28.081  12.503  19.629  0.3382 -0.1671  0.1503
70267POPC   C3B35185  28.001  12.281  19.185 -0.2533 -0.0518  0.3332
70267POPC   C4B35186  27.759  11.900  19.113 -0.0010 -0.1258  0.0853
70268POPC   NC335187  28.271   0.132  19.868 -0.0553 -0.3228  0.2940
70268POPC   PO435188  27.996   0.256  19.668 -0.0426  0.3392  0.1586
70268POPC   GL135189  28.162   0.134  19.338 -0.0477  0.2546 -0.0863
70268POPC   GL235190  28.055  -0.121  19.273 -0.0079 -0.0951 -0.3361
70268POPC   C1A35191  28.196   0.131  18.854  0.0136 -0.0478  0.0080
70268POPC   D2A35192  28.315   0.075  18.425  0.3972 -0.2328 -0.0350
70268POPC   C3A35193  28.550   0.238  18.051 -0.0178 -0.0069 -0.0501
70268POPC   C4A35194  28.746   0.065  17.686  0.1258 -0.3869 -0.3882
70268POPC   C1B35195  27.900  -0.296  18.880 -0.1300 -0.0157  0.2490
70268POPC   C2B35196  27.942  -0.324  18.429 -0.0048  0.2455 -0.0642
70268POPC   C3B35197  28.059  -0.376  17.989  0.0443  0.0780 -0.2287
70268POPC   C4B35198  28.235  -0.123  17.667 -0.0976 -0.1212 -0.2464
70269POPC   NC335199  22.080   5.789  18.535  0.0998  0.0962  0.1234
70269POPC   PO435200  22.077   6.151  18.661  0.2039  0.1504 -0.0164
70269POPC   GL135201  21.688   6.260  18.437  0.2474  0.4126 -0.2548
70269POPC   GL235202  21.604   5.956  18.386 -0.0756 -0.2034 -0.4200
70269POPC   C1A35203  21.566   6.355  17.985 -0.1283 -0.0413 -0.2095
70269POPC   D2A35204  21.570   6.654  17.636  0.2131  0.0892 -0.0271
70269POPC   C3A35205  21.575   6.491  17.242 -0.3065  0.0209 -0.1009
70269POPC   C4A35206  21.320   6.167  17.045  0.0721 -0.2804 -0.1023
70269POPC   C1B35207  21.600   5.709  17.993  0.0480 -0.1903  0.2502
70269POPC   C2B35208  21.521   5.695  17.488  0.0966 -0.1191  0.0221
70269POPC   C3B35209  21.318   5.666  17.068 -0.1940  0.0413 -0.0795
70269POPC   C4B35210  20.875   5.571  16.994  0.0697  0.0567 -0.0788
70270POPC   NC335211  27.796  13.324  20.375 -0.3643  0.1095 -0.3007
70270POPC   PO435212  28.069  13.576  20.334 -0.1232 -0.4009 -0.0647
70270POPC   GL135213  28.366  13.489  20.001 -0.1050  0.1303 -0.2539
70270POPC   GL235214  28.617  13.651  19.904 -0.3570 -0.1314 -0.2014
70270POPC   C1A35215  28.305  13.264  19.596 -0.4354 -0.0451  0.1027
70270POPC   D2A35216  28.423  13.271  19.147  0.1436  0.1407  0.3029
70270POPC   C3A35217  28.843  13.065  19.015  0.0405  0.0378  0.1228
70270POPC   C4A35218  29.191  13.021  18.682  0.1880  0.1051 -0.0801
70270POPC   C1B35219  28.645  13.641  19.451  0.0210 -0.2043 -0.0271
70270POPC   C2B35220  28.804  13.596  19.103  0.0439  0.0568  0.1775
70270POPC   C3B35221  28.874  13.429  18.665 -0.0813  0.1939  0.0701
70270POPC   C4B35222  28.650  13.469  18.273  0.4188  0.0841  0.0398
70271POPC   NC335223  25.951   6.850  17.863  0.0332  0.2763 -0.0778
70271POPC   PO435224  25.674   7.126  17.714  0.3819  0.0860  0.0886
70271POPC   GL135225  25.704   7.542  17.591  0.1460  0.1499  0.0473
70271POPC   GL235226  26.011   7.595  17.732  0.2778 -0.1959 -0.0433
70271POPC   C1A35227  25.855   7.870  17.275 -0.1907 -0.0297 -0.1259
70271POPC   D2A35228  26.003   8.331  17.314  0.3373 -0.1420  0.2583
70271POPC   C3A35229  26.122   8.598  16.973 -0.1752 -0.1326  0.1430
70271POPC   C4A35230  26.016   8.830  16.541 -0.2245 -0.1633  0.0177
70271POPC   C1B35231  26.223   8.030  17.610 -0.2347 -0.2280 -0.2239
70271POPC   C2B35232  26.375   8.493  17.587  0.1562 -0.0982 -0.2181
70271POPC   C3B35233  26.465   8.922  17.326  0.0209 -0.0403  0.0641
70271POPC   C4B35234  26.266   9.322  17.106 -0.0356  0.1852  0.0834
70272POPC   NC335235  24.212   6.177  15.895 -0.1930 -0.0232 -0.1558
70272POPC   PO435236  24.557   6.006  16.046 -0.1989  0.1902 -0.2656
70272POPC   GL135237  24.655   6.349  15.864  0.1142  0.2337  0.3527
70272POPC   GL235238  24.655   6.259  15.635  0.0791 -0.2437  0.1515
70272POPC   C1A35239  24.405   6.735  15.946  0.4453  0.2866 -0.0180
70272POPC   D2A35240  24.049   6.959  15.904 -0.1423  0.6063  0.0908
70272POPC   C3A35241  24.143   7.422  15.902 -0.3556 -0.0144 -0.2144
70272POPC   C4A35242  23.871   7.773  15.735 -0.0072 -0.0800 -0.1880
70272POPC   C1B35243  24.444   6.595  15.430  0.0341  0.0897  0.3175
70272POPC   C2B35244  24.299   7.017  15.424 -0.1318  0.0397 -0.0614
70272POPC   C3B35245  24.250   7.469  15.420 -0.0717  0.1689  0.0710
70272POPC   C4B35246  24.384   7.913  15.412 -0.1083  0.1704  0.1245
70273POPC   NC335247  29.055   3.185  18.170 -0.1537 -0.2110 -0.0230
70273POPC   PO435248  28.698   3.187  18.303 -0.0233 -0.2292 -0.2381
70273POPC   GL135249  28.716   3.347  17.846  0.1566  0.0443 -0.3721
70273POPC   GL235250  28.577   3.157  17.667  0.0245  0.0466  0.0159
70273POPC   C1A35251  29.025   3.090  17.613  0.0240  0.0367  0.2058
70273POPC   D2A35252  29.077   2.865  17.180 -0.1820 -0.0698  0.1115
70273POPC   C3A35253  28.838   2.929  16.800 -0.2491 -0.0661 -0.0325
70273POPC   C4A35254  28.930   2.825  16.385 -0.0973 -0.3229  0.0692
70273POPC   C1B35255  28.524   2.875  17.279  0.1980 -0.0013 -0.1699
70273POPC   C2B35256  28.720   2.477  17.127  0.0588 -0.0496 -0.0323
70273POPC   C3B35257  28.866   2.433  16.697  0.0333 -0.2713  0.0835
70273POPC   C4B35258  29.070   2.180  16.382  0.1534 -0.3752  0.1420
70274POPC   NC335259  24.645  14.971  20.110  0.1273 -0.1191 -0.1221
70274POPC   PO435260  24.921  14.736  20.109 -0.0265 -0.2999 -0.1894
70274POPC   GL135261  25.002  14.715  19.779 -0.0255  0.2029  0.1427
70274POPC   GL235262  24.947  14.489  19.597 -0.2457  0.2654  0.1746
70274POPC   C1A35263  24.899  15.030  19.412  0.0856  0.0230 -0.0006
70274POPC   D2A35264  25.081  15.097  18.987  0.0685 -0.0626 -0.0165
70274POPC   C3A35265  24.982  15.008  18.549 -0.1576  0.1884  0.0445
70274POPC   C4A35266  25.170  14.759  18.205  0.0298  0.1299 -0.4249
70274POPC   C1B35267  25.089  14.596  19.137  0.1330  0.2038 -0.2532
70274POPC   C2B35268  25.092  14.558  18.676  0.0770  0.2919  0.1312
70274POPC   C3B35269  24.818  14.374  18.304 -0.0246 -0.1631 -0.0116
70274POPC   C4B35270  24.889  14.506  17.883  0.0129  0.1084 -0.1469
70275POPC   NC335271  24.715  13.118  20.457  0.1772 -0.2148 -0.0694
70275POPC   PO435272  24.426  13.341  20.334 -0.3968  0.2925 -0.1606
70275POPC   GL135273  24.455  13.396  19.946  0.1589 -0.1293  0.2362
70275POPC   GL235274  24.346  13.575  19.833  0.0652  0.0077 -0.1215
70275POPC   C1A35275  24.713  13.373  19.537 -0.0123 -0.0521  0.1983
70275POPC   D2A35276  24.951  13.289  19.166  0.1358  0.3334 -0.0461
70275POPC   C3A35277  24.792  13.166  18.765  0.1868  0.1187  0.2668
70275POPC   C4A35278  24.720  13.355  18.340 -0.1460  0.1169 -0.1242
70275POPC   C1B35279  24.138  13.436  19.463  0.3536 -0.2151 -0.0794
70275POPC   C2B35280  23.905  13.135  19.153 -0.1452 -0.0787 -0.0786
70275POPC   C3B35281  23.760  12.987  18.726 -0.0810 -0.2372 -0.2625
70275POPC   C4B35282  23.980  12.976  18.303 -0.0424  0.0218 -0.1354
70276POPC   NC335283  18.022  14.864  20.711 -0.2636 -0.0433  0.2969
70276POPC   PO435284  18.151  15.165  20.505  0.1393  0.1757  0.1364
70276POPC   GL135285  18.157  15.204  20.136 -0.2084  0.1969  0.2868
70276POPC   GL235286  18.017  15.503  20.108  0.3029 -0.2198  0.1760
70276POPC   C1A35287  18.522  15.274  19.833  0.2775  0.1802 -0.3084
70276POPC   D2A35288  18.555  15.449  19.436  0.2410  0.2490  0.3683
70276POPC   C3A35289  18.964  15.438  19.202 -0.1881  0.0399  0.0334
70276POPC   C4A35290  19.302  15.450  18.849 -0.0949 -0.0112 -0.1799
70276POPC   C1B35291  18.043  15.332  19.598  0.1679 -0.0364  0.2178
70276POPC   C2B35292  18.120  15.284  19.163 -0.0061 -0.0676 -0.0784
70276POPC   C3B35293  18.044  15.428  18.749 -0.0311 -0.4462  0.2690
70276POPC   C4B35294  18.162  15.595  18.293 -0.1475 -0.0625 -0.1924
70277POPC   NC335295  18.792   1.498  19.877 -0.2013 -0.1687  0.1505
70277POPC   PO435296  18.648   1.855  20.031  0.0217 -0.0426 -0.1717
70277POPC   GL135297  18.427   1.791  19.795  0.2243 -0.0183 -0.1670
70277POPC   GL235298  18.202   1.876  19.638  0.3031 -0.0678 -0.0193
70277POPC   C1A35299  18.624   1.868  19.379 -0.1783  0.0704  0.1428
70277POPC   D2A35300  18.695   1.670  18.914  0.2623 -0.2891 -0.2229
70277POPC   C3A35301  18.550   1.723  18.479 -0.0009  0.3049 -0.0121
70277POPC   C4A35302  18.616   1.418  18.130 -0.1563 -0.0760  0.1137
70277POPC   C1B35303  18.205   2.134  19.287 -0.3964  0.1682  0.1361
70277POPC   C2B35304  18.232   2.209  18.841  0.0096 -0.0593  0.0309
70277POPC   C3B35305  18.504   2.219  18.497  0.2138  0.2645 -0.0398
70277POPC   C4B35306  18.897   2.506  18.520 -0.0613  0.2578 -0.0023
70278POPC   NC335307  27.350  13.380  20.616 -0.1010 -0.0817  0.1837
70278POPC   PO435308  27.427  13.010  20.535  0.1148 -0.4412  0.1827
70278POPC   GL135309  27.202  12.984  20.221  0.1407 -0.3747 -0.0035
70278POPC   GL235310  27.390  13.246  20.119  0.1009  0.3572  0.2198
70278POPC   C1A35311  27.015  13.231  19.851  0.2151  0.1821  0.0625
70278POPC   D2A35312  26.841  13.210  19.393 -0.1268  0.2581  0.0395
70278POPC   C3A35313  26.655  13.033  19.013 -0.1350  0.1859  0.0079
70278POPC   C4A35314  26.489  12.729  18.706 -0.3396 -0.2054 -0.2206
70278POPC   C1B35315  27.710  13.263  19.759  0.0619 -0.2085  0.0008
70278POPC   C2B35316  27.905  13.090  19.358 -0.0001  0.0870  0.1667
70278POPC   C3B35317  28.074  12.991  18.949 -0.0689 -0.0306  0.1273
70278POPC   C4B35318  28.055  12.587  18.791  0.0440  0.0888 -0.1833
70279POPC   NC335319  26.230   2.871  17.104  0.1763  0.0546 -0.1176
70279POPC   PO435320  26.611   2.986  17.162 -0.0372 -0.0308  0.0980
70279POPC   GL135321  26.789   2.843  16.886 -0.1529  0.1484 -0.1610
70279POPC   GL235322  26.854   2.538  17.040  0.2516  0.0690  0.1673
70279POPC   C1A35323  27.051   3.044  16.540  0.0406 -0.2515  0.3137
70279POPC   D2A35324  27.257   2.989  16.181 -0.0022  0.0320  0.0894
70279POPC   C3A35325  26.986   3.145  15.838 -0.4415 -0.4690 -0.2289
70279POPC   C4A35326  26.926   2.998  15.374  0.2762  0.2424  0.5022
70279POPC   C1B35327  27.169   2.193  16.968  0.1168 -0.3006  0.1372
70279POPC   C2B35328  27.386   1.921  16.655  0.2229  0.0942 -0.1483
70279POPC   C3B35329  27.555   1.717  16.291 -0.0162 -0.2236 -0.1192
70279POPC   C4B35330  27.783   1.462  15.938 -0.0820  0.2533 -0.0859
70280POPC   NC335331  23.635  16.295  19.370  0.2339 -0.0682  0.1203
70280POPC   PO435332  23.995  16.453  19.474  0.0327  0.1357 -0.0556
70280POPC   GL135333  24.062  16.226  19.125  0.0058  0.4961  0.0404
70280POPC   GL235334  24.190  16.384  18.864  0.0228 -0.3072 -0.0871
70280POPC   C1A35335  23.736  16.245  18.782 -0.1390  0.1507  0.0980
70280POPC   D2A35336  23.392  16.403  18.496  0.0098  0.0901  0.0185
70280POPC   C3A35337  23.270  16.406  18.046 -0.0208  0.0815 -0.1135
70280POPC   C4A35338  22.959  16.207  17.694 -0.0850  0.0547 -0.2521
70280POPC   C1B35339  24.142  16.279  18.500 -0.1917 -0.0677  0.1149
70280POPC   C2B35340  24.285  16.249  18.101 -0.1521  0.2378 -0.0545
70280POPC   C3B35341  24.478  16.124  17.720 -0.2202 -0.1520 -0.2195
70280POPC   C4B35342  24.861  15.981  17.558 -0.1612  0.0433  0.1045
70281POPC   NC335343  17.556   3.139  19.631 -0.3096  0.0184  0.3101
70281POPC   PO435344  17.607   3.525  19.651 -0.1083 -0.4039 -0.2018
70281POPC   GL135345  17.534   3.494  19.217 -0.3480 -0.2077 -0.0604
70281POPC   GL235346  17.360   3.178  19.172 -0.0800 -0.1130  0.1364
70281POPC   C1A35347  17.757   3.436  18.812  0.2326  0.0955  0.0027
70281POPC   D2A35348  18.033   3.310  18.434  0.1562 -0.1463  0.3713
70281POPC   C3A35349  17.918   2.840  18.195 -0.4023 -0.1064 -0.0661
70281POPC   C4A35350  17.680   2.469  18.060  0.1607  0.2040 -0.1133
70281POPC   C1B35351  17.244   3.216  18.744 -0.1362  0.2419 -0.0282
70281POPC   C2B35352  17.106   3.307  18.284 -0.1653 -0.0523  0.0806
70281POPC   C3B35353  16.853   3.360  17.974 -0.0418 -0.3126 -0.1416
70281POPC   C4B35354  16.545   3.331  17.554  0.2695  0.3341  0.0062
70282POPC   NC335355  19.368   0.179  20.042 -0.0472  0.0034 -0.0803
70282POPC   PO435356  19.036   0.283  20.230 -0.3455  0.0985 -0.0743
70282POPC   GL135357  18.946   0.062  19.831 -0.2993 -0.2985 -0.0356
70282POPC   GL235358  18.744  -0.107  19.878 -0.0257 -0.2300 -0.1701
70282POPC   C1A35359  19.032   0.205  19.411  0.4322 -0.0705  0.1108
70282POPC   D2A35360  19.315   0.002  19.035  0.3606  0.2909  0.1913
70282POPC   C3A35361  19.763  -0.078  18.926  0.0511 -0.3309 -0.1194
70282POPC   C4A35362  20.141  -0.136  18.688  0.1068  0.0881  0.2143
70282POPC   C1B35363  18.562  -0.368  19.529 -0.1036 -0.1052  0.0839
70282POPC   C2B35364  18.276  -0.629  19.326  0.2425  0.0687  0.0002
70282POPC   C3B35365  18.199  -0.709  18.830 -0.2414 -0.3171 -0.1765
70282POPC   C4B35366  17.958  -0.843  18.443  0.0828 -0.0292  0.1433
70283POPC   NC335367  17.082   9.219  20.062 -0.0399 -0.0266  0.1916
70283POPC   PO435368  17.013   8.860  20.187 -0.1952  0.2971  0.0349
70283POPC   GL135369  17.122   8.806  19.844 -0.3383  0.3651 -0.0167
70283POPC   GL235370  16.838   8.865  19.682 -0.0995 -0.2042  0.1694
70283POPC   C1A35371  17.401   8.859  19.479  0.0901 -0.1062  0.0814
70283POPC   D2A35372  17.487   8.800  19.033 -0.1574  0.0780 -0.1190
70283POPC   C3A35373  17.936   8.964  18.850 -0.1393 -0.0343  0.0393
70283POPC   C4A35374  18.327   9.084  18.643  0.2508 -0.0296 -0.1083
70283POPC   C1B35375  16.595   9.051  19.303 -0.1771  0.0727 -0.1573
70283POPC   C2B35376  16.641   9.227  18.894  0.2091 -0.1430 -0.0690
70283POPC   C3B35377  16.737   9.350  18.482  0.0383  0.1468 -0.0805
70283POPC   C4B35378  16.552   9.504  18.093 -0.2525 -0.0125  0.1979
70284POPC   NC335379  25.812   7.969  19.253 -0.2231  0.2808  0.1121
70284POPC   PO435380  25.603   8.211  19.046  0.5495  0.0423 -0.0818
70284POPC   GL135381  25.579   8.506  18.887  0.0843 -0.0109 -0.0445
70284POPC   GL235382  25.905   8.598  18.942 -0.0549 -0.0142  0.4546
70284POPC   C1A35383  25.486   8.773  18.520 -0.0529  0.1559 -0.2640
70284POPC   D2A35384  25.438   8.944  18.090  0.2250  0.1787 -0.0821
70284POPC   C3A35385  25.341   9.327  17.837  0.0468 -0.1837  0.0314
70284POPC   C4A35386  25.195   9.591  17.453 -0.2638 -0.1860  0.2481
70284POPC   C1B35387  26.283   8.619  18.621 -0.0159 -0.1259  0.0686
70284POPC   C2B35388  26.672   8.708  18.418  0.1350 -0.0066 -0.0949
70284POPC   C3B35389  27.070   8.924  18.240  0.1024 -0.0434 -0.0220
70284POPC   C4B35390  27.474   9.139  18.255  0.0544  0.0144 -0.1679
70285POPC   NC335391  22.758   8.173  19.552 -0.0404 -0.1377  0.2804
70285POPC   PO435392  22.679   7.923  19.269  0.2052  0.1788 -0.2886
70285POPC   GL135393  22.734   8.128  18.776 -0.1128  0.1901  0.5229
70285POPC   GL235394  22.536   8.269  18.903 -0.0794  0.0610 -0.0639
70285POPC   C1A35395  22.824   8.021  18.318 -0.1019  0.0714 -0.2213
70285POPC   D2A35396  22.634   7.960  17.880 -0.0684  0.1140  0.3253
70285POPC   C3A35397  22.158   7.909  17.873  0.0568  0.1361 -0.1203
70285POPC   C4A35398  21.756   8.076  17.828 -0.1895 -0.3156  0.1876
70285POPC   C1B35399  22.252   8.601  18.731  0.1091 -0.1021  0.0009
70285POPC   C2B35400  21.893   8.737  18.469  0.0592  0.0522  0.2285
70285POPC   C3B35401  21.851   9.045  18.094 -0.4021  0.1480 -0.0075
70285POPC   C4B35402  21.756   9.320  17.742 -0.1159  0.0764  0.1627
70286POPC   NC335403  17.922   6.827  20.603  0.1001 -0.0628 -0.2988
70286POPC   PO435404  17.918   6.809  20.231  0.1490 -0.1968  0.1962
70286POPC   GL135405  17.935   6.799  19.867  0.1591 -0.1189 -0.1528
70286POPC   GL235406  18.117   7.033  19.795 -0.1349 -0.0812  0.3950
70286POPC   C1A35407  17.567   6.725  19.541  0.0821 -0.0361 -0.1903
70286POPC   D2A35408  17.408   6.821  19.159 -0.3961  0.0697 -0.0447
70286POPC   C3A35409  17.610   7.199  18.922 -0.5405 -0.0359 -0.2633
70286POPC   C4A35410  17.854   7.140  18.548  0.1055 -0.1197  0.0584
70286POPC   C1B35411  18.435   7.177  19.497  0.2200 -0.0034  0.1821
70286POPC   C2B35412  18.640   7.252  19.107  0.2580  0.1032 -0.0655
70286POPC   C3B35413  18.681   7.254  18.668  0.3805  0.0326  0.0735
70286POPC   C4B35414  18.727   7.063  18.266 -0.0346 -0.1077 -0.3309
70287POPC   NC335415  27.296   3.953  16.353  0.2396 -0.0140 -0.1997
70287POPC   PO435416  26.895   4.013  16.357 -0.1053 -0.2108  0.3996
70287POPC   GL135417  27.088   3.873  15.968 -0.3891 -0.1419  0.1123
70287POPC   GL235418  27.241   3.567  15.976 -0.0700  0.2439 -0.0469
70287POPC   C1A35419  27.537   3.997  15.802  0.2380 -0.2805 -0.0207
70287POPC   D2A35420  27.709   4.102  15.410 -0.0167 -0.1559  0.2770
70287POPC   C3A35421  27.768   3.717  15.160  0.2988 -0.1119 -0.0928
70287POPC   C4A35422  27.780   3.290  14.894  0.1201  0.0569  0.1898
70287POPC   C1B35423  27.704   3.293  15.918  0.0590 -0.2458  0.2306
70287POPC   C2B35424  27.815   2.899  15.725 -0.2298 -0.0958  0.1400
70287POPC   C3B35425  27.908   2.596  15.394 -0.0044  0.1392  0.4679
70287POPC   C4B35426  27.634   2.275  15.171 -0.0775 -0.1968  0.1541
70288POPC   NC335427  18.580  11.893  20.536 -0.3834 -0.0068 -0.1216
70288POPC   PO435428  18.636  11.488  20.488  0.1096 -0.4583 -0.2782
70288POPC   GL135429  18.764  11.652  20.161  0.2007 -0.2252 -0.0078
70288POPC   GL235430  18.866  11.395  19.940  0.4705 -0.2303 -0.0603
70288POPC   C1A35431  18.413  11.844  19.919 -0.0394 -0.2531 -0.2054
70288POPC   D2A35432  18.063  11.765  19.641  0.0099  0.1548  0.0884
70288POPC   C3A35433  17.668  12.025  19.548 -0.1697 -0.1482  0.1244
70288POPC   C4A35434  17.410  12.362  19.438 -0.0772  0.1956  0.1832
70288POPC   C1B35435  19.145  11.349  19.519 -0.0519  0.0009 -0.4211
70288POPC   C2B35436  19.376  11.311  19.191 -0.2201 -0.0370  0.0907
70288POPC   C3B35437  19.701  11.234  18.860 -0.1308 -0.0537  0.2463
70288POPC   C4B35438  19.911  11.509  18.487  0.0886 -0.2096 -0.2139
70289POPC   NC335439  30.838  15.153  20.480  0.0113  0.3650  0.0815
70289POPC   PO435440  31.087  15.361  20.253 -0.2082  0.0677  0.5952
70289POPC   GL135441  31.150  15.399  19.859  0.2040  0.2140  0.1414
70289POPC   GL235442  31.477  15.428  19.921 -0.0272 -0.3308 -0.1533
70289POPC   C1A35443  31.172  15.586  19.453 -0.2441  0.0051 -0.0849
70289POPC   D2A35444  31.418  15.369  19.135 -0.1941 -0.0726  0.4679
70289POPC   C3A35445  31.770  15.206  19.280  0.1169  0.0943  0.0910
70289POPC   C4A35446  31.933  14.779  19.207 -0.0127  0.3831  0.0264
70289POPC   C1B35447  31.408  15.085  19.659 -0.0535 -0.1988  0.0875
70289POPC   C2B35448  31.475  14.795  19.325  0.1292 -0.3683 -0.0446
70289POPC   C3B35449  31.552  14.866  18.886 -0.0013  0.0792  0.0624
70289POPC   C4B35450  31.712  15.040  18.515  0.2112  0.0626  0.1531
70290POPC   NC335451  27.946   6.290  17.588  0.1381  0.0160  0.1830
70290POPC   PO435452  28.183   6.519  17.402  0.4216 -0.1650  0.0860
70290POPC   GL135453  28.368   6.386  17.182  0.1286  0.5461  0.0577
70290POPC   GL235454  28.389   6.085  17.247 -0.2383  0.1857 -0.2781
70290POPC   C1A35455  28.752   6.319  16.961  0.4799 -0.0400 -0.1727
70290POPC   D2A35456  29.219   6.337  16.865  0.0729 -0.2750 -0.1473
70290POPC   C3A35457  29.397   6.072  16.566  0.2666 -0.0531 -0.0341
70290POPC   C4A35458  29.717   5.768  16.435 -0.2167 -0.0053 -0.1835
70290POPC   C1B35459  28.825   5.977  17.302  0.1307 -0.0381  0.1213
70290POPC   C2B35460  29.043   5.804  16.921 -0.1273 -0.0661  0.0384
70290POPC   C3B35461  29.236   5.553  16.566 -0.2483  0.3025 -0.1980
70290POPC   C4B35462  29.050   5.471  16.173  0.0918 -0.0208 -0.2245
70291POPC   NC335463  22.538   3.991  17.914  0.3203  0.2409 -0.3134
70291POPC   PO435464  22.151   3.925  17.961  0.1743  0.1829  0.1855
70291POPC   GL135465  21.795   3.955  17.745 -0.3851 -0.0612  0.2132
70291POPC   GL235466  21.591   3.910  17.905  0.0317 -0.2294  0.1203
70291POPC   C1A35467  21.566   4.266  17.519  0.1015  0.0290 -0.0803
70291POPC   D2A35468  21.208   4.274  17.189  0.1056 -0.0992  0.4955
70291POPC   C3A35469  21.212   3.800  17.041  0.3103  0.1941 -0.2246
70291POPC   C4A35470  20.951   3.468  16.996  0.1158  0.1068  0.3011
70291POPC   C1B35471  21.245   3.915  17.552  0.0132  0.1200 -0.0998
70291POPC   C2B35472  20.885   3.719  17.425  0.1022  0.1997  0.0197
70291POPC   C3B35473  20.668   3.342  17.386 -0.1955 -0.2336  0.2088
70291POPC   C4B35474  20.479   3.056  17.093  0.2703 -0.0085  0.1716
70292POPC   NC335475  23.126   6.365  17.637 -0.4993 -0.1202 -0.0954
70292POPC   PO435476  23.412   6.280  17.393 -0.2073  0.0370  0.1274
70292POPC   GL135477  23.150   6.507  17.209 -0.1625  0.4312  0.1133
70292POPC   GL235478  23.260   6.544  16.918  0.1932 -0.0272 -0.0932
70292POPC   C1A35479  22.880   6.803  16.991  0.1679 -0.2406 -0.0869
70292POPC   D2A35480  22.696   6.835  16.593 -0.0662 -0.1236  0.3127
70292POPC   C3A35481  22.244   6.782  16.422  0.1981 -0.3492 -0.1546
70292POPC   C4A35482  21.966   6.431  16.278  0.0585  0.0563  0.0885
70292POPC   C1B35483  23.212   6.941  16.626  0.0516  0.0551 -0.3951
70292POPC   C2B35484  23.405   7.146  16.269  0.0521  0.1880 -0.0373
70292POPC   C3B35485  23.571   7.271  15.828 -0.1760  0.1078  0.2130
70292POPC   C4B35486  23.734   7.014  15.418  0.2375  0.2942  0.2450
70293POPC   NC335487  32.435  32.231  20.162  0.1073 -0.2270  0.0301
70293POPC   PO435488  32.368  32.588  20.051 -0.1363 -0.1402  0.0378
70293POPC   GL135489  32.322  32.596  19.665  0.1864 -0.1335  0.2644
70293POPC   GL235490  32.567  32.370  19.664  0.1640  0.0175  0.0433
70293POPC   C1A35491  32.383  32.725  19.191 -0.2860 -0.4720 -0.0960
70293POPC   D2A35492  32.369  32.575  18.764  0.0350 -0.2578  0.0683
70293POPC   C3A35493  32.424  32.763  18.314  0.0453  0.0351  0.1242
70293POPC   C4A35494  32.207  32.993  17.959  0.1397  0.0761  0.0640
70293POPC   C1B35495  32.534  32.244  19.241 -0.4671  0.3194  0.0909
70293POPC   C2B35496  32.237  32.097  18.861  0.3981 -0.0157  0.1622
70293POPC   C3B35497  32.220  31.768  18.554  0.2147  0.0665 -0.0172
70293POPC   C4B35498  32.017  31.341  18.602  0.2191  0.2357  0.2073
70294POPC   NC335499  27.288  12.535  20.186  0.0152 -0.0811 -0.1590
70294POPC   PO435500  27.016  12.600  20.473  0.0904  0.1921 -0.0350
70294POPC   GL135501  26.838  12.479  20.127 -0.2273 -0.3040  0.1009
70294POPC   GL235502  26.872  12.629  19.860  0.1167 -0.2839 -0.2229
70294POPC   C1A35503  27.007  12.174  19.814 -0.1659  0.1019 -0.0377
70294POPC   D2A35504  26.917  12.037  19.368 -0.1590  0.0877  0.0738
70294POPC   C3A35505  26.803  12.277  18.988  0.1458 -0.0769 -0.2252
70294POPC   C4A35506  26.777  12.278  18.527  0.0552 -0.1913 -0.0738
70294POPC   C1B35507  27.002  12.531  19.418  0.1590  0.0214  0.0161
70294POPC   C2B35508  27.320  12.342  19.164  0.1750  0.0030  0.3319
70294POPC   C3B35509  27.579  12.272  18.824  0.1102 -0.1339  0.1445
70294POPC   C4B35510  27.841  12.225  18.441 -0.1968  0.0667 -0.1060
70295POPC   NC335511  25.868   6.311  14.832 -0.2667 -0.0119 -0.0684
70295POPC   PO435512  26.027   6.162  15.193  0.0497 -0.2274 -0.2189
70295POPC   GL135513  26.024   6.612  15.151  0.2840 -0.1767 -0.2317
70295POPC   GL235514  25.731   6.662  15.181 -0.0362  0.0925  0.0182
70295POPC   C1A35515  26.264   6.783  14.807 -0.0130 -0.0625  0.0490
70295POPC   D2A35516  26.128   7.240  14.761 -0.1084  0.1891 -0.4056
70295POPC   C3A35517  26.357   7.583  14.621 -0.3918 -0.1701  0.0473
70295POPC   C4A35518  26.482   7.988  14.398 -0.0315  0.2735 -0.2528
70295POPC   C1B35519  25.794   6.826  14.737 -0.3506 -0.2446 -0.3698
70295POPC   C2B35520  25.695   7.154  14.447  0.0001  0.1335 -0.1430
70295POPC   C3B35521  25.604   7.507  14.129 -0.0898 -0.1465 -0.0964
70295POPC   C4B35522  25.485   7.698  13.737  0.3582 -0.5069  0.0810
70296POPC   NC335523  24.812   7.005  16.908  0.0674  0.2903 -0.0863
70296POPC   PO435524  24.857   6.632  16.817 -0.1800 -0.2547 -0.0944
70296POPC   GL135525  24.481   6.754  16.609  0.2335  0.1814  0.0182
70296POPC   GL235526  24.288   6.587  16.569 -0.0329 -0.1588  0.3731
70296POPC   C1A35527  24.095   7.016  16.449  0.1591  0.1165  0.2128
70296POPC   D2A35528  23.923   7.465  16.302 -0.0870  0.1457  0.0177
70296POPC   C3A35529  23.572   7.684  16.159 -0.1351 -0.0141  0.0983
70296POPC   C4A35530  23.096   7.668  16.131  0.0588 -0.0064 -0.0212
70296POPC   C1B35531  23.963   6.484  16.256  0.0671 -0.0060  0.2297
70296POPC   C2B35532  23.610   6.694  16.136  0.2922  0.0292 -0.2001
70296POPC   C3B35533  23.137   6.737  16.139 -0.1383  0.1497 -0.0232
70296POPC   C4B35534  22.707   6.746  16.051 -0.1092 -0.0195  0.0374
70297POPC   NC335535  26.382  32.570  19.598  0.3048 -0.2131  0.4418
70297POPC   PO435536  26.747  32.394  19.596  0.0594 -0.0370  0.2439
70297POPC   GL135537  26.699  32.337  19.310 -0.1731  0.2936 -0.2084
70297POPC   GL235538  26.484  32.156  19.226  0.2076  0.3721  0.1501
70297POPC   C1A35539  26.831  32.324  18.888 -0.0681  0.1650 -0.0833
70297POPC   D2A35540  26.920  32.280  18.444  0.0131  0.0649  0.1581
70297POPC   C3A35541  27.050  32.010  18.098 -0.2788  0.3520  0.2566
70297POPC   C4A35542  26.936  31.848  17.700 -0.1574  0.0286 -0.1266
70297POPC   C1B35543  26.380  31.726  19.029  0.0546 -0.0319  0.0215
70297POPC   C2B35544  26.095  31.513  18.694  0.0235 -0.0162 -0.1397
70297POPC   C3B35545  25.757  31.365  18.354 -0.5958 -0.3395  0.1524
70297POPC   C4B35546  25.627  31.045  18.160 -0.1521  0.1278 -0.0418
70298POPC   NC335547  28.836   5.456  18.140  0.0609 -0.0431 -0.1771
70298POPC   PO435548  28.975   5.314  18.465 -0.3324 -0.4720 -0.1482
70298POPC   GL135549  29.250   5.227  18.167  0.1746 -0.1628  0.2254
70298POPC   GL235550  29.430   5.490  18.131 -0.0976  0.0200 -0.1326
70298POPC   C1A35551  29.422   5.270  17.715 -0.2233 -0.1829  0.1740
70298POPC   D2A35552  29.524   5.018  17.342 -0.0765 -0.0099 -0.0724
70298POPC   C3A35553  29.606   5.226  16.935  0.1239  0.1301 -0.3913
70298POPC   C4A35554  29.712   5.203  16.534 -0.1239 -0.0672 -0.2672
70298POPC   C1B35555  29.644   5.919  18.182  0.1567  0.1649 -0.2990
70298POPC   C2B35556  29.990   6.156  17.994  0.1018 -0.0740 -0.2318
70298POPC   C3B35557  30.403   6.239  17.837 -0.1916 -0.2866 -0.0026
70298POPC   C4B35558  30.369   6.332  17.345 -0.0103  0.1448 -0.1297
70299POPC   NC335559  22.411   1.354  19.693  0.1893 -0.1331 -0.0594
70299POPC   PO435560  22.109   1.534  19.588 -0.1416  0.0576 -0.0337
70299POPC   GL135561  21.806   1.428  19.376  0.3827 -0.2769  0.1406
70299POPC   GL235562  21.719   1.690  19.278 -0.0235 -0.0537  0.1720
70299POPC   C1A35563  21.732   1.071  19.091 -0.1289 -0.2790 -0.1993
70299POPC   D2A35564  21.549   0.780  18.848 -0.2235  0.2564 -0.0746
70299POPC   C3A35565  21.463   0.705  18.368 -0.1171  0.2550 -0.1457
70299POPC   C4A35566  21.480   0.602  17.947  0.3246  0.1648  0.5878
70299POPC   C1B35567  21.536   1.478  18.917  0.0609 -0.2463  0.4143
70299POPC   C2B35568  21.442   1.318  18.465 -0.2298 -0.1713  0.0101
70299POPC   C3B35569  21.142   1.038  18.249 -0.1499  0.0962 -0.1017
70299POPC   C4B35570  20.968   0.718  17.959  0.1908 -0.1168  0.0337
70300POPC   NC335571  26.972  11.722  20.666  0.0047  0.2132 -0.1831
70300POPC   PO435572  27.372  11.776  20.713  0.1023 -0.2833  0.0248
70300POPC   GL135573  27.521  11.750  20.317 -0.0887 -0.2043  0.0547
70300POPC   GL235574  27.675  11.497  20.329 -0.2087  0.0945  0.1881
70300POPC   C1A35575  27.413  11.760  19.867 -0.1111  0.3404  0.2505
70300POPC   D2A35576  27.359  11.856  19.420 -0.1691 -0.0965 -0.1945
70300POPC   C3A35577  27.268  11.891  18.997 -0.1006  0.0743  0.3031
70300POPC   C4A35578  26.864  11.787  18.843 -0.4323 -0.0873 -0.0642
70300POPC   C1B35579  27.919  11.455  19.932 -0.0844 -0.0712 -0.0261
70300POPC   C2B35580  28.163  11.621  19.579  0.0564  0.1837  0.0346
70300POPC   C3B35581  28.255  11.781  19.110 -0.3601 -0.3658 -0.0672
70300POPC   C4B35582  28.392  11.812  18.617 -0.1197 -0.1210 -0.0738
70301POPC   NC335583  18.181   2.036  20.107  0.1379  0.1861  0.0288
70301POPC   PO435584  17.932   2.266  19.954 -0.1090 -0.0780 -0.1230
70301POPC   GL135585  18.129   2.501  19.566  0.0143  0.2874 -0.6945
70301POPC   GL235586  17.844   2.464  19.471 -0.1241 -0.1118 -0.2954
70301POPC   C1A35587  18.164   2.607  19.125 -0.4773  0.1304  0.1318
70301POPC   D2A35588  18.239   2.709  18.624 -0.2449  0.0028  0.3366
70301POPC   C3A35589  17.877   2.407  18.508  0.0099 -0.1221  0.2695
70301POPC   C4A35590  17.440   2.410  18.529 -0.1434  0.0269 -0.1157
70301POPC   C1B35591  17.759   2.256  18.997 -0.1619  0.0598  0.2091
70301POPC   C2B35592  17.771   1.897  18.635 -0.2641  0.0509 -0.1962
70301POPC   C3B35593  17.594   1.496  18.683  0.2258 -0.2616 -0.0598
70301POPC   C4B35594  17.439   1.094  18.755  0.1346  0.1560 -0.0023
70302POPC   NC335595  28.806   7.866  19.798 -0.1096  0.0249  0.0128
70302POPC   PO435596  28.829   8.236  19.671 -0.0321 -0.2562  0.0318
70302POPC   GL135597  29.040   8.348  19.411  0.3077  0.0399  0.1491
70302POPC   GL235598  29.283   8.465  19.439 -0.1336 -0.1930  0.0532
70302POPC   C1A35599  29.191   8.317  18.986 -0.0257 -0.0565 -0.0427
70302POPC   D2A35600  29.408   8.307  18.586  0.0290  0.0400 -0.0346
70302POPC   C3A35601  29.478   8.645  18.240 -0.1278 -0.0747 -0.1196
70302POPC   C4A35602  29.707   8.912  17.872 -0.1564  0.1237  0.0242
70302POPC   C1B35603  29.528   8.715  19.111  0.2264 -0.1667 -0.1172
70302POPC   C2B35604  29.685   8.949  18.759  0.0423  0.0233 -0.4136
70302POPC   C3B35605  29.755   9.087  18.304  0.0343 -0.2024 -0.1897
70302POPC   C4B35606  29.921   9.382  18.048 -0.0930  0.1599  0.1840
70303POPC   NC335607  30.554  10.791  20.706 -0.1008  0.2010 -0.0624
70303POPC   PO435608  30.703  10.998  20.398 -0.3309  0.1618 -0.1625
70303POPC   GL135609  30.732  11.132  20.104  0.2821 -0.0847  0.2004
70303POPC   GL235610  30.933  11.069  19.947  0.0187  0.1659 -0.1036
70303POPC   C1A35611  30.611  11.588  20.023  0.0554  0.0017 -0.0371
70303POPC   D2A35612  30.711  11.798  19.638 -0.2818 -0.0622  0.0703
70303POPC   C3A35613  30.526  12.011  19.246  0.0763  0.0920  0.1191
70303POPC   C4A35614  30.197  11.882  18.937 -0.3099 -0.0576  0.1039
70303POPC   C1B35615  30.863  10.899  19.555  0.0588  0.2299  0.1804
70303POPC   C2B35616  30.958  11.101  19.164 -0.0648 -0.2701 -0.1045
70303POPC   C3B35617  31.323  11.328  18.958  0.1178 -0.1016 -0.1907
70303POPC   C4B35618  31.489  11.397  18.564 -0.0370  0.2340  0.6381
70304POPC   NC335619  22.121   6.168  18.150 -0.3210 -0.4932  0.0974
70304POPC   PO435620  22.382   5.884  18.150  0.2340  0.2548  0.2675
70304POPC   GL135621  22.260   5.962  17.731  0.0849 -0.2123  0.3786
70304POPC   GL235622  21.942   6.006  17.698  0.0074  0.2101  0.1371
70304POPC   C1A35623  22.199   6.354  17.438  0.1422  0.1582 -0.1608
70304POPC   D2A35624  22.080   6.782  17.317 -0.1412 -0.0615 -0.2129
70304POPC   C3A35625  21.711   7.043  17.348  0.1189 -0.2430 -0.1266
70304POPC   C4A35626  21.222   6.995  17.440  0.0634 -0.1579 -0.0734
70304POPC   C1B35627  21.882   5.974  17.220 -0.0506  0.4582  0.0660
70304POPC   C2B35628  22.112   6.255  16.954 -0.1179 -0.1931 -0.0445
70304POPC   C3B35629  22.358   6.324  16.596 -0.0784 -0.0225 -0.0843
70304POPC   C4B35630  22.459   6.342  16.114  0.3547 -0.0412  0.1951
70305POPC   NC335631   0.122   3.636  19.526 -0.0529  0.0947 -0.0653
70305POPC   PO435632   0.381   3.755  19.805  0.0915  0.1619 -0.0644
70305POPC   GL135633   0.580   3.632  19.430  0.2063 -0.1961  0.0811
70305POPC   GL235634   0.508   3.593  19.104  0.3904 -0.1000 -0.0410
70305POPC   C1A35635   0.850   3.917  19.137  0.0862  0.2497 -0.2162
70305POPC   D2A35636   0.804   4.197  18.783 -0.0567  0.0944  0.0218
70305POPC   C3A35637   0.714   4.084  18.401  0.0095  0.1533  0.0631
70305POPC   C4A35638   0.957   3.864  18.058 -0.1873  0.1488  0.1216
70305POPC   C1B35639   0.627   3.675  18.689 -0.0474 -0.0636  0.0332
70305POPC   C2B35640   0.591   3.485  18.209 -0.0111 -0.1273 -0.0535
70305POPC   C3B35641   0.549   3.498  17.766 -0.0745 -0.3201  0.2096
70305POPC   C4B35642   0.204   3.623  17.520 -0.1281  0.0421 -0.0523
70306POPC   NC335643  28.467  11.330  20.859  0.2331 -0.0106 -0.1162
70306POPC   PO435644  28.638  11.694  20.737  0.1560  0.1818 -0.1895
70306POPC   GL135645  28.591  11.721  20.312 -0.1137 -0.1114 -0.0619
70306POPC   GL235646  28.736  11.759  20.108  0.1030  0.0106 -0.0551
70306POPC   C1A35647  28.408  11.349  20.047 -0.0386 -0.1963 -0.0058
70306POPC   D2A35648  28.285  11.087  19.705 -0.0710  0.2575  0.1319
70306POPC   C3A35649  28.405  11.304  19.308  0.0997 -0.3862  0.2602
70306POPC   C4A35650  28.359  11.313  18.843  0.0376 -0.2787 -0.1037
70306POPC   C1B35651  28.694  11.702  19.686  0.1461  0.0515  0.2063
70306POPC   C2B35652  28.713  11.695  19.212  0.2890  0.1376  0.1077
70306POPC   C3B35653  28.815  11.561  18.747 -0.0908 -0.2827 -0.1513
70306POPC   C4B35654  28.629  11.545  18.318  0.0008 -0.0735  0.1153
70307POPC   NC335655  27.342   1.189  19.200  0.1767  0.1150 -0.4931
70307POPC   PO435656  27.179   1.357  18.879  0.1290 -0.2312  0.1266
70307POPC   GL135657  27.329   0.995  18.771 -0.3662  0.0225 -0.1303
70307POPC   GL235658  27.597   1.031  18.798  0.0562  0.1169  0.0270
70307POPC   C1A35659  27.187   0.838  18.326  0.1932 -0.3404  0.0263
70307POPC   D2A35660  27.103   0.667  17.917 -0.0045 -0.0889  0.1598
70307POPC   C3A35661  26.778   0.955  17.772 -0.3288 -0.1417 -0.1789
70307POPC   C4A35662  26.544   1.321  17.900 -0.0076  0.0575  0.0056
70307POPC   C1B35663  27.714   0.795  18.471 -0.1659  0.0786 -0.1649
70307POPC   C2B35664  27.602   0.567  18.107  0.0421 -0.1540  0.3065
70307POPC   C3B35665  27.757   0.463  17.653  0.0282  0.0505  0.2777
70307POPC   C4B35666  28.027   0.184  17.334  0.2121  0.0304 -0.1080
70308POPC   NC335667  20.674   3.302  19.523 -0.1429 -0.0084  0.0056
70308POPC   PO435668  20.309   3.402  19.341  0.0746 -0.0039  0.0287
70308POPC   GL135669  20.201   3.726  19.146  0.6735  0.2413  0.0689
70308POPC   GL235670  20.421   3.807  18.994 -0.0017  0.0726  0.0249
70308POPC   C1A35671  19.871   3.699  18.800  0.0393  0.2454 -0.1573
70308POPC   D2A35672  19.659   3.360  18.482 -0.3314  0.0655  0.0074
70308POPC   C3A35673  19.569   2.937  18.355 -0.0779  0.4243  0.0800
70308POPC   C4A35674  19.431   2.494  18.439 -0.0829 -0.0944 -0.2732
70308POPC   C1B35675  20.290   3.969  18.553  0.0231 -0.0661  0.6248
70308POPC   C2B35676  19.953   3.862  18.229  0.0499 -0.0512  0.3570
70308POPC   C3B35677  19.584   3.636  18.064 -0.3674  0.0554 -0.0432
70308POPC   C4B35678  19.326   3.269  18.095  0.0834  0.3477 -0.0086
70309POPC   NC335679  16.303   8.714  20.515 -0.1194  0.1228  0.1029
70309POPC   PO435680  16.340   8.350  20.326 -0.0621  0.0696  0.1594
70309POPC   GL135681  16.595   8.624  20.106  0.0102 -0.1015  0.2794
70309POPC   GL235682  16.496   8.854  20.076  0.1483  0.1058  0.2987
70309POPC   C1A35683  16.743   8.376  19.792 -0.2534  0.4177  0.1328
70309POPC   D2A35684  17.119   8.380  19.503  0.0208 -0.1002  0.3864
70309POPC   C3A35685  17.034   8.402  19.035 -0.1163 -0.0541  0.1433
70309POPC   C4A35686  17.052   8.493  18.560  0.4805 -0.1940  0.1498
70309POPC   C1B35687  16.344   8.819  19.665 -0.1868  0.1391 -0.1749
70309POPC   C2B35688  16.168   8.879  19.212  0.1668 -0.1493 -0.2372
70309POPC   C3B35689  16.134   8.905  18.773 -0.0855  0.0118 -0.0386
70309POPC   C4B35690  16.271   9.166  18.444  0.1008  0.0189 -0.1216
70310POPC   NC335691  25.045   5.062  12.727 -0.0614 -0.0148  0.3556
70310POPC   PO435692  25.170   5.378  12.860 -0.0361 -0.0557 -0.0027
70310POPC   GL135693  24.914   5.532  12.691 -0.1438  0.1793 -0.0345
70310POPC   GL235694  24.789   5.707  12.891  0.0031  0.0829 -0.1814
70310POPC   C1A35695  24.561   5.568  12.408  0.0233 -0.0649  0.0442
70310POPC   D2A35696  24.142   5.518  12.292 -0.1525  0.0378 -0.2842
70310POPC   C3A35697  23.847   5.736  12.001  0.0548 -0.1341  0.0718
70310POPC   C4A35698  23.536   6.063  11.919  0.0278 -0.1620 -0.2041
70310POPC   C1B35699  24.304   5.800  12.771 -0.0024  0.1194 -0.6517
70310POPC   C2B35700  24.007   6.181  12.817 -0.1589  0.1958  0.1434
70310POPC   C3B35701  23.651   6.517  12.735 -0.1915  0.1246  0.0232
70310POPC   C4B35702  23.394   6.806  12.481  0.3199 -0.2358  0.0357
70311POPS   CNO35703  32.657   5.575   9.519  0.2506  0.2649 -0.1544
70311POPS   PO435704  32.720   5.367   9.253 -0.4927 -0.1905  0.0360
70311POPS   GL135705  32.618   5.565   8.842 -0.0973  0.1705  0.2100
70311POPS   GL235706  32.921   5.731   8.794  0.1598 -0.0133  0.1507
70311POPS   C1A35707  32.283   5.457   8.566 -0.0072  0.1785 -0.1794
70311POPS   D2A35708  32.083   5.456   8.152  0.1627  0.1256  0.2621
70311POPS   C3A35709  31.869   5.862   8.095 -0.2166  0.3512 -0.1329
70311POPS   C4A35710  31.649   6.277   8.154  0.1249  0.0151 -0.1029
70311POPS   C1B35711  32.889   5.760   8.317 -0.0439  0.1536  0.1440
70311POPS   C2B35712  32.881   5.751   7.880 -0.0672  0.0981 -0.2189
70311POPS   C3B35713  32.664   5.473   7.585  0.2646 -0.0149 -0.0703
70311POPS   C4B35714  32.235   5.260   7.444  0.0233 -0.1153 -0.0868
70312POPS   CNO35715  29.941  14.478   8.366  0.0344 -0.3964 -0.4129
70312POPS   PO435716  29.756  14.756   8.189 -0.1879 -0.1753 -0.1596
70312POPS   GL135717  29.754  14.744   7.785 -0.0703 -0.6191  0.0036
70312POPS   GL235718  29.951  14.536   7.791  0.2613 -0.0698 -0.0949
70312POPS   C1A35719  29.493  14.867   7.430 -0.1499 -0.1802  0.0153
70312POPS   D2A35720  29.235  15.105   7.118 -0.0286 -0.1364 -0.1681
70312POPS   C3A35721  28.981  14.833   6.775  0.0730  0.0437 -0.0046
70312POPS   C4A35722  28.584  14.958   6.522 -0.3327  0.4589  0.1049
70312POPS   C1B35723  30.106  14.208   7.514 -0.2895  0.1218  0.0507
70312POPS   C2B35724  29.940  13.843   7.296  0.1332  0.2691  0.2332
70312POPS   C3B35725  29.589  13.685   7.065 -0.1401 -0.0518  0.1746
70312POPS   C4B35726  29.358  13.625   6.634  0.0530  0.0904  0.2588
70313POPS   CNO35727  21.829   2.883  10.714 -0.2490  0.1764  0.0884
70313POPS   PO435728  21.999   3.251  10.846 -0.1827  0.0631 -0.1665
70313POPS   GL135729  22.235   3.451  10.561 -0.0643  0.0361 -0.0144
70313POPS   GL235730  22.183   3.697  10.405 -0.1493  0.1755 -0.1731
70313POPS   C1A35731  22.581   3.372  10.235  0.0109 -0.4741  0.2158
70313POPS   D2A35732  22.978   3.600  10.176 -0.0391  0.0801 -0.2257
70313POPS   C3A35733  23.136   3.679   9.777 -0.0970 -0.2240 -0.0017
70313POPS   C4A35734  23.158   3.760   9.314 -0.2495 -0.3339 -0.0588
70313POPS   C1B35735  22.591   3.766  10.609 -0.1569  0.4694  0.0315
70313POPS   C2B35736  23.027   3.885  10.706  0.0924  0.0640 -0.3527
70313POPS   C3B35737  23.482   4.035  10.542  0.1824 -0.1843 -0.1671
70313POPS   C4B35738  23.857   4.056  10.238 -0.1246 -0.2666 -0.1645
70314POPS   CNO35739  17.374   9.890   9.343  0.1385 -0.4123  0.0984
70314POPS   PO435740  17.328   9.682   9.038 -0.4235 -0.0032 -0.2587
70314POPS   GL135741  17.017   9.561   8.750 -0.3367 -0.3810  0.2344
70314POPS   GL235742  17.142   9.481   8.485  0.2171  0.0111 -0.0790
70314POPS   C1A35743  16.633   9.582   8.510  0.0918 -0.2372  0.0630
70314POPS   D2A35744  16.216   9.381   8.370 -0.3098 -0.1031 -0.0052
70314POPS   C3A35745  15.863   9.157   8.184  0.0840  0.2429  0.0311
70314POPS   C4A35746  15.472   8.975   8.018 -0.0641 -0.3374 -0.1752
70314POPS   C1B35747  16.827   9.206   8.252 -0.2952 -0.0262  0.1774
70314POPS   C2B35748  16.692   9.170   7.796 -0.0499  0.1865 -0.1325
70314POPS   C3B35749  16.430   9.175   7.430 -0.1421 -0.0791  0.0432
70314POPS   C4B35750  16.205   9.122   7.034 -0.0265 -0.1628  0.0009
70315POPS   CNO35751   0.006  14.500   8.343 -0.2345 -0.1979  0.2171
70315POPS   PO435752  -0.354  14.423   8.338 -0.2238 -0.0055  0.5596
70315POPS   GL135753  -0.287  14.460   7.934  0.0603  0.3792 -0.1001
70315POPS   GL235754  -0.022  14.418   7.873 -0.3965 -0.1798 -0.4004
70315POPS   C1A35755  -0.521  14.602   7.542  0.0505  0.0388 -0.0652
70315POPS   D2A35756  -0.497  14.366   7.083  0.4259  0.0777 -0.2487
70315POPS   C3A35757  -0.275  14.614   6.739 -0.0368  0.1226  0.1689
70315POPS   C4A35758  -0.379  14.764   6.283  0.2555  0.1257 -0.0499
70315POPS   C1B35759   0.094  14.253   7.412  0.0533  0.1295  0.1263
70315POPS   C2B35760  -0.028  14.036   7.039  0.0898 -0.0214  0.2319
70315POPS   C3B35761  -0.316  14.050   6.640  0.0353 -0.2399 -0.0834
70315POPS   C4B35762  -0.455  14.077   6.225  0.3490  0.0161  0.2113
70316POPS   CNO35763  32.265  14.855   8.565  0.2463  0.0401 -0.1334
70316POPS   PO435764  32.149  14.914   8.188 -0.0506  0.0362 -0.1823
70316POPS   GL135765  32.199  14.914   7.788  0.0638  0.1490 -0.1931
70316POPS   GL235766  32.014  15.119   7.667 -0.1458 -0.1998 -0.0082
70316POPS   C1A35767  32.516  15.038   7.418  0.1807 -0.0127  0.1325
70316POPS   D2A35768  32.678  15.112   6.999  0.3161  0.1218  0.2151
70316POPS   C3A35769  32.637  15.195   6.542 -0.3139  0.0555 -0.1751
70316POPS   C4A35770  32.792  15.202   6.141  0.0192  0.2611 -0.1884
70316POPS   C1B35771  31.706  15.296   7.432 -0.2935 -0.0126  0.0263
70316POPS   C2B35772  31.537  15.546   7.045 -0.0451 -0.1230 -0.1762
70316POPS   C3B35773  31.387  15.618   6.573  0.1124 -0.1529 -0.1462
70316POPS   C4B35774  31.417  15.535   6.111  0.2114 -0.0068 -0.2891
70317POPS   CNO35775  22.771  16.035   8.936 -0.1531 -0.0650  0.4050
70317POPS   PO435776  22.708  15.722   9.050  0.0016  0.3107  0.0488
70317POPS   GL135777  22.660  15.696   8.605  0.0964 -0.3833  0.2145
70317POPS   GL235778  23.027  15.727   8.562  0.3613 -0.0488 -0.6137
70317POPS   C1A35779  22.690  15.534   8.173 -0.1916 -0.2409 -0.1036
70317POPS   D2A35780  23.014  15.520   7.802  0.0112 -0.4056 -0.1420
70317POPS   C3A35781  23.159  15.383   7.362  0.1835 -0.0777  0.0583
70317POPS   C4A35782  23.352  15.344   6.990 -0.3847  0.1010  0.0329
70317POPS   C1B35783  23.106  15.855   8.159  0.2510  0.2943  0.1636
70317POPS   C2B35784  23.186  16.210   7.840  0.1303 -0.2489 -0.3774
70317POPS   C3B35785  23.211  16.527   7.481  0.1031 -0.0345 -0.0054
70317POPS   C4B35786  23.015  16.953   7.286  0.3140 -0.1034  0.0669
70318POPS   CNO35787  30.647   3.289  14.375 -0.0413 -0.1910  0.2505
70318POPS   PO435788  30.324   3.079  14.423 -0.0120  0.1620  0.0956
70318POPS   GL135789  29.978   3.244  14.448 -0.3562 -0.1390  0.1322
70318POPS   GL235790  29.803   3.130  14.119  0.0507  0.0166 -0.3086
70318POPS   C1A35791  29.676   3.134  14.766  0.0261  0.1525 -0.0182
70318POPS   D2A35792  29.542   3.160  15.208 -0.1303 -0.0775 -0.1826
70318POPS   C3A35793  29.363   3.456  15.554 -0.0805  0.2092 -0.0723
70318POPS   C4A35794  29.184   3.779  15.878 -0.1048  0.2928 -0.3408
70318POPS   C1B35795  29.470   3.367  14.299  0.1704  0.2418  0.1582
70318POPS   C2B35796  29.150   3.346  14.677 -0.0028  0.1951  0.3655
70318POPS   C3B35797  28.867   3.542  14.945  0.3153 -0.0655 -0.0061
70318POPS   C4B35798  28.617   3.953  15.018 -0.0390  0.1340 -0.1374
70319POPS   CNO35799  21.455   8.345  11.393  0.1027  0.4952 -0.0778
70319POPS   PO435800  21.647   8.260  11.078 -0.0210  0.0330  0.3563
70319POPS   GL135801  21.980   8.047  10.940  0.0738  0.0222  0.1118
70319POPS   GL235802  21.863   7.742  10.898  0.1489 -0.0934 -0.2683
70319POPS   C1A35803  22.417   7.872  11.001 -0.0600 -0.0352 -0.0371
70319POPS   D2A35804  22.601   7.499  10.782  0.0611 -0.1647 -0.2156
70319POPS   C3A35805  23.071   7.304  10.741  0.2394  0.2089 -0.3048
70319POPS   C4A35806  23.325   6.985  10.614  0.1075  0.0703  0.2321
70319POPS   C1B35807  22.125   7.643  10.547 -0.0934  0.1802 -0.2468
70319POPS   C2B35808  22.300   7.838  10.190 -0.2333  0.1173  0.1485
70319POPS   C3B35809  22.368   8.021   9.748  0.1862 -0.0756 -0.1748
70319POPS   C4B35810  22.707   8.054   9.488 -0.1631 -0.0031  0.1349
70320POPS   CNO35811  22.668  10.147  10.269 -0.0771  0.0440  0.0903
70320POPS   PO435812  22.945   9.949  10.100  0.0099 -0.1412  0.1921
70320POPS   GL135813  22.850   9.916   9.600  0.3258 -0.0345  0.1618
70320POPS   GL235814  23.105  10.075   9.636 -0.2443 -0.1218 -0.4912
70320POPS   C1A35815  23.109   9.550   9.452 -0.0769 -0.2678 -0.0110
70320POPS   D2A35816  23.325   9.131   9.282 -0.1156  0.1971  0.0824
70320POPS   C3A35817  23.634   9.082   8.934  0.3167  0.1288  0.1472
70320POPS   C4A35818  23.707   8.848   8.549  0.1666 -0.1698 -0.2726
70320POPS   C1B35819  23.251  10.034   9.212 -0.1137 -0.0545  0.0726
70320POPS   C2B35820  23.543   9.952   8.868 -0.1012 -0.1198 -0.0201
70320POPS   C3B35821  23.763   9.573   8.751 -0.0102 -0.0166  0.0496
70320POPS   C4B35822  24.196   9.541   8.566 -0.2732 -0.2351 -0.3163
70321POPS   CNO35823  24.176   0.789  11.376 -0.0961 -0.1332 -0.2084
70321POPS   PO435824  24.317   1.013  11.625  0.1083 -0.0378 -0.0267
70321POPS   GL135825  24.497   1.372  11.471  0.1198 -0.0046 -0.2668
70321POPS   GL235826  24.719   1.406  11.308  0.0224 -0.0614  0.0214
70321POPS   C1A35827  24.621   1.817  11.557  0.2443  0.2240 -0.1240
70321POPS   D2A35828  24.468   2.265  11.622  0.1971  0.2744  0.1850
70321POPS   C3A35829  24.626   2.591  11.339  0.0521  0.1638  0.4667
70321POPS   C4A35830  24.931   2.916  11.332  0.1776  0.0474 -0.1942
70321POPS   C1B35831  25.014   1.715  11.273 -0.0893  0.3068  0.0684
70321POPS   C2B35832  25.037   2.134  11.117 -0.0747 -0.1746 -0.1458
70321POPS   C3B35833  25.175   2.569  11.020 -0.1480  0.0257 -0.1310
70321POPS   C4B35834  25.024   2.885  10.850  0.1411  0.2043 -0.3086
70322POPS   CNO35835  17.798  11.311   8.935 -0.1359  0.3209  0.1752
70322POPS   PO435836  17.694  10.948   8.768 -0.0738 -0.1701 -0.1189
70322POPS   GL135837  17.445  10.852   8.434  0.1510  0.0530 -0.0098
70322POPS   GL235838  17.721  10.854   8.281  0.0698 -0.2980 -0.1071
70322POPS   C1A35839  17.238  11.207   8.187 -0.2058 -0.1160  0.1305
70322POPS   D2A35840  17.145  11.317   7.718 -0.0559  0.2491  0.0750
70322POPS   C3A35841  17.408  11.634   7.522 -0.0427 -0.0609 -0.1382
70322POPS   C4A35842  17.351  12.165   7.470  0.0428  0.1657 -0.1828
70322POPS   C1B35843  17.521  10.705   7.910  0.0299 -0.0106  0.3512
70322POPS   C2B35844  17.475  10.446   7.521  0.0491 -0.2478  0.0310
70322POPS   C3B35845  17.379  10.439   7.093 -0.0413  0.0622  0.1393
70322POPS   C4B35846  17.655  10.388   6.696 -0.0246  0.4447 -0.1103
70323POPS   CNO35847  15.895  14.560   8.077  0.3335  0.0048 -0.0364
70323POPS   PO435848  16.135  14.866   8.123  0.3164 -0.3510  0.0476
70323POPS   GL135849  16.012  14.899   7.719  0.1609 -0.0879 -0.1433
70323POPS   GL235850  15.701  14.948   7.762 -0.0385  0.2593 -0.1779
70323POPS   C1A35851  15.847  14.899   7.299  0.0195 -0.1508  0.3079
70323POPS   D2A35852  15.755  14.769   6.859  0.2445 -0.2172  0.2998
70323POPS   C3A35853  15.936  14.883   6.459  0.2059  0.0875  0.0965
70323POPS   C4A35854  15.885  15.267   6.145  0.1139  0.0793  0.0478
70323POPS   C1B35855  15.327  14.912   7.534  0.0401 -0.3691  0.1215
70323POPS   C2B35856  15.177  14.742   7.170  0.1746 -0.1434 -0.2113
70323POPS   C3B35857  15.296  14.434   6.865 -0.1152 -0.1203  0.1874
70323POPS   C4B35858  15.573  14.389   6.415 -0.2579  0.0750  0.0642
70324POPS   CNO35859  29.762   3.325  12.414 -0.0104 -0.1731 -0.0987
70324POPS   PO435860  29.977   3.497  12.180  0.0849  0.1992 -0.0367
70324POPS   GL135861  29.742   3.726  12.046  0.4436 -0.1498 -0.1261
70324POPS   GL235862  29.453   3.666  12.082  0.0044 -0.0269 -0.0791
70324POPS   C1A35863  29.571   3.942  11.704  0.0006 -0.3096 -0.0642
70324POPS   D2A35864  29.603   4.429  11.576  0.0196 -0.2176  0.1663
70324POPS   C3A35865  29.235   4.707  11.394 -0.0704 -0.1052  0.0276
70324POPS   C4A35866  28.891   5.036  11.428  0.2293 -0.2746  0.0594
70324POPS   C1B35867  29.084   3.875  11.898  0.1960 -0.2200 -0.0969
70324POPS   C2B35868  28.724   3.909  11.574 -0.0524 -0.0176  0.0880
70324POPS   C3B35869  28.765   3.835  11.110  0.0289  0.1173 -0.1840
70324POPS   C4B35870  28.637   3.667  10.673 -0.0709  0.0803 -0.1542
70325POPS   CNO35871  19.655   4.206   9.869  0.1704 -0.1005 -0.0845
70325POPS   PO435872  19.992   4.383   9.743  0.5308  0.1983  0.2355
70325POPS   GL135873  20.192   4.319   9.323  0.1981  0.0177  0.1695
70325POPS   GL235874  20.001   4.541   9.181 -0.2992  0.3519  0.0457
70325POPS   C1A35875  20.430   4.115   9.003 -0.1701 -0.0543 -0.1039
70325POPS   D2A35876  20.723   3.886   8.709  0.3530  0.0596 -0.1425
70325POPS   C3A35877  20.911   3.886   8.288 -0.1494  0.1328 -0.0636
70325POPS   C4A35878  21.313   4.051   8.068  0.3691  0.1693 -0.0974
70325POPS   C1B35879  20.220   4.502   8.765  0.0687  0.1860 -0.0525
70325POPS   C2B35880  20.541   4.356   8.500  0.2982 -0.0459  0.2224
70325POPS   C3B35881  20.601   4.246   8.079 -0.0377 -0.3858 -0.1145
70325POPS   C4B35882  20.615   4.251   7.622  0.2556 -0.1729  0.0568
70326POPS   CNO35883  30.882   4.298  10.999  0.0092  0.1540  0.0390
70326POPS   PO435884  30.686   4.622  11.123  0.0755  0.2918 -0.0022
70326POPS   GL135885  30.364   4.778  11.039 -0.3935 -0.2434 -0.2040
70326POPS   GL235886  30.364   4.775  10.755  0.0405  0.0321 -0.3615
70326POPS   C1A35887  29.987   5.051  11.017  0.0640 -0.0267 -0.0181
70326POPS   D2A35888  29.533   5.144  11.070  0.2931 -0.0570 -0.0198
70326POPS   C3A35889  29.261   5.074  10.739 -0.3482  0.2201  0.0666
70326POPS   C4A35890  28.954   4.835  10.448  0.0113 -0.0476  0.2805
70326POPS   C1B35891  29.965   4.749  10.592  0.1881  0.0295  0.0554
70326POPS   C2B35892  29.641   4.783  10.246  0.1371  0.0664  0.0955
70326POPS   C3B35893  29.238   4.873  10.080 -0.0262  0.0212 -0.3592
70326POPS   C4B35894  28.855   4.895   9.792 -0.3256  0.1101 -0.0450
70327POPS   CNO35895  29.354  11.846   9.479 -0.3177  0.1536  0.2009
70327POPS   PO435896  29.157  12.187   9.450  0.2453  0.1542 -0.0206
70327POPS   GL135897  28.941  11.934   9.253 -0.1409 -0.1251  0.0785
70327POPS   GL235898  28.636  11.908   9.249  0.1178 -0.1664 -0.1748
70327POPS   C1A35899  28.945  11.512   9.094  0.0797 -0.3077 -0.1557
70327POPS   D2A35900  28.584  11.307   8.833 -0.0402 -0.1331  0.2290
70327POPS   C3A35901  28.350  11.387   8.461  0.1184  0.0996  0.2129
70327POPS   C4A35902  28.077  11.565   8.134  0.1386  0.0959 -0.0293
70327POPS   C1B35903  28.440  11.795   8.852 -0.1269 -0.2297  0.0555
70327POPS   C2B35904  28.192  11.916   8.486  0.0047 -0.0487  0.2281
70327POPS   C3B35905  28.224  12.049   8.023 -0.0539 -0.2688  0.0765
70327POPS   C4B35906  28.515  12.092   7.674  0.3179 -0.0574 -0.1394
70328POPS   CNO35907  20.661   7.762  10.199 -0.1118  0.0053 -0.1299
70328POPS   PO435908  20.479   7.939   9.932  0.1207  0.1298 -0.0482
70328POPS   GL135909  20.754   7.856   9.728  0.1011  0.2141  0.1185
70328POPS   GL235910  21.037   7.878   9.798 -0.0084  0.3075  0.1022
70328POPS   C1A35911  20.789   7.604   9.342 -0.1519 -0.1257  0.3254
70328POPS   D2A35912  21.104   7.779   8.966  0.0849  0.1282  0.1855
70328POPS   C3A35913  21.179   7.868   8.493  0.1170 -0.2106  0.1278
70328POPS   C4A35914  21.116   7.765   8.069 -0.1349 -0.2681  0.0482
70328POPS   C1B35915  21.017   8.109   9.360  0.4641  0.0403  0.1275
70328POPS   C2B35916  20.713   8.118   8.991  0.1258 -0.2513  0.1522
70328POPS   C3B35917  20.657   7.976   8.540  0.3274  0.0901  0.0593
70328POPS   C4B35918  20.520   7.721   8.101  0.1813 -0.0326  0.0146
70329POPS   CNO35919  25.912   0.148  10.076  0.1659 -0.1483  0.1305
70329POPS   PO435920  25.996   0.017   9.726 -0.1891  0.1587 -0.2475
70329POPS   GL135921  26.002  -0.055   9.304  0.1517  0.0211  0.2028
70329POPS   GL235922  26.100   0.253   9.266 -0.2643 -0.1481  0.1565
70329POPS   C1A35923  25.864   0.050   8.853 -0.1242  0.2100 -0.0869
70329POPS   D2A35924  25.671   0.308   8.506  0.4023  0.1088  0.1419
70329POPS   C3A35925  25.852   0.062   8.146 -0.0275 -0.1387  0.3357
70329POPS   C4A35926  25.954  -0.008   7.695 -0.0521  0.1240 -0.0663
70329POPS   C1B35927  25.890   0.662   9.347 -0.1262  0.0881  0.1090
70329POPS   C2B35928  25.707   1.033   9.184 -0.0226 -0.0349  0.1145
70329POPS   C3B35929  25.349   1.082   8.894  0.4002 -0.3560 -0.0235
70329POPS   C4B35930  25.194   1.241   8.518  0.1724 -0.0366  0.2031
70330POPS   CNO35931  29.441   1.903  10.327 -0.1169  0.0345 -0.0194
70330POPS   PO435932  29.281   2.265  10.363  0.1170  0.0432 -0.0623
70330POPS   GL135933  29.200   2.641  10.333 -0.0345  0.1313 -0.1630
70330POPS   GL235934  29.198   2.667  10.016 -0.0263  0.2574 -0.2087
70330POPS   C1A35935  28.911   2.988  10.289  0.3474 -0.0966  0.1368
70330POPS   D2A35936  28.693   3.184   9.951 -0.1612  0.2965 -0.1412
70330POPS   C3A35937  28.392   3.532   9.816 -0.0986 -0.3056  0.1212
70330POPS   C4A35938  28.570   4.001   9.804 -0.3501  0.1010  0.1631
70330POPS   C1B35939  29.144   3.043   9.801  0.2413  0.0795 -0.0906
70330POPS   C2B35940  28.893   3.375   9.538 -0.2075  0.0293  0.2796
70330POPS   C3B35941  28.641   3.693   9.392 -0.0574  0.1962  0.2579
70330POPS   C4B35942  28.321   3.691   9.102 -0.0575  0.1624  0.0529
70331POPS   CNO35943  28.868  13.094   9.638  0.0167 -0.3991 -0.2325
70331POPS   PO435944  28.736  13.220   9.309  0.0376 -0.3186 -0.0893
70331POPS   GL135945  28.544  13.002   9.073 -0.0370  0.0345  0.1125
70331POPS   GL235946  28.304  13.086   9.203 -0.0645  0.1268 -0.0966
70331POPS   C1A35947  28.330  12.899   8.673  0.0362 -0.0151 -0.2378
70331POPS   D2A35948  28.211  12.940   8.244 -0.0531  0.2749  0.1427
70331POPS   C3A35949  28.036  12.835   7.795 -0.3742  0.0344  0.0648
70331POPS   C4A35950  27.663  13.031   7.524 -0.1821  0.1328 -0.2014
70331POPS   C1B35951  28.076  13.327   8.857  0.0221  0.0571  0.0378
70331POPS   C2B35952  27.819  13.225   8.480 -0.1331 -0.1489 -0.0839
70331POPS   C3B35953  27.690  13.226   8.022 -0.1569  0.1460 -0.2227
70331POPS   C4B35954  27.449  13.432   7.658 -0.1744 -0.0986 -0.2730
70332POPS   CNO35955  17.797   3.108   9.333 -0.1604  0.0679  0.3447
70332POPS   PO435956  18.117   2.987   9.177  0.1685  0.0488 -0.1444
70332POPS   GL135957  18.257   2.892   8.751 -0.1405  0.3239  0.1909
70332POPS   GL235958  18.492   3.008   8.814  0.2520  0.2754  0.1043
70332POPS   C1A35959  18.250   3.249   8.396  0.0477  0.0250  0.1132
70332POPS   D2A35960  18.199   3.502   7.976  0.1656 -0.0149 -0.1353
70332POPS   C3A35961  18.128   3.084   7.706  0.0354 -0.1698 -0.0971
70332POPS   C4A35962  18.426   2.886   7.411  0.1803 -0.0994 -0.2707
70332POPS   C1B35963  18.634   2.928   8.396 -0.0493 -0.0142  0.0312
70332POPS   C2B35964  18.709   2.860   7.906 -0.0580  0.1003 -0.2105
70332POPS   C3B35965  18.802   3.124   7.527 -0.3215 -0.0235  0.0358
70332POPS   C4B35966  18.676   3.140   7.041  0.3079 -0.0463  0.2873
70333POPS   CNO35967  21.384   3.741  12.793 -0.3278  0.2789 -0.1542
70333POPS   PO435968  21.684   3.720  13.038  0.0080  0.0010 -0.0227
70333POPS   GL135969  21.880   3.796  13.333 -0.1249  0.0561 -0.0767
70333POPS   GL235970  21.926   4.124  13.349 -0.1166  0.1154  0.0721
70333POPS   C1A35971  22.385   3.829  13.375  0.0212  0.0027 -0.2601
70333POPS   D2A35972  22.862   3.835  13.343 -0.2539  0.1601  0.0297
70333POPS   C3A35973  23.196   3.937  13.623 -0.1601  0.5074  0.0540
70333POPS   C4A35974  23.446   4.305  13.801 -0.0579  0.1303  0.0711
70333POPS   C1B35975  22.299   4.210  13.641 -0.2155  0.2627  0.0137
70333POPS   C2B35976  22.745   4.101  13.779  0.2243 -0.0733  0.1374
70333POPS   C3B35977  23.045   4.008  14.125  0.1245 -0.0296  0.3497
70333POPS   C4B35978  23.521   3.979  14.241  0.1518 -0.0988  0.1502
70334POPS   CNO35979  27.242  13.331   9.618 -0.2463  0.0703 -0.1041
70334POPS   PO435980  27.004  13.030   9.526 -0.3552 -0.1840 -0.1848
70334POPS   GL135981  26.839  12.908   9.188 -0.2751  0.2966 -0.1442
70334POPS   GL235982  26.946  12.623   9.052 -0.0174  0.0962  0.2248
70334POPS   C1A35983  26.729  13.053   8.780 -0.1037  0.0006  0.2310
70334POPS   D2A35984  26.831  13.182   8.358  0.1083 -0.0225 -0.0683
70334POPS   C3A35985  26.779  12.855   8.002 -0.0369  0.2290 -0.1275
70334POPS   C4A35986  26.497  12.933   7.645 -0.1799 -0.4193  0.1468
70334POPS   C1B35987  27.198  12.260   9.074  0.0019 -0.1929 -0.0317
70334POPS   C2B35988  27.236  11.805   9.098 -0.0577  0.0249  0.0127
70334POPS   C3B35989  27.062  11.428   8.882  0.0958  0.0721  0.0705
70334POPS   C4B35990  26.861  11.081   8.672  0.1704  0.2083 -0.2423
70335POPS   CNO35991  16.141  15.663   8.406 -0.0168 -0.0399 -0.1211
70335POPS   PO435992  16.107  15.895   8.141 -0.2058 -0.2946  0.4129
70335POPS   GL135993  16.026  15.937   7.791 -0.0879 -0.3827  0.0756
70335POPS   GL235994  16.049  15.716   7.658  0.1047  0.1275  0.3860
70335POPS   C1A35995  16.282  16.154   7.460  0.0955 -0.1156  0.1314
70335POPS   D2A35996  16.439  16.439   7.114 -0.0596 -0.2832  0.0172
70335POPS   C3A35997  16.253  16.797   6.846 -0.1206  0.2392  0.1530
70335POPS   C4A35998  16.203  17.242   6.939  0.2859 -0.2983  0.3422
70335POPS   C1B35999  16.046  15.646   7.164 -0.3619 -0.0483 -0.1088
70335POPS   C2B36000  16.222  15.901   6.798 -0.1876 -0.1155  0.2921
70335POPS   C3B36001  16.377  15.957   6.357 -0.0206 -0.1400  0.1431
70335POPS   C4B36002  16.696  16.231   6.166 -0.0398 -0.0665 -0.2126
70336POPS   CNO36003  22.603  11.724   9.521  0.1681  0.1152 -0.0690
70336POPS   PO436004  22.632  11.963   9.232  0.2343  0.2621 -0.1713
70336POPS   GL136005  22.610  11.780   8.942 -0.0597 -0.0575  0.1019
70336POPS   GL236006  22.851  11.815   8.732 -0.0755 -0.0888  0.3358
70336POPS   C1A36007  22.680  11.347   8.819 -0.0760  0.0719 -0.0066
70336POPS   D2A36008  22.733  10.906   8.764  0.0287 -0.2088 -0.0666
70336POPS   C3A36009  22.936  10.772   8.360  0.0565  0.3235 -0.1438
70336POPS   C4A36010  23.007  10.450   8.043  0.2966  0.2313 -0.0601
70336POPS   C1B36011  22.893  11.747   8.293  0.1837 -0.0765  0.0950
70336POPS   C2B36012  22.598  11.959   7.982 -0.1737  0.1668 -0.4311
70336POPS   C3B36013  22.327  12.096   7.647  0.0715 -0.0945 -0.0937
70336POPS   C4B36014  21.957  12.098   7.328  0.1705  0.0619  0.1851
70337POPS   CNO36015   0.015  32.295  16.176 -0.3022  0.5416 -0.1157
70337POPS   PO436016   0.017  32.652  16.181  0.1154 -0.5202 -0.2154
70337POPS   GL136017   0.072  32.625  16.529 -0.2585  0.2172  0.0958
70337POPS   GL236018   0.215  32.813  16.645  0.2722  0.0754 -0.0159
70337POPS   C1A36019   0.308  32.384  16.884 -0.2087  0.0458  0.2686
70337POPS   D2A36020   0.566  32.321  17.275 -0.2063  0.1678 -0.1103
70337POPS   C3A36021   0.825  32.247  17.645 -0.0708 -0.0093  0.2415
70337POPS   C4A36022   0.999  32.159  18.030  0.0545 -0.3379 -0.1895
70337POPS   C1B36023  -0.003  32.772  17.042 -0.0249 -0.0026 -0.0341
70337POPS   C2B36024   0.123  32.764  17.449  0.4058  0.1585 -0.0784
70337POPS   C3B36025  -0.048  32.767  17.855  0.1403 -0.2627 -0.4042
70337POPS   C4B36026  -0.051  33.047  18.190  0.2210 -0.0300 -0.1444
70338POPS   CNO36027  31.493  12.557   8.890  0.0607 -0.4718 -0.0576
70338POPS   PO436028  31.317  12.255   8.856  0.0583  0.1588  0.3122
70338POPS   GL136029  31.129  12.134   8.526 -0.0048 -0.3444 -0.1968
70338POPS   GL236030  30.914  12.303   8.465  0.1955 -0.0908 -0.1150
70338POPS   C1A36031  31.261  12.077   8.098  0.1042 -0.0489 -0.1146
70338POPS   D2A36032  31.236  11.628   7.913 -0.0227  0.1116  0.1873
70338POPS   C3A36033  31.180  11.470   7.533  0.1544 -0.2002 -0.1980
70338POPS   C4A36034  31.074  11.146   7.265  0.1478 -0.5005 -0.1520
70338POPS   C1B36035  30.802  11.923   8.266 -0.2497  0.4684  0.0245
70338POPS   C2B36036  30.710  11.552   7.984 -0.0078  0.4209 -0.0126
70338POPS   C3B36037  30.629  11.420   7.547 -0.2450 -0.0534 -0.2771
70338POPS   C4B36038  30.529  11.292   7.141  0.0339 -0.0401 -0.0378
70339POPS   CNO36039  31.939   5.131   9.978  0.2312  0.0272  0.3701
70339POPS   PO436040  31.852   5.205   9.635  0.2016 -0.1196 -0.3280
70339POPS   GL136041  31.934   5.155   9.264 -0.3327 -0.0080  0.0367
70339POPS   GL236042  32.208   5.305   9.253  0.0716 -0.1578  0.0701
70339POPS   C1A36043  31.783   5.229   8.833  0.0075  0.1321 -0.0035
70339POPS   D2A36044  31.692   5.335   8.393  0.2285 -0.0371  0.2512
70339POPS   C3A36045  31.694   5.020   8.035  0.1045 -0.0328 -0.1298
70339POPS   C4A36046  31.580   4.651   7.775 -0.0948 -0.0699 -0.2197
70339POPS   C1B36047  31.986   5.600   9.018 -0.1462 -0.3285  0.0849
70339POPS   C2B36048  31.844   5.737   8.586  0.3766 -0.1679  0.1243
70339POPS   C3B36049  31.413   5.835   8.325 -0.1207  0.1492  0.0193
70339POPS   C4B36050  31.333   5.885   7.822  0.2572  0.0351 -0.3763
70340POPS   CNO36051  26.731  15.511   9.480  0.2375 -0.2007 -0.2283
70340POPS   PO436052  26.362  15.683   9.393 -0.0618  0.0558  0.1166
70340POPS   GL136053  26.283  15.724   8.958 -0.2473 -0.6985  0.2805
70340POPS   GL236054  26.234  15.474   8.768  0.1376  0.1518  0.1403
70340POPS   C1A36055  26.181  15.987   8.621 -0.0027  0.2113 -0.1169
70340POPS   D2A36056  26.086  15.967   8.198  0.0362 -0.1176 -0.0542
70340POPS   C3A36057  26.146  16.271   7.874 -0.0775  0.0746 -0.1768
70340POPS   C4A36058  26.185  16.622   7.535 -0.0779 -0.0990  0.2165
70340POPS   C1B36059  26.265  15.459   8.338  0.0294  0.0034 -0.0870
70340POPS   C2B36060  26.348  15.515   7.882  0.0829 -0.1240 -0.2822
70340POPS   C3B36061  26.450  15.365   7.485  0.2187 -0.0840 -0.1243
70340POPS   C4B36062  26.470  15.625   7.121 -0.2722 -0.1498 -0.0194
70341POPS   CNO36063  18.285  10.231   8.968 -0.0226 -0.0289 -0.0233
70341POPS   PO436064  18.445  10.550   8.956 -0.2582  0.1693 -0.1299
70341POPS   GL136065  18.458  10.556   8.521 -0.2481  0.0825 -0.1898
70341POPS   GL236066  18.469  10.330   8.324  0.1368 -0.0136  0.2276
70341POPS   C1A36067  18.559  10.896   8.218  0.2983 -0.1845  0.1387
70341POPS   D2A36068  18.624  11.055   7.766 -0.1064 -0.1755 -0.0715
70341POPS   C3A36069  18.653  10.775   7.392 -0.0161  0.2063  0.1719
70341POPS   C4A36070  18.737  10.776   6.983 -0.0604  0.1488  0.1714
70341POPS   C1B36071  18.292  10.212   7.859 -0.0048  0.3947 -0.0094
70341POPS   C2B36072  18.231   9.986   7.429 -0.1971 -0.4086 -0.0066
70341POPS   C3B36073  18.345  10.051   6.995  0.3959 -0.0781 -0.0833
70341POPS   C4B36074  18.456   9.760   6.588  0.0210 -0.0778 -0.2911
70342POPS   CNO36075  20.707  32.578  15.455 -0.0775  0.0211 -0.1146
70342POPS   PO436076  20.634  32.593  15.845 -0.0990  0.0914  0.0917
70342POPS   GL136077  20.785  32.796  16.098  0.0304 -0.4980  0.1799
70342POPS   GL236078  20.709  32.648  16.332 -0.0165  0.2869 -0.0444
70342POPS   C1A36079  21.124  32.962  16.395  0.0950  0.0723  0.0996
70342POPS   D2A36080  21.348  33.208  16.691  0.0699 -0.2089  0.3307
70342POPS   C3A36081  21.336  33.317  17.145  0.0194 -0.0165 -0.0094
70342POPS   C4A36082  21.052  33.522  17.484  0.1384  0.2084 -0.1278
70342POPS   C1B36083  20.926  32.695  16.738 -0.1959  0.1624 -0.0842
70342POPS   C2B36084  21.358  32.749  16.885  0.0353 -0.2009 -0.0055
70342POPS   C3B36085  21.635  32.831  17.234  0.2627 -0.0681 -0.0112
70342POPS   C4B36086  21.659  33.176  17.540  0.2167  0.1321 -0.1797
70343POPS   CNO36087  30.992   4.750  11.464 -0.0306  0.0287 -0.0626
70343POPS   PO436088  30.774   5.051  11.698  0.0380 -0.1428  0.0486
70343POPS   GL136089  30.500   5.273  11.664 -0.2529  0.0512  0.0466
70343POPS   GL236090  30.266   5.157  11.438  0.0598  0.0606 -0.1911
70343POPS   C1A36091  30.046   5.528  11.634 -0.0055 -0.1437 -0.1654
70343POPS   D2A36092  29.604   5.525  11.495  0.0107  0.0441 -0.1220
70343POPS   C3A36093  29.472   5.888  11.815  0.0087  0.1451  0.0257
70343POPS   C4A36094  28.991   6.000  11.925 -0.1400 -0.0484 -0.0689
70343POPS   C1B36095  29.785   5.051  11.544 -0.3348  0.1679  0.0719
70343POPS   C2B36096  29.373   5.083  11.640 -0.1053 -0.1877 -0.0481
70343POPS   C3B36097  29.111   5.453  11.639 -0.2218  0.2736 -0.0511
70343POPS   C4B36098  29.106   5.848  11.460  0.0065 -0.0075 -0.1243
70344POPS   CNO36099  23.139   0.062  13.764  0.1016 -0.2615  0.0106
70344POPS   PO436100  23.217   0.380  13.904  0.1415  0.2031 -0.0714
70344POPS   GL136101  23.553   0.547  14.083 -0.2628 -0.1378 -0.2448
70344POPS   GL236102  23.561   0.783  13.904  0.2642 -0.0703 -0.0698
70344POPS   C1A36103  23.769   0.845  14.424 -0.2078 -0.2135  0.2185
70344POPS   D2A36104  24.232   0.952  14.491 -0.1380  0.1914 -0.1051
70344POPS   C3A36105  24.531   1.253  14.253 -0.0020 -0.2890  0.0590
70344POPS   C4A36106  24.616   1.669  14.150  0.1274 -0.1738 -0.1784
70344POPS   C1B36107  23.539   1.171  14.183 -0.0879  0.1410  0.0942
70344POPS   C2B36108  23.540   1.393  14.555  0.1198  0.2002 -0.0436
70344POPS   C3B36109  23.777   1.682  14.839  0.0746 -0.0198 -0.2888
70344POPS   C4B36110  23.677   1.973  15.222  0.3746  0.0553  0.1053
70345POPS   CNO36111  30.780  11.185   9.249  0.0420 -0.0426  0.0084
70345POPS   PO436112  31.070  11.362   9.014 -0.0860 -0.0234 -0.0953
70345POPS   GL136113  30.841  11.481   8.596  0.3561 -0.0372 -0.1437
70345POPS   GL236114  30.615  11.477   8.446 -0.1691  0.2337  0.1221
70345POPS   C1A36115  31.010  11.218   8.246  0.0645  0.1033 -0.2824
70345POPS   D2A36116  31.005  11.117   7.813  0.0127 -0.2272  0.0785
70345POPS   C3A36117  30.678  10.943   7.518 -0.0554  0.0370  0.4401
70345POPS   C4A36118  30.234  10.974   7.390 -0.1594  0.0621 -0.1308
70345POPS   C1B36119  30.305  11.299   8.130  0.0003  0.1001  0.2721
70345POPS   C2B36120  30.009  11.162   7.805  0.4672 -0.2686 -0.4498
70345POPS   C3B36121  29.686  11.110   7.425  0.0124 -0.1162 -0.1540
70345POPS   C4B36122  29.789  11.240   6.945  0.3077  0.1850  0.1186
70346POPS   CNO36123  31.439   6.186  10.617 -0.1002 -0.0917  0.1830
70346POPS   PO436124  31.038   6.096  10.722 -0.0854 -0.1036 -0.1237
70346POPS   GL136125  30.748   5.931  10.613  0.1332 -0.0149 -0.0203
70346POPS   GL236126  30.865   5.754  10.368 -0.0209  0.0325 -0.2764
70346POPS   C1A36127  30.424   6.002  10.348 -0.2143  0.1602  0.0158
70346POPS   D2A36128  30.070   5.996  10.100  0.0327 -0.2884  0.0745
70346POPS   C3A36129  29.640   6.097   9.921 -0.0545 -0.0026  0.2260
70346POPS   C4A36130  29.262   6.319   9.920  0.1671  0.0946 -0.0314
70346POPS   C1B36131  30.784   5.669   9.934  0.0777 -0.2124 -0.0146
70346POPS   C2B36132  30.834   5.434   9.572  0.0186 -0.2850 -0.0506
70346POPS   C3B36133  30.901   5.350   9.121 -0.2518 -0.1945  0.4137
70346POPS   C4B36134  30.872   5.482   8.709  0.0144 -0.0127  0.0153
70347POPS   CNO36135  17.023   0.168   8.504  0.4380  0.2398 -0.1528
70347POPS   PO436136  16.932  -0.083   8.204  0.0210 -0.0071 -0.2819
70347POPS   GL136137  16.874  -0.226   7.825 -0.2064  0.0232 -0.0037
70347POPS   GL236138  17.028  -0.466   7.800  0.1003  0.0285 -0.0366
70347POPS   C1A36139  16.693  -0.459   7.450  0.0160  0.0632  0.0660
70347POPS   D2A36140  16.399  -0.349   7.142 -0.3760 -0.0335  0.0869
70347POPS   C3A36141  16.040  -0.053   7.113  0.0644  0.2877  0.0891
70347POPS   C4A36142  15.953   0.361   6.868  0.2656 -0.1413  0.0750
70347POPS   C1B36143  17.298  -0.275   7.453  0.4519 -0.1677 -0.1637
70347POPS   C2B36144  17.352  -0.158   7.009 -0.1205  0.3016  0.2072
70347POPS   C3B36145  17.225  -0.038   6.590 -0.1076 -0.1135  0.3512
70347POPS   C4B36146  17.471   0.270   6.355 -0.1793 -0.0595  0.1272
70348POPS   CNO36147  17.365  10.339   8.921  0.0853 -0.0387 -0.1704
70348POPS   PO436148  17.581  10.420   8.616  0.2363 -0.2588  0.4231
70348POPS   GL136149  17.401  10.248   8.358  0.0993 -0.0140  0.0011
70348POPS   GL236150  17.538   9.979   8.438  0.3343  0.0396  0.0894
70348POPS   C1A36151  17.456  10.077   7.932 -0.1358 -0.1126 -0.0310
70348POPS   D2A36152  17.299   9.866   7.554  0.0507  0.0291  0.0554
70348POPS   C3A36153  17.046  10.105   7.304 -0.2186 -0.0101 -0.0997
70348POPS   C4A36154  16.637  10.113   7.190 -0.3267 -0.0842 -0.2571
70348POPS   C1B36155  17.561   9.636   8.165 -0.1804  0.5623 -0.2129
70348POPS   C2B36156  17.628   9.424   7.762  0.2001 -0.0433 -0.1236
70348POPS   C3B36157  17.857   9.663   7.451  0.0201  0.1023 -0.1086
70348POPS   C4B36158  18.055   9.566   7.091  0.0606 -0.3292  0.0715
70349POPS   CNO36159  31.726   6.249  10.093  0.1564 -0.2049  0.1695
70349POPS   PO436160  31.584   5.912  10.166 -0.0108  0.0793  0.0288
70349POPS   GL136161  31.225   5.828   9.918  0.0706  0.0567 -0.2602
70349POPS   GL236162  31.089   6.174   9.911 -0.1799 -0.0440  0.0996
70349POPS   C1A36163  31.147   5.775   9.439 -0.0064 -0.2108 -0.1015
70349POPS   D2A36164  31.097   5.785   9.044  0.1025  0.0438 -0.0229
70349POPS   C3A36165  30.830   6.205   8.967 -0.0603 -0.0285  0.1614
70349POPS   C4A36166  30.670   6.626   9.022 -0.0570  0.0740  0.0894
70349POPS   C1B36167  30.772   6.003   9.565  0.2357 -0.1220 -0.0690
70349POPS   C2B36168  30.619   5.776   9.208  0.0330 -0.0860 -0.2208
70349POPS   C3B36169  30.419   5.758   8.829 -0.0529  0.2180  0.3281
70349POPS   C4B36170  30.119   5.804   8.501  0.2029  0.3380 -0.3113
70350POPS   CNO36171  20.451  11.980   8.464  0.1121 -0.0896 -0.0767
70350POPS   PO436172  20.129  12.080   8.604 -0.1282  0.0110 -0.0200
70350POPS   GL136173  20.055  12.060   8.172  0.0024 -0.2563  0.0641
70350POPS   GL236174  19.969  11.893   7.965 -0.2126  0.2326 -0.1349
70350POPS   C1A36175  20.429  12.101   7.930 -0.0365 -0.0015 -0.0677
70350POPS   D2A36176  20.685  11.836   7.767 -0.0970  0.0540  0.1082
70350POPS   C3A36177  20.947  11.830   7.424  0.1988 -0.0083 -0.2047
70350POPS   C4A36178  21.086  11.788   6.968 -0.1487 -0.0294 -0.2791
70350POPS   C1B36179  20.145  11.873   7.553  0.2277  0.1663  0.0369
70350POPS   C2B36180  20.026  11.622   7.190 -0.3183 -0.2558 -0.0230
70350POPS   C3B36181  20.264  11.322   6.930 -0.2463  0.1451  0.0278
70350POPS   C4B36182  20.578  11.175   6.607 -0.0659 -0.0702 -0.0235
70351POPS   CNO36183  17.521   6.361   9.782 -0.1854 -0.1063  0.2334
70351POPS   PO436184  17.374   6.367   9.413  0.1081 -0.1073 -0.1787
70351POPS   GL136185  17.346   6.300   9.012  0.2381  0.1731  0.0630
70351POPS   GL236186  17.270   6.152   8.742 -0.1274  0.2425 -0.0750
70351POPS   C1A36187  17.719   6.478   8.806 -0.3396  0.1223  0.2675
70351POPS   D2A36188  18.133   6.393   8.482 -0.0392  0.1323 -0.2596
70351POPS   C3A36189  17.994   6.413   8.049 -0.0612 -0.1461 -0.0375
70351POPS   C4A36190  17.827   6.303   7.609 -0.1103  0.1573 -0.0522
70351POPS   C1B36191  16.952   6.253   8.445 -0.0748 -0.6233 -0.0935
70351POPS   C2B36192  16.727   6.331   8.040 -0.2367  0.3023 -0.0256
70351POPS   C3B36193  16.657   6.314   7.614  0.1253 -0.0608 -0.2583
70351POPS   C4B36194  16.545   6.608   7.245  0.3312 -0.0936 -0.0414
70352POPS   CNO36195  20.308  11.472   7.974 -0.1191  0.2732  0.0979
70352POPS   PO436196  20.476  11.548   8.279  0.0421  0.6085  0.2356
70352POPS   GL136197  20.789  11.456   8.000 -0.1092 -0.3866  0.0437
70352POPS   GL236198  20.976  11.287   8.122 -0.1794 -0.2341  0.2277
70352POPS   C1A36199  20.844  11.208   7.632 -0.3591  0.2604 -0.0587
70352POPS   D2A36200  21.081  10.872   7.356 -0.2140 -0.2154  0.2363
70352POPS   C3A36201  20.920  10.756   6.922 -0.0849 -0.2655  0.0743
70352POPS   C4A36202  21.242  10.663   6.626  0.1501 -0.0144 -0.2917
70352POPS   C1B36203  21.282  11.079   7.923 -0.0834  0.2112  0.0015
70352POPS   C2B36204  21.484  10.921   7.591  0.0127  0.2488  0.2288
70352POPS   C3B36205  21.855  10.637   7.370 -0.2752  0.1598 -0.2263
70352POPS   C4B36206  22.016  10.466   7.028 -0.0994 -0.0993 -0.0609
70353POPS   CNO36207  19.366   0.239   8.467 -0.0581  0.1123 -0.0046
70353POPS   PO436208  19.678   0.019   8.613  0.0646 -0.2736 -0.1086
70353POPS   GL136209  19.707   0.183   8.248 -0.0974 -0.3257 -0.2056
70353POPS   GL236210  19.941   0.210   7.968  0.1033  0.0792  0.2418
70353POPS   C1A36211  19.480   0.531   8.020 -0.0320 -0.0876  0.0047
70353POPS   D2A36212  19.200   0.553   7.650  0.6103 -0.0623  0.0532
70353POPS   C3A36213  18.958   0.954   7.568 -0.1947  0.2674 -0.4172
70353POPS   C4A36214  18.777   1.383   7.638 -0.2454 -0.0485 -0.4306
70353POPS   C1B36215  19.689   0.249   7.519  0.3263  0.0116  0.0015
70353POPS   C2B36216  19.543   0.248   7.053 -0.2341  0.0679  0.3604
70353POPS   C3B36217  19.278  -0.039   6.755 -0.0901  0.0230 -0.3209
70353POPS   C4B36218  19.166  -0.343   6.473  0.2461  0.2319  0.0590
70354POPS   CNO36219  22.043   8.944  10.862  0.1470 -0.1681 -0.0541
70354POPS   PO436220  22.391   9.001  10.894 -0.2192  0.1909 -0.2434
70354POPS   GL136221  22.607   8.676  10.849 -0.1186 -0.1681 -0.2855
70354POPS   GL236222  22.740   8.770  10.595 -0.2705  0.1302  0.0639
70354POPS   C1A36223  22.688   8.274  10.998 -0.2336  0.0477  0.2508
70354POPS   D2A36224  22.890   7.953  11.150  0.0839  0.0354  0.0911
70354POPS   C3A36225  23.186   7.753  10.860 -0.1887  0.1205 -0.2046
70354POPS   C4A36226  23.537   7.460  10.848  0.0625  0.2500 -0.0547
70354POPS   C1B36227  22.925   8.341  10.501 -0.1426  0.0009 -0.4390
70354POPS   C2B36228  23.187   7.973  10.369 -0.1267 -0.1492  0.2216
70354POPS   C3B36229  23.418   7.540  10.338 -0.0435 -0.0114  0.1206
70354POPS   C4B36230  23.619   7.167  10.229  0.3294 -0.3458 -0.0075
70355POPS   CNO36231  16.922   5.303   9.950 -0.0913 -0.1981  0.0565
70355POPS   PO436232  16.811   5.197   9.633 -0.1342 -0.1878  0.2307
70355POPS   GL136233  16.855   5.285   9.182  0.0626  0.1080  0.1208
70355POPS   GL236234  16.714   5.041   9.133  0.2245  0.1398 -0.1105
70355POPS   C1A36235  16.537   5.456   8.947 -0.2160 -0.1167  0.3041
70355POPS   D2A36236  16.282   5.589   8.589 -0.0652 -0.1576 -0.0455
70355POPS   C3A36237  16.205   5.258   8.162  0.0048 -0.2218  0.1784
70355POPS   C4A36238  15.945   5.094   7.805  0.0691  0.0557 -0.1175
70355POPS   C1B36239  16.779   5.173   8.673  0.0777  0.0136  0.3732
70355POPS   C2B36240  16.742   5.454   8.359  0.0054  0.0209 -0.1804
70355POPS   C3B36241  16.696   5.384   7.931 -0.2675  0.1184 -0.2402
70355POPS   C4B36242  16.399   5.239   7.631  0.0439 -0.2458  0.2804
70356POPS   CNO36243   0.833   7.710   9.633  0.1197  0.1758  0.1810
70356POPS   PO436244   1.157   7.645   9.415 -0.0376  0.0408 -0.0844
70356POPS   GL136245   1.362   7.750   9.052 -0.2568 -0.1166 -0.3148
70356POPS   GL236246   1.195   7.998   9.016 -0.3395 -0.1941  0.0547
70356POPS   C1A36247   1.577   7.686   8.646 -0.2067 -0.0365  0.2853
70356POPS   D2A36248   1.828   7.472   8.303 -0.2741 -0.4450  0.1132
70356POPS   C3A36249   2.242   7.626   8.440 -0.1065  0.4303  0.1356
70356POPS   C4A36250   2.669   7.770   8.307  0.0054 -0.2059  0.0658
70356POPS   C1B36251   1.013   7.935   8.589 -0.1356 -0.1223 -0.2758
70356POPS   C2B36252   1.099   7.793   8.114  0.2227  0.1176 -0.1528
70356POPS   C3B36253   1.148   7.761   7.684 -0.2726  0.0093 -0.3371
70356POPS   C4B36254   1.259   8.135   7.444  0.0357  0.0416  0.0031
70357POPS   CNO36255  30.342  16.487   8.738  0.2195  0.6321 -0.0373
70357POPS   PO436256  29.977  16.297   8.752 -0.0342 -0.0539 -0.1493
70357POPS   GL136257  29.705  16.324   8.352  0.0846  0.0952 -0.3217
70357POPS   GL236258  29.686  16.090   8.162 -0.0602  0.2016 -0.0168
70357POPS   C1A36259  29.550  16.706   8.135 -0.0283 -0.0057  0.2896
70357POPS   D2A36260  29.285  16.854   7.772 -0.0045  0.0993 -0.2627
70357POPS   C3A36261  28.986  17.123   7.560 -0.0410  0.1188 -0.0761
70357POPS   C4A36262  29.044  17.468   7.266  0.1478 -0.0626 -0.2198
70357POPS   C1B36263  29.456  16.344   7.806 -0.1338  0.0021 -0.1110
70357POPS   C2B36264  29.303  16.487   7.429 -0.1013 -0.1545  0.3157
70357POPS   C3B36265  29.349  16.893   7.216  0.3224  0.1683 -0.0531
70357POPS   C4B36266  29.598  17.273   7.431  0.2714 -0.2635 -0.0206
70358POPS   CNO36267  19.159   9.564   9.117  0.2236  0.0080 -0.1529
70358POPS   PO436268  19.050   9.897   8.968 -0.1279 -0.2102 -0.2242
70358POPS   GL136269  19.140   9.900   8.561 -0.1504  0.3360  0.3340
70358POPS   GL236270  19.291   9.620   8.524  0.0597  0.2170  0.2991
70358POPS   C1A36271  18.902   9.841   8.145 -0.0521 -0.2458  0.2106
70358POPS   D2A36272  18.521   9.714   7.862 -0.1414  0.2477  0.0487
70358POPS   C3A36273  18.519   9.360   7.584 -0.0160 -0.3789  0.1495
70358POPS   C4A36274  18.440   9.129   7.226  0.1292  0.0727 -0.3373
70358POPS   C1B36275  19.447   9.710   8.074 -0.1118  0.0928  0.3728
70358POPS   C2B36276  19.283   9.717   7.665  0.2195  0.2305 -0.1205
70358POPS   C3B36277  19.267   9.753   7.197 -0.0619 -0.1307 -0.3017
70358POPS   C4B36278  18.969   9.845   6.855 -0.0455 -0.0222  0.0392
70359POPS   CNO36279  22.119  14.971   9.058  0.1192  0.5026  0.1425
70359POPS   PO436280  22.432  14.918   8.838 -0.2728  0.1970 -0.1497
70359POPS   GL136281  22.678  14.987   8.564  0.0858  0.2108 -0.0642
70359POPS   GL236282  22.630  14.867   8.250 -0.1549  0.3087  0.0010
70359POPS   C1A36283  23.011  15.199   8.277  0.0736 -0.0575 -0.1502
70359POPS   D2A36284  23.403  15.442   8.078 -0.0624 -0.0364 -0.0511
70359POPS   C3A36285  23.630  15.118   8.263  0.0903  0.0327 -0.0965
70359POPS   C4A36286  24.078  15.001   8.177 -0.5105 -0.1748 -0.1112
70359POPS   C1B36287  22.747  15.086   7.841 -0.0896 -0.2513  0.0885
70359POPS   C2B36288  22.652  15.289   7.446 -0.1260 -0.0053  0.1494
70359POPS   C3B36289  22.748  15.488   7.051 -0.1353  0.0809  0.0763
70359POPS   C4B36290  22.923  15.652   6.662  0.2397  0.2714  0.1772
70360POPS   CNO36291  20.797  15.789   8.751 -0.1591  0.0303 -0.1386
70360POPS   PO436292  20.500  16.041   8.867  0.0799 -0.3839 -0.0430
70360POPS   GL136293  20.621  16.188   8.501  0.0416 -0.2431 -0.2317
70360POPS   GL236294  20.630  16.465   8.450  0.2732 -0.1612 -0.3588
70360POPS   C1A36295  20.487  16.113   8.067  0.3302 -0.1294 -0.0840
70360POPS   D2A36296  20.300  16.105   7.677  0.0904 -0.2288 -0.1837
70360POPS   C3A36297  19.893  16.153   7.431 -0.5601  0.0051 -0.0105
70360POPS   C4A36298  19.504  15.976   7.275 -0.3715  0.0534  0.0325
70360POPS   C1B36299  20.793  16.494   8.015  0.0218  0.4066  0.2432
70360POPS   C2B36300  20.747  16.326   7.603  0.1271 -0.0865 -0.1864
70360POPS   C3B36301  20.711  16.322   7.152  0.4430  0.0539  0.3687
70360POPS   C4B36302  20.741  16.263   6.669 -0.0296 -0.1317 -0.1131
70361POPS   CNO36303  29.149   0.845  13.898 -0.1188  0.0817  0.2226
70361POPS   PO436304  28.986   1.162  13.912 -0.2993  0.0223 -0.0393
70361POPS   GL136305  28.896   1.534  13.860 -0.1324  0.3252  0.1945
70361POPS   GL236306  28.795   1.582  13.591 -0.1704  0.0226 -0.0831
70361POPS   C1A36307  28.811   1.846  14.179  0.3795 -0.0457 -0.1094
70361POPS   D2A36308  28.788   2.028  14.636 -0.1313 -0.2200 -0.2296
70361POPS   C3A36309  28.724   2.315  14.954 -0.1122  0.0233 -0.0273
70361POPS   C4A36310  28.875   2.555  15.313  0.0371 -0.0858  0.1683
70361POPS   C1B36311  28.615   1.979  13.706  0.1692  0.0806 -0.0078
70361POPS   C2B36312  28.262   2.319  13.753  0.0596 -0.1832  0.1746
70361POPS   C3B36313  27.939   2.641  13.901  0.2757 -0.0574  0.0680
70361POPS   C4B36314  27.535   2.835  13.710 -0.2745  0.1069 -0.1368
70362POPS   CNO36315  24.578   5.225   7.491  0.2158  0.0435  0.1512
70362POPS   PO436316  24.175   5.213   7.440 -0.0587  0.0918 -0.0079
70362POPS   GL136317  23.879   5.165   7.687  0.1099 -0.4702 -0.1285
70362POPS   GL236318  23.806   5.443   7.776  0.3633  0.0227  0.0430
70362POPS   C1A36319  23.448   5.120   7.732 -0.0701  0.1242  0.2188
70362POPS   D2A36320  22.993   5.258   7.889  0.1700  0.2110  0.0000
70362POPS   C3A36321  22.799   4.950   8.131 -0.0060 -0.0037 -0.1206
70362POPS   C4A36322  22.330   4.867   8.406 -0.3791  0.1969  0.3731
70362POPS   C1B36323  23.386   5.665   7.842 -0.2736 -0.1104 -0.2809
70362POPS   C2B36324  23.345   5.906   8.235 -0.1787 -0.1896  0.2873
70362POPS   C3B36325  23.119   6.225   8.574  0.1285  0.3108  0.0007
70362POPS   C4B36326  22.712   6.324   8.796  0.1831  0.3938 -0.1099
70363POPS   CNO36327  28.578   5.478   6.585 -0.1792 -0.0566 -0.2257
70363POPS   PO436328  28.606   5.496   6.967 -0.0772 -0.0704  0.1516
70363POPS   GL136329  28.677   5.548   7.314 -0.2098  0.3014 -0.2179
70363POPS   GL236330  28.759   5.802   7.369 -0.0051  0.0197  0.1023
70363POPS   C1A36331  28.806   5.141   7.580 -0.1619  0.0013  0.0206
70363POPS   D2A36332  28.847   4.793   7.865  0.4314 -0.0623  0.2623
70363POPS   C3A36333  29.179   4.638   8.151  0.2523 -0.0540  0.0985
70363POPS   C4A36334  29.379   4.468   8.583 -0.1096  0.0381 -0.1460
70363POPS   C1B36335  28.826   5.577   7.775 -0.1415 -0.1373 -0.0446
70363POPS   C2B36336  28.998   5.340   8.063  0.2032 -0.0633 -0.0238
70363POPS   C3B36337  29.101   5.067   8.409  0.1763  0.0953 -0.1731
70363POPS   C4B36338  29.258   4.891   8.814  0.0124  0.0100  0.1688
70364POPS   CNO36339  31.017   2.932   4.439 -0.0202 -0.1758  0.0284
70364POPS   PO436340  31.241   2.912   4.740 -0.0030 -0.0421  0.0967
70364POPS   GL136341  31.421   2.715   5.054 -0.0478 -0.0046  0.1930
70364POPS   GL236342  31.189   2.748   5.216  0.1773  0.0635  0.1648
70364POPS   C1A36343  31.820   2.553   5.197 -0.0975  0.3498  0.0747
70364POPS   D2A36344  31.865   2.189   5.526  0.0386 -0.0111  0.1309
70364POPS   C3A36345  31.876   2.240   5.991  0.0618 -0.1504 -0.0182
70364POPS   C4A36346  31.583   2.361   6.322  0.0052  0.2735  0.0976
70364POPS   C1B36347  31.166   2.973   5.635 -0.2735  0.1154  0.4483
70364POPS   C2B36348  31.273   3.324   5.854 -0.1904  0.0433 -0.1461
70364POPS   C3B36349  31.389   3.306   6.295  0.0443 -0.0484 -0.1179
70364POPS   C4B36350  31.319   3.290   6.783 -0.1295  0.0888  0.0648
70365POPS   CNO36351  26.214   7.357   9.064 -0.0995  0.0131  0.1092
70365POPS   PO436352  25.939   7.126   9.001 -0.3541 -0.1849  0.0272
70365POPS   GL136353  25.787   7.566   9.002  0.1930  0.1188  0.0334
70365POPS   GL236354  25.960   7.745   9.124 -0.1151  0.1214  0.0772
70365POPS   C1A36355  25.490   7.860   9.195 -0.2040 -0.3090  0.3432
70365POPS   D2A36356  25.325   8.010   9.620  0.3311 -0.3437 -0.0279
70365POPS   C3A36357  25.561   8.046   9.993  0.1387 -0.1455 -0.3002
70365POPS   C4A36358  25.703   8.048  10.434 -0.1869 -0.1906 -0.2139
70365POPS   C1B36359  25.824   8.167   9.267 -0.4117  0.0301  0.1902
70365POPS   C2B36360  25.718   8.291   9.618 -0.1167 -0.1072 -0.2155
70365POPS   C3B36361  25.313   8.459   9.921  0.1465 -0.0233  0.3114
70365POPS   C4B36362  24.878   8.647   9.972 -0.1092  0.2192 -0.2269
70366POPS   CNO36363  26.658   4.915   7.443 -0.0912  0.1644  0.0560
70366POPS   PO436364  26.366   4.683   7.553 -0.0525 -0.1781  0.0329
70366POPS   GL136365  26.264   4.320   7.766 -0.0097 -0.1230  0.1403
70366POPS   GL236366  26.311   4.468   8.055  0.0482  0.1866 -0.0460
70366POPS   C1A36367  26.471   3.929   7.867 -0.1036  0.1624 -0.1069
70366POPS   D2A36368  26.606   3.537   8.080  0.0421  0.1005 -0.2426
70366POPS   C3A36369  27.032   3.544   8.023 -0.2120  0.0503  0.1330
70366POPS   C4A36370  27.405   3.633   7.738 -0.0779 -0.0844  0.2682
70366POPS   C1B36371  26.476   4.163   8.288 -0.0408  0.2517 -0.1245
70366POPS   C2B36372  26.894   3.958   8.271 -0.1134 -0.3660 -0.1053
70366POPS   C3B36373  27.266   3.876   8.592  0.0834  0.2708  0.1863
70366POPS   C4B36374  27.364   3.575   8.883 -0.1847  0.1521  0.0929
70367POPS   CNO36375  27.600   4.615   7.124  0.0642  0.2337 -0.4467
70367POPS   PO436376  27.859   4.782   6.940 -0.0228 -0.0698  0.1307
70367POPS   GL136377  28.005   4.413   7.007  0.0015  0.2014  0.1142
70367POPS   GL236378  27.837   4.199   7.065 -0.0764 -0.0634  0.2070
70367POPS   C1A36379  28.354   4.158   7.166  0.1921 -0.0121 -0.0011
70367POPS   D2A36380  28.693   4.005   7.388  0.0523 -0.0096 -0.1978
70367POPS   C3A36381  28.881   3.882   7.855  0.3991  0.0186  0.2029
70367POPS   C4A36382  29.224   3.589   7.924  0.0644 -0.0451 -0.1402
70367POPS   C1B36383  27.904   4.004   7.442  0.0085  0.0532  0.0209
70367POPS   C2B36384  27.942   3.738   7.789 -0.1189  0.0371  0.1113
70367POPS   C3B36385  28.049   3.437   8.087 -0.0180  0.1398 -0.0761
70367POPS   C4B36386  27.958   3.268   8.569 -0.0686 -0.0917 -0.1399
70368POPS   CNO36387  25.669   3.910   7.094  0.0447  0.0617  0.1568
70368POPS   PO436388  25.377   3.673   7.129  0.0885 -0.5260  0.0025
70368POPS   GL136389  25.392   3.449   7.406  0.0397  0.3710  0.2917
70368POPS   GL236390  25.166   3.370   7.591  0.0917  0.3999  0.0993
70368POPS   C1A36391  25.612   3.499   7.767 -0.1333 -0.1304 -0.1382
70368POPS   D2A36392  25.560   3.679   8.177 -0.2494 -0.1377 -0.0474
70368POPS   C3A36393  25.880   3.356   8.275  0.1703 -0.0060  0.2840
70368POPS   C4A36394  26.124   3.085   8.513 -0.0878  0.3056  0.2267
70368POPS   C1B36395  25.120   2.973   7.792  0.0945  0.1555  0.2730
70368POPS   C2B36396  25.073   2.664   8.100  0.1439 -0.3446  0.3055
70368POPS   C3B36397  24.831   2.359   8.353 -0.0137 -0.0582  0.1031
70368POPS   C4B36398  24.741   1.978   8.604 -0.3113 -0.1370  0.0211
70369POPS   CNO36399  19.629  12.747   3.663  0.1736 -0.2145 -0.1634
70369POPS   PO436400  19.320  12.863   3.884  0.0574  0.0585 -0.0868
70369POPS   GL136401  19.247  12.870   4.318  0.1612 -0.1557  0.0140
70369POPS   GL236402  19.449  12.973   4.372  0.3253 -0.1960 -0.0486
70369POPS   C1A36403  18.952  12.778   4.639 -0.0243 -0.1453  0.1673
70369POPS   D2A36404  18.706  12.863   4.998 -0.0469 -0.1627  0.0820
70369POPS   C3A36405  18.725  12.982   5.435 -0.2211  0.1438 -0.1609
70369POPS   C4A36406  18.670  13.014   5.875 -0.2540 -0.0168  0.1930
70369POPS   C1B36407  19.206  13.228   4.636 -0.4985  0.1312 -0.3271
70369POPS   C2B36408  18.941  13.273   4.995  0.0696  0.2490  0.0537
70369POPS   C3B36409  18.923  13.406   5.489 -0.1782 -0.1290  0.0822
70369POPS   C4B36410  18.729  13.544   5.895  0.1435  0.3529  0.1915
70370POPS   CNO36411  21.957   6.696   5.480 -0.1158 -0.1210  0.0717
70370POPS   PO436412  21.957   6.424   5.751 -0.1255  0.1326  0.0411
70370POPS   GL136413  21.953   6.452   6.186 -0.1210 -0.2030 -0.1986
70370POPS   GL236414  21.691   6.577   6.181 -0.3440  0.0720 -0.1315
70370POPS   C1A36415  21.975   6.219   6.537  0.1973 -0.0694 -0.1215
70370POPS   D2A36416  21.839   5.820   6.815 -0.1928  0.1285  0.0606
70370POPS   C3A36417  21.982   5.697   7.211  0.0370 -0.0383 -0.0488
70370POPS   C4A36418  22.372   5.638   7.402  0.1730 -0.1810 -0.1578
70370POPS   C1B36419  21.310   6.474   6.379 -0.1536  0.2574  0.2691
70370POPS   C2B36420  21.085   6.604   6.778 -0.1857  0.1036  0.0480
70370POPS   C3B36421  20.796   6.798   7.077 -0.0409  0.1139 -0.1782
70370POPS   C4B36422  20.357   6.651   7.059  0.0490  0.1578  0.4165
70371POPS   CNO36423  28.302  15.555   4.858  0.1764 -0.2575 -0.5145
70371POPS   PO436424  28.174  15.307   4.613 -0.2474  0.2096 -0.1949
70371POPS   GL136425  28.206  15.031   4.955  0.1225  0.1907 -0.2825
70371POPS   GL236426  28.038  15.138   5.183  0.0593 -0.1582  0.0391
70371POPS   C1A36427  28.313  14.790   5.386 -0.0490  0.1030 -0.3276
70371POPS   D2A36428  27.896  14.839   5.620 -0.0901  0.0504  0.0313
70371POPS   C3A36429  27.848  14.798   6.109 -0.2440 -0.2282  0.2389
70371POPS   C4A36430  27.967  15.115   6.411  0.1442  0.0219  0.0712
70371POPS   C1B36431  27.912  15.303   5.631  0.2914  0.1897 -0.1147
70371POPS   C2B36432  27.610  15.314   5.984  0.0514  0.4347  0.1403
70371POPS   C3B36433  27.628  15.520   6.378  0.0413  0.0002 -0.3424
70371POPS   C4B36434  27.605  15.476   6.843 -0.4448  0.0140 -0.1225
70372POPS   CNO36435  19.965  16.005   4.327 -0.0033  0.0762  0.0536
70372POPS   PO436436  19.643  16.225   4.182  0.0623  0.1103 -0.4916
70372POPS   GL136437  19.495  16.250   4.550  0.0330 -0.1992 -0.1668
70372POPS   GL236438  19.744  16.336   4.680 -0.0399  0.0273  0.0190
70372POPS   C1A36439  19.137  16.519   4.702  0.1171 -0.2389  0.3018
70372POPS   D2A36440  18.678  16.561   4.784 -0.2214  0.1240  0.2598
70372POPS   C3A36441  18.427  16.768   5.110  0.2006  0.1979 -0.4527
70372POPS   C4A36442  18.113  17.085   5.181 -0.1041  0.2936  0.0412
70372POPS   C1B36443  19.511  15.919   4.841  0.0017  0.0281  0.1056
70372POPS   C2B36444  19.100  15.723   4.957  0.3016  0.2884  0.3187
70372POPS   C3B36445  18.772  15.447   5.213 -0.2075  0.1579 -0.2278
70372POPS   C4B36446  18.406  15.316   5.455 -0.1629  0.0503 -0.0293
70373POPS   CNO36447  26.776  15.292   4.660 -0.0312  0.2343  0.1095
70373POPS   PO436448  26.780  14.912   4.747  0.1341 -0.2324  0.3090
70373POPS   GL136449  26.726  14.984   5.204 -0.0015  0.0771  0.0215
70373POPS   GL236450  26.858  15.217   5.199  0.2612 -0.1832  0.3576
70373POPS   C1A36451  26.630  14.634   5.489 -0.0396  0.1684  0.2833
70373POPS   D2A36452  26.541  14.333   5.828 -0.1470 -0.0407  0.2258
70373POPS   C3A36453  26.565  14.333   6.294 -0.3158  0.0886 -0.0133
70373POPS   C4A36454  26.710  14.428   6.694 -0.0993 -0.4973  0.0703
70373POPS   C1B36455  27.078  14.950   5.506  0.1300 -0.1620 -0.0166
70373POPS   C2B36456  26.927  14.903   5.944 -0.0402 -0.3163 -0.0926
70373POPS   C3B36457  26.740  14.834   6.411 -0.3924 -0.1654 -0.0777
70373POPS   C4B36458  26.639  14.902   6.897  0.0690 -0.2300 -0.1648
70374POPS   CNO36459  25.801   4.662  10.992  0.2176 -0.1215 -0.2130
70374POPS   PO436460  25.802   4.934  11.235  0.4216  0.2020  0.3445
70374POPS   GL136461  25.725   4.669  11.478 -0.0819 -0.0111 -0.0360
70374POPS   GL236462  25.932   4.490  11.446  0.0583 -0.1025  0.0791
70374POPS   C1A36463  25.252   4.518  11.636  0.0999  0.0773  0.0539
70374POPS   D2A36464  24.958   4.180  11.827 -0.2581 -0.2217  0.2235
70374POPS   C3A36465  24.651   3.832  11.941 -0.0112 -0.0821  0.0587
70374POPS   C4A36466  24.398   3.497  11.903  0.1143  0.1542 -0.0962
70374POPS   C1B36467  26.081   4.049  11.583  0.1679 -0.1757  0.1810
70374POPS   C2B36468  26.452   3.789  11.647 -0.0033 -0.2179  0.0101
70374POPS   C3B36469  26.900   3.786  11.831 -0.0616  0.1983 -0.4221
70374POPS   C4B36470  27.290   3.588  12.021 -0.0647 -0.0985 -0.0031
70375POPS   CNO36471  19.799   9.839   4.795  0.0212  0.0123  0.0063
70375POPS   PO436472  19.466   9.624   4.841  0.1357  0.2149  0.4422
70375POPS   GL136473  19.433   9.783   5.172  0.0562 -0.2080 -0.1991
70375POPS   GL236474  19.690   9.740   5.324 -0.0813 -0.0619 -0.1447
70375POPS   C1A36475  19.289   9.663   5.596 -0.0849  0.1706  0.0487
70375POPS   D2A36476  19.353   9.940   6.019  0.1168 -0.0257  0.0233
70375POPS   C3A36477  19.425  10.283   6.306  0.1594  0.2875 -0.2278
70375POPS   C4A36478  19.618  10.479   6.685 -0.3673 -0.1972 -0.0778
70375POPS   C1B36479  19.702  10.064   5.638  0.2191 -0.4361 -0.0468
70375POPS   C2B36480  19.900  10.312   6.000 -0.2346 -0.0707 -0.2753
70375POPS   C3B36481  20.060  10.257   6.399  0.0647 -0.0778 -0.2081
70375POPS   C4B36482  20.228   9.904   6.642  0.1991  0.2772  0.0797
70376POPS   CNO36483  17.126  15.488   3.576 -0.1900  0.1698  0.2086
70376POPS   PO436484  17.275  15.821   3.593 -0.1839  0.1384 -0.2556
70376POPS   GL136485  17.307  15.662   3.994 -0.1524  0.3230  0.3439
70376POPS   GL236486  17.162  15.746   4.317  0.0002  0.3932  0.2995
70376POPS   C1A36487  17.487  15.394   4.314 -0.0542 -0.2191  0.1428
70376POPS   D2A36488  17.648  15.035   4.512 -0.1647 -0.0577 -0.0596
70376POPS   C3A36489  17.872  15.231   4.852 -0.1615  0.0390  0.2204
70376POPS   C4A36490  18.080  15.018   5.228  0.0459  0.0184 -0.2902
70376POPS   C1B36491  17.220  15.569   4.704  0.0665 -0.0761 -0.2531
70376POPS   C2B36492  17.520  15.530   5.066  0.4408 -0.0155 -0.1575
70376POPS   C3B36493  17.883  15.500   5.369  0.0151  0.2399 -0.1173
70376POPS   C4B36494  18.098  15.511   5.793  0.1433  0.1832 -0.0543
70377POPS   CNO36495  29.829   6.537   6.283 -0.2275 -0.0908 -0.3353
70377POPS   PO436496  29.652   6.554   6.592  0.0873  0.2209 -0.0581
70377POPS   GL136497  29.676   6.506   6.959  0.1942  0.0910  0.0838
70377POPS   GL236498  29.673   6.747   7.152 -0.0097  0.0927 -0.0148
70377POPS   C1A36499  30.085   6.345   7.154  0.3619 -0.0681  0.3170
70377POPS   D2A36500  30.247   6.144   7.563  0.3838 -0.2742  0.0456
70377POPS   C3A36501  30.620   6.123   7.734  0.0277 -0.0143  0.1397
70377POPS   C4A36502  30.929   6.213   8.107  0.2632  0.1613 -0.0560
70377POPS   C1B36503  29.690   7.009   7.542 -0.2535  0.1782 -0.2645
70377POPS   C2B36504  29.773   7.209   7.907  0.0468  0.2167  0.0412
70377POPS   C3B36505  30.195   7.395   8.026  0.2747 -0.3022 -0.0499
70377POPS   C4B36506  30.472   7.373   8.382  0.2386 -0.0270 -0.0962
70378POPS   CNO36507  25.627   5.381  11.084  0.4611 -0.1239  0.1900
70378POPS   PO436508  25.354   5.268  11.307  0.2612  0.1379  0.1653
70378POPS   GL136509  25.036   5.017  11.535 -0.0713 -0.0089  0.2809
70378POPS   GL236510  24.798   5.050  11.319  0.0451 -0.1171  0.1006
70378POPS   C1A36511  24.773   4.638  11.737 -0.1920 -0.2270  0.1941
70378POPS   D2A36512  24.492   4.316  11.930  0.0053 -0.0506  0.1576
70378POPS   C3A36513  24.210   4.383  12.256 -0.0246 -0.0878 -0.0867
70378POPS   C4A36514  23.812   4.234  12.411 -0.0023 -0.1218 -0.1278
70378POPS   C1B36515  24.399   4.967  11.594  0.0207 -0.1988  0.1381
70378POPS   C2B36516  23.980   5.017  11.863 -0.3540 -0.0881 -0.0943
70378POPS   C3B36517  23.729   4.654  12.077 -0.3125 -0.0468 -0.0235
70378POPS   C4B36518  23.348   4.416  12.261 -0.3128  0.2261 -0.0625
70379POPS   CNO36519  32.394   3.423   4.321  0.0452 -0.2065  0.0990
70379POPS   PO436520  32.347   3.569   4.634  0.1213 -0.2961 -0.1129
70379POPS   GL136521  32.317   3.475   5.090 -0.1555  0.0875  0.0016
70379POPS   GL236522  32.301   3.723   5.227 -0.0956 -0.0029  0.1224
70379POPS   C1A36523  32.591   3.360   5.425 -0.1442 -0.3816  0.2294
70379POPS   D2A36524  33.012   3.407   5.491  0.0206 -0.1573 -0.1782
70379POPS   C3A36525  33.113   3.204   5.877  0.2384  0.2372  0.1135
70379POPS   C4A36526  32.914   2.837   6.070 -0.1569  0.0278 -0.0976
70379POPS   C1B36527  32.222   3.768   5.637 -0.0245  0.2314  0.0974
70379POPS   C2B36528  32.462   3.727   6.047 -0.3859  0.0171  0.1504
70379POPS   C3B36529  32.787   3.880   6.417 -0.0828 -0.0549 -0.0283
70379POPS   C4B36530  32.822   4.080   6.797 -0.0076  0.1151 -0.1302
70380POPS   CNO36531  21.963   4.695   5.998  0.0385  0.0650 -0.1282
70380POPS   PO436532  22.066   4.365   6.168 -0.0186  0.0797 -0.0544
70380POPS   GL136533  21.986   4.265   6.519  0.0609 -0.1591 -0.0864
70380POPS   GL236534  22.175   4.088   6.657  0.0527  0.3172 -0.3700
70380POPS   C1A36535  21.687   4.382   6.821  0.0624 -0.0655  0.2358
70380POPS   D2A36536  21.412   4.505   7.168 -0.3627  0.0768 -0.1519
70380POPS   C3A36537  21.465   4.907   7.458  0.0795  0.1133 -0.1270
70380POPS   C4A36538  21.723   5.019   7.867  0.3005  0.0851  0.3007
70380POPS   C1B36539  22.017   4.104   7.088 -0.0193  0.0263  0.2384
70380POPS   C2B36540  21.809   4.196   7.469  0.2881 -0.1069 -0.0531
70380POPS   C3B36541  21.661   4.377   7.835 -0.2454  0.3247  0.1487
70380POPS   C4B36542  21.446   4.691   8.099 -0.0174 -0.0826 -0.0061
70381POPS   CNO36543  18.441   6.779   4.811  0.4045  0.0397  0.1767
70381POPS   PO436544  18.544   7.068   4.971  0.2071  0.3387  0.1408
70381POPS   GL136545  18.721   7.291   5.310  0.1225  0.3284  0.0296
70381POPS   GL236546  18.833   7.580   5.350 -0.0578  0.0511  0.0215
70381POPS   C1A36547  18.479   7.423   5.696  0.3562  0.0537 -0.1547
70381POPS   D2A36548  18.214   7.811   5.777 -0.0695 -0.2252  0.0167
70381POPS   C3A36549  17.713   7.780   5.797  0.3192 -0.0646 -0.0910
70381POPS   C4A36550  17.386   7.430   5.632  0.1939 -0.0493  0.1246
70381POPS   C1B36551  18.947   7.309   5.679 -0.1888  0.0059 -0.2770
70381POPS   C2B36552  18.719   7.129   6.096  0.0222 -0.2145 -0.0642
70381POPS   C3B36553  18.394   7.186   6.470  0.0029  0.0076 -0.0914
70381POPS   C4B36554  18.200   7.361   6.871 -0.2886  0.1329 -0.0887
70382POPS   CNO36555  32.016  15.080   3.768 -0.2567  0.1563  0.0831
70382POPS   PO436556  31.689  14.926   3.965 -0.2749 -0.1425 -0.3785
70382POPS   GL136557  31.537  14.949   4.381  0.0826  0.0796 -0.0551
70382POPS   GL236558  31.332  15.078   4.480  0.1686 -0.0102  0.0600
70382POPS   C1A36559  31.664  14.979   4.835  0.2189  0.0888  0.1135
70382POPS   D2A36560  31.786  15.032   5.268 -0.0680 -0.0093 -0.0965
70382POPS   C3A36561  31.934  14.787   5.603 -0.0901  0.1732  0.1723
70382POPS   C4A36562  31.900  14.756   6.010  0.3142  0.2001 -0.0083
70382POPS   C1B36563  31.077  14.975   4.833  0.1734  0.0001  0.0236
70382POPS   C2B36564  30.933  15.231   5.237 -0.3080 -0.0219 -0.3119
70382POPS   C3B36565  30.853  15.384   5.692 -0.2539 -0.0471  0.1304
70382POPS   C4B36566  30.785  15.634   6.075  0.0745 -0.3450 -0.3489
70383POPS   CNO36567  24.435   6.027   7.928 -0.1012  0.2315 -0.2039
70383POPS   PO436568  24.145   6.256   7.965 -0.2084  0.1749  0.1521
70383POPS   GL136569  23.812   6.200   8.124 -0.1491 -0.0139  0.1579
70383POPS   GL236570  23.908   6.166   8.457  0.0444 -0.0560 -0.2335
70383POPS   C1A36571  23.421   6.433   8.194 -0.0354  0.3374 -0.0402
70383POPS   D2A36572  23.142   6.645   7.933  0.0174 -0.4068  0.1672
70383POPS   C3A36573  23.041   7.006   8.145  0.1992  0.1595 -0.3295
70383POPS   C4A36574  22.665   7.288   8.043 -0.1475  0.1423 -0.0170
70383POPS   C1B36575  23.572   6.087   8.806 -0.1120  0.1871  0.2197
70383POPS   C2B36576  23.406   5.968   9.174  0.0493 -0.0637 -0.0003
70383POPS   C3B36577  23.218   5.668   9.480  0.3539  0.0900  0.1694
70383POPS   C4B36578  23.060   5.311   9.706 -0.0647 -0.0238  0.0027
70384POPS   CNO36579  27.991  11.863   5.304  0.3430 -0.1396 -0.1370
70384POPS   PO436580  27.700  12.023   5.204  0.0097  0.0346  0.1002
70384POPS   GL136581  27.698  12.275   5.564 -0.1129 -0.2962  0.3610
70384POPS   GL236582  27.588  12.483   5.659  0.0847 -0.2635  0.0054
70384POPS   C1A36583  28.167  12.435   5.645 -0.0361  0.0463  0.1273
70384POPS   D2A36584  28.585  12.509   5.607 -0.1926 -0.1704 -0.1575
70384POPS   C3A36585  29.001  12.518   5.889  0.0987 -0.1728  0.0694
70384POPS   C4A36586  29.209  12.724   6.253 -0.1961 -0.0298  0.0963
70384POPS   C1B36587  27.487  12.606   6.125 -0.2950 -0.2112  0.0925
70384POPS   C2B36588  27.469  12.843   6.530  0.1345 -0.3164  0.1358
70384POPS   C3B36589  27.451  13.055   6.974  0.3591  0.1590  0.0758
70384POPS   C4B36590  27.160  13.249   7.248 -0.3406 -0.2151  0.1294
70385POPS   CNO36591  21.651  16.158   4.041  0.0099  0.1779 -0.1429
70385POPS   PO436592  21.448  15.903   4.258  0.2200  0.1296  0.3179
70385POPS   GL136593  21.534  15.766   4.645 -0.2525  0.1695 -0.0277
70385POPS   GL236594  21.409  16.058   4.739 -0.0400 -0.2113 -0.1311
70385POPS   C1A36595  21.801  15.367   4.816 -0.0804  0.0146  0.1964
70385POPS   D2A36596  21.932  15.113   5.188  0.1276 -0.1182 -0.0442
70385POPS   C3A36597  22.110  15.361   5.533  0.2689 -0.0132  0.0015
70385POPS   C4A36598  22.458  15.277   5.808  0.0133 -0.0294 -0.2835
70385POPS   C1B36599  21.763  15.947   5.003 -0.0419 -0.1983 -0.2485
70385POPS   C2B36600  21.986  15.938   5.425 -0.0164  0.1793  0.2937
70385POPS   C3B36601  21.931  15.788   5.832  0.0424  0.2482  0.0516
70385POPS   C4B36602  21.901  15.685   6.269  0.1680 -0.0205  0.0451
70386POPS   CNO36603  25.255  10.601   5.844  0.1082 -0.1110 -0.0731
70386POPS   PO436604  24.948  10.851   5.839  0.2045 -0.1403  0.2270
70386POPS   GL136605  24.875  10.946   6.191 -0.0834 -0.0649 -0.1231
70386POPS   GL236606  25.058  11.208   6.202 -0.1449  0.0234 -0.2851
70386POPS   C1A36607  24.882  10.887   6.658  0.1605  0.1111 -0.0906
70386POPS   D2A36608  25.129  10.718   7.006  0.1632 -0.2034 -0.2941
70386POPS   C3A36609  24.897  10.610   7.421  0.0796  0.1541  0.0911
70386POPS   C4A36610  24.653  10.729   7.759  0.1706  0.0470 -0.3234
70386POPS   C1B36611  25.052  11.573   6.480 -0.1235 -0.1536  0.0307
70386POPS   C2B36612  25.043  11.833   6.836  0.0018  0.0927 -0.0378
70386POPS   C3B36613  25.263  12.169   7.172 -0.1246 -0.0436 -0.1645
70386POPS   C4B36614  25.503  12.424   7.524  0.4308  0.2322  0.0917
70387POPS   CNO36615  27.063   6.082  10.008 -0.3158 -0.1166  0.2809
70387POPS   PO436616  27.366   6.013  10.211  0.0336  0.3659 -0.0784
70387POPS   GL136617  27.531   6.167  10.430 -0.0436 -0.1814  0.3662
70387POPS   GL236618  27.699   5.897  10.600 -0.3144  0.1164  0.2482
70387POPS   C1A36619  27.972   6.235  10.328  0.0502 -0.0279  0.1434
70387POPS   D2A36620  28.410   6.365  10.198  0.3521  0.1062  0.1189
70387POPS   C3A36621  28.722   6.640  10.306 -0.1926 -0.1033  0.0307
70387POPS   C4A36622  28.918   6.870  10.685  0.4081 -0.0327  0.1598
70387POPS   C1B36623  28.049   5.613  10.663  0.1414  0.2098 -0.0197
70387POPS   C2B36624  28.347   5.531  10.388 -0.0427 -0.0499  0.0475
70387POPS   C3B36625  28.556   5.571   9.962 -0.1362  0.1777  0.0081
70387POPS   C4B36626  28.406   5.308   9.627 -0.2593 -0.0582  0.0622
70388POPS   CNO36627  17.837  14.867   4.087  0.0778  0.3533  0.0122
70388POPS   PO436628  18.071  15.141   3.970 -0.3263 -0.0840  0.2339
70388POPS   GL136629  18.087  15.170   4.413  0.1800 -0.2627  0.1876
70388POPS   GL236630  18.279  15.406   4.494 -0.2666  0.1091  0.0883
70388POPS   C1A36631  18.241  14.887   4.743 -0.1764 -0.0306  0.0341
70388POPS   D2A36632  18.167  14.527   5.025 -0.2151 -0.0771 -0.0529
70388POPS   C3A36633  18.004  14.447   5.433 -0.1108  0.2270 -0.2034
70388POPS   C4A36634  17.852  14.196   5.721 -0.0838  0.2865  0.0174
70388POPS   C1B36635  18.468  15.252   4.877 -0.0062 -0.0883  0.0802
70388POPS   C2B36636  18.592  14.900   5.144  0.2762  0.3299  0.3970
70388POPS   C3B36637  18.406  14.751   5.565 -0.3078 -0.0448 -0.1036
70388POPS   C4B36638  18.353  14.892   5.981  0.1935  0.0160  0.0447
70389POPS   CNO36639  28.723   9.509   6.016 -0.3229 -0.1116  0.2004
70389POPS   PO436640  28.736   9.867   5.940  0.0475  0.0034  0.3625
70389POPS   GL136641  28.782   9.856   6.314  0.3308 -0.1009 -0.1294
70389POPS   GL236642  28.779  10.134   6.451  0.2133 -0.0810 -0.1095
70389POPS   C1A36643  29.100   9.733   6.617 -0.1628  0.1313  0.3151
70389POPS   D2A36644  29.265   9.959   6.985 -0.0835  0.0141  0.1225
70389POPS   C3A36645  29.666  10.187   6.896  0.2114  0.2318  0.0847
70389POPS   C4A36646  30.093  10.175   6.827 -0.4485  0.1430  0.4260
70389POPS   C1B36647  28.927  10.298   6.816 -0.0716 -0.2227  0.2078
70389POPS   C2B36648  29.211  10.439   7.157  0.0801 -0.2942 -0.1612
70389POPS   C3B36649  29.510  10.207   7.380 -0.1371  0.0617 -0.1460
70389POPS   C4B36650  29.795  10.063   7.721  0.1294 -0.0882  0.1278
70390POPS   CNO36651  20.146  13.830   3.915  0.1590  0.1609  0.1413
70390POPS   PO436652  19.985  13.628   4.125  0.0955  0.0433 -0.3231
70390POPS   GL136653  19.824  13.726   4.519 -0.0434 -0.3319  0.0150
70390POPS   GL236654  19.590  13.790   4.647 -0.0030  0.0065 -0.1131
70390POPS   C1A36655  20.046  13.815   4.896  0.0086 -0.2653 -0.5050
70390POPS   D2A36656  20.221  14.137   5.187  0.0017 -0.1619  0.3262
70390POPS   C3A36657  20.428  14.106   5.610 -0.2504 -0.0646 -0.2787
70390POPS   C4A36658  20.529  13.733   5.845 -0.0815 -0.2296  0.1346
70390POPS   C1B36659  19.366  13.717   5.040  0.2996 -0.1817  0.4400
70390POPS   C2B36660  19.303  13.675   5.478  0.2683 -0.2660 -0.4529
70390POPS   C3B36661  19.233  13.783   5.919  0.0672  0.2111 -0.1800
70390POPS   C4B36662  19.173  14.208   6.089 -0.1127  0.2042 -0.0335
70391POPS   CNO36663  18.779   3.132   5.074  0.4043  0.2159  0.1004
70391POPS   PO436664  18.961   3.437   5.204 -0.0210  0.2229  0.0177
70391POPS   GL136665  18.748   3.237   5.557 -0.4119  0.2169  0.0945
70391POPS   GL236666  18.714   2.967   5.538  0.1502  0.2641  0.0171
70391POPS   C1A36667  18.256   3.246   5.597  0.0334 -0.0746  0.1866
70391POPS   D2A36668  17.821   3.204   5.829  0.0044 -0.0262  0.1817
70391POPS   C3A36669  17.694   2.748   5.973 -0.0326 -0.3884 -0.0687
70391POPS   C4A36670  17.320   2.557   5.882  0.2185 -0.1316 -0.0628
70391POPS   C1B36671  18.986   3.061   5.934  0.0436  0.0589  0.0382
70391POPS   C2B36672  18.856   3.116   6.348  0.0001  0.0314 -0.0916
70391POPS   C3B36673  18.920   2.781   6.690 -0.1526 -0.0514 -0.0055
70391POPS   C4B36674  18.642   2.662   7.009 -0.2547  0.1721 -0.2944
70392POPS   CNO36675  17.305   4.940   5.004 -0.0237 -0.0692  0.3314
70392POPS   PO436676  17.073   4.645   4.991  0.0506 -0.2613  0.2245
70392POPS   GL136677  17.230   4.414   5.254 -0.0681  0.0122 -0.1399
70392POPS   GL236678  17.406   4.631   5.397  0.1193  0.2823 -0.1975
70392POPS   C1A36679  17.313   4.270   5.703  0.3512 -0.2045  0.1647
70392POPS   D2A36680  17.614   4.015   5.849  0.2171  0.1783 -0.3282
70392POPS   C3A36681  17.615   3.618   6.118 -0.1135 -0.0297 -0.1044
70392POPS   C4A36682  17.577   3.462   6.597  0.1662  0.1356  0.2267
70392POPS   C1B36683  17.547   5.059   5.637 -0.2659 -0.1161 -0.1386
70392POPS   C2B36684  17.622   5.238   6.103 -0.0711 -0.1461 -0.3978
70392POPS   C3B36685  18.107   5.207   6.181  0.1613  0.0225  0.1525
70392POPS   C4B36686  18.227   5.263   6.618 -0.2268 -0.0812  0.1962
70393POPS   CNO36687  21.766   5.288   5.558 -0.0016  0.1568  0.2968
70393POPS   PO436688  21.572   5.586   5.640  0.3003 -0.1445  0.4397
70393POPS   GL136689  21.545   5.744   6.020  0.3151  0.1711  0.2673
70393POPS   GL236690  21.514   5.512   6.240 -0.1316 -0.1594 -0.1368
70393POPS   C1A36691  21.487   6.013   6.421 -0.0971 -0.0135 -0.1076
70393POPS   D2A36692  21.554   6.303   6.770  0.0163  0.2918 -0.4413
70393POPS   C3A36693  21.576   6.077   7.205  0.0866 -0.0878 -0.4139
70393POPS   C4A36694  21.545   5.709   7.519  0.1844  0.1418 -0.2225
70393POPS   C1B36695  21.291   5.587   6.649 -0.2038  0.0921  0.0224
70393POPS   C2B36696  21.234   5.973   6.916  0.1510  0.0397 -0.1697
70393POPS   C3B36697  21.029   6.050   7.340  0.1924  0.2189  0.0185
70393POPS   C4B36698  20.694   6.006   7.677 -0.1105  0.3879 -0.0826
70394POPS   CNO36699  28.951   8.138   6.633  0.0387 -0.2640  0.2261
70394POPS   PO436700  29.277   8.375   6.567 -0.0533  0.3392 -0.2083
70394POPS   GL136701  29.451   8.428   6.919  0.1881  0.3923  0.0826
70394POPS   GL236702  29.392   8.168   7.054  0.1169 -0.0877 -0.0570
70394POPS   C1A36703  29.761   8.447   7.254  0.1690 -0.1420  0.0943
70394POPS   D2A36704  29.642   8.457   7.690 -0.0568 -0.0304  0.2150
70394POPS   C3A36705  29.851   8.190   8.083  0.1828 -0.0054 -0.0875
70394POPS   C4A36706  30.141   7.932   8.359  0.0913 -0.0905  0.0979
70394POPS   C1B36707  29.264   8.598   7.312  0.0158  0.0053 -0.1352
70394POPS   C2B36708  29.223   9.099   7.404  0.1419  0.4144  0.0532
70394POPS   C3B36709  29.266   9.525   7.460  0.0400  0.1538 -0.0653
70394POPS   C4B36710  29.264   9.868   7.760 -0.0432 -0.3457 -0.0094
70395POPS   CNO36711  25.083   8.886   6.206 -0.3144  0.5615 -0.0533
70395POPS   PO436712  24.874   8.840   6.560 -0.3719  0.0080 -0.0142
70395POPS   GL136713  24.758   9.000   6.840  0.4889 -0.2114  0.2320
70395POPS   GL236714  24.737   9.282   6.897  0.0530 -0.0823  0.0547
70395POPS   C1A36715  24.438   8.782   7.061 -0.4659 -0.1256 -0.0436
70395POPS   D2A36716  24.077   8.972   7.209  0.2606 -0.0214 -0.0123
70395POPS   C3A36717  24.158   9.183   7.605  0.0297 -0.0911  0.1762
70395POPS   C4A36718  24.447   9.224   7.944  0.0301  0.1721 -0.4130
70395POPS   C1B36719  24.484   9.317   7.269  0.0638  0.2107 -0.1178
70395POPS   C2B36720  24.423   9.787   7.338 -0.0507 -0.1883 -0.2874
70395POPS   C3B36721  24.364  10.131   7.698  0.4480 -0.0678  0.0679
70395POPS   C4B36722  24.446  10.291   8.132  0.0421 -0.1768 -0.2764
70396POPS   CNO36723  16.873   8.453   4.664  0.3025 -0.0130  0.2195
70396POPS   PO436724  17.058   8.812   4.728  0.0772  0.0456 -0.0479
70396POPS   GL136725  17.062   8.940   5.119  0.1717 -0.2188  0.0012
70396POPS   GL236726  16.795   8.955   5.294  0.1548 -0.4576 -0.1580
70396POPS   C1A36727  17.512   8.932   5.234  0.2562  0.0674 -0.3910
70396POPS   D2A36728  17.848   9.187   5.437 -0.0040 -0.3837  0.1715
70396POPS   C3A36729  17.868   9.394   5.863 -0.0856 -0.2453 -0.3227
70396POPS   C4A36730  17.597   9.472   6.209  0.0094 -0.1481 -0.3401
70396POPS   C1B36731  16.411   8.928   5.592 -0.2365 -0.1632 -0.1050
70396POPS   C2B36732  16.322   8.770   6.042 -0.2135 -0.0163  0.1699
70396POPS   C3B36733  16.436   8.403   6.251 -0.0346 -0.2339 -0.3714
70396POPS   C4B36734  16.443   8.043   6.560  0.0785  0.1388  0.1236
70397POPS   CNO36735  24.142   8.279   6.344 -0.0702 -0.1684  0.0764
70397POPS   PO436736  24.182   8.570   6.091 -0.2505 -0.1309  0.0596
70397POPS   GL136737  24.048   8.753   6.387 -0.2184 -0.0510  0.0473
70397POPS   GL236738  23.999   8.698   6.703  0.0466  0.0515 -0.3145
70397POPS   C1A36739  23.674   9.028   6.375 -0.0368  0.1310 -0.0971
70397POPS   D2A36740  23.320   9.316   6.298  0.2428  0.1388  0.1347
70397POPS   C3A36741  23.091   9.556   6.661 -0.0609  0.2083  0.1377
70397POPS   C4A36742  23.040   9.668   7.171  0.4554 -0.1657  0.5652
70397POPS   C1B36743  23.713   8.940   6.920  0.2175  0.0215  0.1354
70397POPS   C2B36744  23.466   8.800   7.303 -0.1892 -0.1099 -0.2443
70397POPS   C3B36745  23.131   8.991   7.593  0.2139  0.2073 -0.1146
70397POPS   C4B36746  23.036   9.458   7.562 -0.0371 -0.0265 -0.0079
70398POPS   CNO36747  16.399   4.235   4.679 -0.2286 -0.1788  0.1985
70398POPS   PO436748  16.518   4.573   4.888  0.2995  0.2891 -0.0894
70398POPS   GL136749  16.664   4.563   5.244 -0.3712 -0.0362 -0.1482
70398POPS   GL236750  16.435   4.658   5.371  0.2823  0.0505 -0.2075
70398POPS   C1A36751  16.991   4.674   5.583  0.5419 -0.0864  0.3390
70398POPS   D2A36752  17.193   4.876   5.917  0.3193  0.3749 -0.1626
70398POPS   C3A36753  17.244   4.984   6.382  0.1341  0.1730  0.3376
70398POPS   C4A36754  17.045   5.069   6.823 -0.2044  0.0510  0.1039
70398POPS   C1B36755  16.545   4.662   5.789  0.0036  0.3917 -0.2662
70398POPS   C2B36756  16.799   4.540   6.116 -0.0521 -0.0414 -0.0213
70398POPS   C3B36757  16.881   4.648   6.585 -0.0564 -0.0437 -0.1595
70398POPS   C4B36758  17.202   4.506   6.864  0.1349 -0.2838  0.0897
70399POPS   CNO36759  26.356   6.384  11.780  0.1053 -0.2761 -0.1971
70399POPS   PO436760  25.974   6.450  11.780 -0.0472 -0.1554  0.5283
70399POPS   GL136761  25.926   6.894  11.886 -0.2407 -0.1671  0.0434
70399POPS   GL236762  26.081   6.973  11.634  0.1477  0.2245  0.2407
70399POPS   C1A36763  25.728   7.256  12.011 -0.0994  0.1542 -0.0665
70399POPS   D2A36764  25.285   7.329  12.191  0.0703  0.0509 -0.0430
70399POPS   C3A36765  24.979   7.729  12.184 -0.2098  0.4085 -0.0298
70399POPS   C4A36766  24.818   8.135  12.236  0.0732 -0.0675  0.4463
70399POPS   C1B36767  26.210   7.237  11.937  0.2183 -0.3881  0.4683
70399POPS   C2B36768  26.484   7.284  12.309 -0.1860  0.0968  0.0921
70399POPS   C3B36769  26.351   7.581  12.593 -0.2601 -0.0118  0.0443
70399POPS   C4B36770  26.032   7.704  12.876  0.0763  0.0480 -0.2532
70400POPS   CNO36771  19.473  10.369   4.072 -0.1677 -0.0012  0.4416
70400POPS   PO436772  19.686  10.312   4.368 -0.1096 -0.1061 -0.0531
70400POPS   GL136773  19.763  10.372   4.725  0.4869 -0.0318  0.1716
70400POPS   GL236774  19.948  10.648   4.701 -0.0454 -0.1175  0.1733
70400POPS   C1A36775  19.905  10.264   5.164  0.4652  0.1543 -0.1129
70400POPS   D2A36776  20.152  10.243   5.531 -0.0936 -0.0427 -0.0362
70400POPS   C3A36777  20.344  10.609   5.790 -0.0205  0.0885  0.2718
70400POPS   C4A36778  20.510  10.935   6.094  0.0733  0.2595  0.0318
70400POPS   C1B36779  19.595  10.722   5.030 -0.1257 -0.0067  0.1494
70400POPS   C2B36780  19.308  10.745   5.408  0.0048 -0.2029  0.1403
70400POPS   C3B36781  19.040  10.968   5.704 -0.0270 -0.0606 -0.4333
70400POPS   C4B36782  19.024  11.397   5.981 -0.0810  0.1616 -0.3516
70401POPS   CNO36783  25.967   6.520  10.140  0.0253 -0.0937  0.0810
70401POPS   PO436784  25.844   6.610  10.535  0.0939  0.0345  0.0065
70401POPS   GL136785  25.913   7.033  10.662  0.4132 -0.0792 -0.0136
70401POPS   GL236786  25.665   7.133  10.779  0.0684 -0.1471  0.2154
70401POPS   C1A36787  25.916   7.519  10.811  0.2762 -0.0781 -0.0314
70401POPS   D2A36788  25.672   7.907  10.892 -0.1304  0.2192 -0.0529
70401POPS   C3A36789  25.770   8.371  10.814 -0.1039  0.1221 -0.2887
70401POPS   C4A36790  25.637   8.706  10.513 -0.2819  0.2395 -0.1970
70401POPS   C1B36791  25.367   7.453  10.944 -0.0382 -0.0065  0.0484
70401POPS   C2B36792  25.074   7.742  11.273 -0.0132  0.0661 -0.1048
70401POPS   C3B36793  24.803   8.099  11.396  0.0180  0.0592 -0.6049
70401POPS   C4B36794  24.874   8.344  11.805  0.3220  0.1246  0.0672
70402POPS   CNO36795  24.138  11.667   4.698  0.0581  0.2000 -0.1376
70402POPS   PO436796  23.914  11.398   4.850 -0.2775  0.1020 -0.2911
70402POPS   GL136797  23.744  11.666   5.209 -0.3419 -0.2639 -0.1103
70402POPS   GL236798  23.757  11.415   5.296  0.0924  0.0018 -0.0745
70402POPS   C1A36799  23.984  11.972   5.549  0.3488  0.0906  0.2096
70402POPS   D2A36800  23.909  12.380   5.786  0.2154  0.2286  0.0985
70402POPS   C3A36801  24.076  12.586   6.166  0.0892 -0.3774 -0.2660
70402POPS   C4A36802  24.019  12.926   6.509  0.3207 -0.1759 -0.2523
70402POPS   C1B36803  23.716  11.545   5.753  0.0635 -0.0190 -0.0226
70402POPS   C2B36804  23.922  11.665   6.143  0.1369 -0.2280  0.1012
70402POPS   C3B36805  24.121  11.519   6.537 -0.2023  0.0221 -0.0286
70402POPS   C4B36806  24.142  11.541   6.986 -0.0712 -0.1328  0.2740
70403POPS   CNO36807  22.751  13.497   4.418  0.2496 -0.1480  0.1088
70403POPS   PO436808  22.629  13.529   4.743 -0.4050  0.2646 -0.1117
70403POPS   GL136809  22.674  13.732   5.026 -0.2183 -0.3835 -0.2102
70403POPS   GL236810  22.671  13.541   5.263 -0.2499  0.0346 -0.2255
70403POPS   C1A36811  22.926  13.941   5.411 -0.2297  0.0994 -0.1221
70403POPS   D2A36812  22.911  14.038   5.884 -0.1081  0.3211  0.3403
70403POPS   C3A36813  22.609  13.787   6.143  0.0661  0.0767 -0.3625
70403POPS   C4A36814  22.391  13.456   6.424 -0.1636  0.0148  0.4178
70403POPS   C1B36815  22.764  13.179   5.479  0.3392  0.2799 -0.0751
70403POPS   C2B36816  22.773  13.173   5.932 -0.1131  0.1654  0.0465
70403POPS   C3B36817  22.664  12.762   6.080 -0.0737 -0.1393 -0.0923
70403POPS   C4B36818  22.323  12.487   6.091 -0.3563 -0.0300  0.2010
70404POPS   CNO36819  28.972  15.308   3.828  0.1881 -0.0194 -0.2384
70404POPS   PO436820  29.051  15.336   4.186  0.2321 -0.1991 -0.0201
70404POPS   GL136821  29.150  15.467   4.648 -0.1765 -0.3594  0.1156
70404POPS   GL236822  29.408  15.447   4.607  0.0080  0.3286 -0.1198
70404POPS   C1A36823  28.893  15.478   5.051 -0.1954 -0.0193  0.1055
70404POPS   D2A36824  28.505  15.281   5.307  0.0829 -0.0036  0.1289
70404POPS   C3A36825  28.358  15.151   5.723  0.2888  0.0817  0.1989
70404POPS   C4A36826  28.333  15.315   6.148  0.2501  0.0464 -0.4521
70404POPS   C1B36827  29.661  15.574   4.966  0.1839 -0.0560  0.0092
70404POPS   C2B36828  29.645  15.887   5.303 -0.1883  0.0039  0.0268
70404POPS   C3B36829  29.671  16.126   5.682 -0.0173 -0.2706  0.2250
70404POPS   C4B36830  29.447  16.291   6.008  0.1825  0.1262 -0.1770
70405POPS   CNO36831  29.889  11.242   4.528  0.1870 -0.1543 -0.0817
70405POPS   PO436832  29.811  11.549   4.746  0.1989  0.1285  0.2377
70405POPS   GL136833  29.661  11.627   5.130  0.1201 -0.2440  0.1409
70405POPS   GL236834  29.413  11.540   5.231  0.1187 -0.4184  0.1292
70405POPS   C1A36835  29.848  11.621   5.564 -0.2446 -0.2414  0.2785
70405POPS   D2A36836  30.075  11.554   6.016  0.0915 -0.0346  0.0723
70405POPS   C3A36837  29.897  11.824   6.313  0.2289 -0.2181  0.2476
70405POPS   C4A36838  29.656  12.057   6.590 -0.2294 -0.0805 -0.3453
70405POPS   C1B36839  29.363  11.792   5.607  0.1121 -0.0776 -0.0090
70405POPS   C2B36840  29.166  11.880   5.970  0.1491  0.6211  0.1046
70405POPS   C3B36841  29.235  12.204   6.192  0.0334 -0.0610  0.0127
70405POPS   C4B36842  29.243  12.350   6.632 -0.1280  0.0893  0.1212
70406POPS   CNO36843  27.096   6.428   9.359 -0.1947  0.0439 -0.0024
70406POPS   PO436844  27.286   6.762   9.387 -0.1697 -0.4212 -0.1000
70406POPS   GL136845  27.469   7.064   9.615 -0.2383 -0.1094 -0.0960
70406POPS   GL236846  27.450   7.045   9.973  0.1227  0.0632 -0.0354
70406POPS   C1A36847  27.924   7.113   9.660  0.0095 -0.0465  0.1557
70406POPS   D2A36848  28.382   7.194   9.583 -0.2684 -0.2770  0.0759
70406POPS   C3A36849  28.605   7.574   9.464  0.1402 -0.2716  0.0235
70406POPS   C4A36850  28.950   7.885   9.632  0.0805 -0.0377  0.1799
70406POPS   C1B36851  27.699   7.369  10.003  0.0738 -0.2097  0.3147
70406POPS   C2B36852  27.879   7.744  10.215 -0.0369 -0.1896 -0.1623
70406POPS   C3B36853  28.025   8.171  10.129  0.2557 -0.0596  0.2834
70406POPS   C4B36854  28.180   8.542   9.889 -0.3206  0.2146  0.0536
70407POPS   CNO36855  24.814   5.596   8.722 -0.0478 -0.0789 -0.1329
70407POPS   PO436856  24.599   5.639   9.034  0.1028  0.0159 -0.0732
70407POPS   GL136857  24.183   5.758   9.073  0.0799  0.1711 -0.0737
70407POPS   GL236858  24.083   5.526   9.041 -0.1921 -0.1006 -0.1644
70407POPS   C1A36859  23.785   5.738   9.377 -0.2118  0.0439 -0.1112
70407POPS   D2A36860  23.583   5.915   9.722  0.0993 -0.1610  0.2522
70407POPS   C3A36861  23.113   6.058   9.691 -0.1919 -0.0962 -0.2209
70407POPS   C4A36862  22.700   5.973   9.652 -0.0826 -0.0012  0.0997
70407POPS   C1B36863  23.648   5.393   8.939  0.1431 -0.0714 -0.1054
70407POPS   C2B36864  23.397   5.026   9.221  0.0057 -0.0892  0.0132
70407POPS   C3B36865  23.308   4.838   9.639 -0.2475 -0.0426 -0.1756
70407POPS   C4B36866  23.199   4.623  10.032  0.0642  0.1250  0.1030
70408POPS   CNO36867  17.233   0.289   3.583 -0.0991 -0.3193 -0.1314
70408POPS   PO436868  17.359   0.443   3.916  0.0300 -0.2160 -0.1560
70408POPS   GL136869  17.548   0.256   4.234  0.2400 -0.2282  0.3544
70408POPS   GL236870  17.449   0.378   4.498 -0.0078  0.0924  0.1197
70408POPS   C1A36871  17.943   0.346   4.360 -0.0976  0.2132 -0.3978
70408POPS   D2A36872  18.295   0.031   4.458  0.0386  0.0663 -0.1737
70408POPS   C3A36873  18.553   0.240   4.754  0.3271 -0.1403  0.2784
70408POPS   C4A36874  18.854   0.456   5.054 -0.3889  0.1857  0.3098
70408POPS   C1B36875  17.549   0.201   4.940  0.1299  0.1133 -0.1164
70408POPS   C2B36876  17.461   0.104   5.391 -0.1301  0.2047 -0.3048
70408POPS   C3B36877  17.583  -0.045   5.804  0.0045  0.1691 -0.2159
70408POPS   C4B36878  17.808  -0.066   6.216  0.0483 -0.0985 -0.0637
70409POPS   CNO36879  28.885  13.468   4.421  0.1604 -0.0121 -0.0128
70409POPS   PO436880  29.033  13.644   4.737 -0.2408  0.0522 -0.2572
70409POPS   GL136881  29.092  13.657   5.120 -0.2245  0.2829 -0.4265
70409POPS   GL236882  28.878  13.823   5.218  0.1931 -0.2730 -0.0389
70409POPS   C1A36883  29.222  13.473   5.532 -0.0476  0.0735  0.0736
70409POPS   D2A36884  29.379  13.390   5.931 -0.1379  0.0251  0.2854
70409POPS   C3A36885  29.101  13.268   6.242 -0.0719  0.1970 -0.3650
70409POPS   C4A36886  28.888  12.988   6.481  0.2283 -0.0193 -0.0804
70409POPS   C1B36887  28.830  13.963   5.696  0.1102 -0.1640  0.0661
70409POPS   C2B36888  28.678  14.159   6.087  0.2542  0.0045  0.2760
70409POPS   C3B36889  28.505  14.099   6.520 -0.3285 -0.0625  0.1286
70409POPS   C4B36890  28.119  14.174   6.794  0.2269 -0.1543 -0.0305
70410POPS   CNO36891  29.851   9.186   5.046  0.0587 -0.2604 -0.0513
70410POPS   PO436892  29.732   9.563   5.177  0.1257  0.0829 -0.0621
70410POPS   GL136893  29.899   9.711   5.580 -0.2025 -0.4987  0.3054
70410POPS   GL236894  29.877  10.013   5.427  0.2603  0.2029 -0.2168
70410POPS   C1A36895  30.331   9.956   5.644 -0.1300 -0.0568  0.0455
70410POPS   D2A36896  30.615  10.352   5.562 -0.0358 -0.0286  0.1836
70410POPS   C3A36897  30.843  10.610   5.903 -0.0883  0.0005  0.3465
70410POPS   C4A36898  30.776  10.795   6.317  0.1117 -0.1350 -0.1605
70410POPS   C1B36899  29.802  10.112   5.859  0.3507 -0.1653  0.0606
70410POPS   C2B36900  29.564  10.480   6.112 -0.1046  0.1837 -0.1209
70410POPS   C3B36901  29.520  10.933   6.326  0.0217 -0.3025  0.1262
70410POPS   C4B36902  29.803  11.310   6.440  0.1022  0.1645  0.3107
70411POPS   CNO36903  25.382   6.686   8.478 -0.3021  0.1543  0.3130
70411POPS   PO436904  25.282   7.058   8.548  0.0026 -0.1607  0.1147
70411POPS   GL136905  25.032   7.342   8.733  0.1512 -0.1347 -0.1519
70411POPS   GL236906  25.012   7.304   9.047  0.0609  0.0529  0.2120
70411POPS   C1A36907  24.553   7.397   8.795  0.1920  0.0265 -0.0665
70411POPS   D2A36908  24.169   7.282   9.021 -0.3894 -0.0539 -0.0655
70411POPS   C3A36909  23.773   7.464   9.122  0.0659 -0.0415 -0.2272
70411POPS   C4A36910  23.313   7.476   9.152  0.1429 -0.2780 -0.1029
70411POPS   C1B36911  24.667   7.554   9.240 -0.1530  0.1475 -0.0189
70411POPS   C2B36912  24.556   7.922   9.427 -0.3138 -0.0354 -0.0904
70411POPS   C3B36913  24.441   8.354   9.516  0.1293 -0.0280  0.0367
70411POPS   C4B36914  24.203   8.742   9.766  0.1855  0.0026 -0.0796
70412POPS   CNO36915  26.468   6.747   9.826 -0.0081 -0.1035  0.0040
70412POPS   PO436916  26.110   6.842   9.788 -0.2198  0.0028  0.3385
70412POPS   GL136917  26.217   7.243   9.928  0.1936  0.0273  0.1980
70412POPS   GL236918  26.161   7.428   9.837  0.2419  0.1029 -0.1806
70412POPS   C1A36919  26.395   7.341  10.330  0.2823  0.0730  0.0629
70412POPS   D2A36920  26.484   7.580  10.687  0.1208 -0.0993  0.1334
70412POPS   C3A36921  26.303   7.928  10.773 -0.1946 -0.0999 -0.2402
70412POPS   C4A36922  26.208   8.284  10.984 -0.1480  0.1233  0.0698
70412POPS   C1B36923  26.463   7.708   9.973  0.2782 -0.2718  0.2149
70412POPS   C2B36924  26.535   8.158   9.911 -0.1550  0.1515  0.0525
70412POPS   C3B36925  26.552   8.479  10.243 -0.1364 -0.1431 -0.2354
70412POPS   C4B36926  26.551   8.560  10.630 -0.1777  0.2738 -0.0540
70413POPS   CNO36927  20.957   6.666  13.452 -0.2808 -0.2508 -0.1948
70413POPS   PO436928  21.009   6.528  13.828  0.2113 -0.1043 -0.1616
70413POPS   GL136929  21.381   6.352  14.031 -0.1391  0.0691 -0.0891
70413POPS   GL236930  21.408   6.517  14.191 -0.0550  0.1629  0.0300
70413POPS   C1A36931  21.711   6.220  13.653  0.1567 -0.0196  0.0822
70413POPS   D2A36932  22.038   6.033  13.386 -0.3071 -0.0963 -0.1401
70413POPS   C3A36933  22.567   6.094  13.424  0.2698 -0.1870 -0.3403
70413POPS   C4A36934  22.972   5.927  13.636 -0.0368  0.0575  0.0283
70413POPS   C1B36935  21.886   6.343  14.208 -0.2311  0.1233  0.0473
70413POPS   C2B36936  22.289   6.328  14.469 -0.2911  0.0149  0.2666
70413POPS   C3B36937  22.665   6.082  14.573  0.2931 -0.2068  0.1942
70413POPS   C4B36938  23.088   6.038  14.767 -0.0573  0.0081 -0.1759
70414POPS   CNO36939  19.823   1.695  14.915  0.1723 -0.3198 -0.4899
70414POPS   PO436940  19.851   1.862  15.284 -0.1672  0.1720  0.1160
70414POPS   GL136941  19.999   1.934  15.659  0.3719  0.0574 -0.2702
70414POPS   GL236942  19.951   1.760  15.819  0.2214  0.1585  0.0485
70414POPS   C1A36943  20.213   2.177  15.983 -0.1131 -0.1287 -0.1843
70414POPS   D2A36944  20.514   2.354  16.281  0.0732 -0.1992 -0.0851
70414POPS   C3A36945  20.491   2.788  16.531 -0.1796 -0.0916 -0.0753
70414POPS   C4A36946  20.132   3.105  16.661  0.1728  0.1509  0.3985
70414POPS   C1B36947  20.090   1.765  16.250 -0.3795  0.0074  0.1808
70414POPS   C2B36948  20.190   2.092  16.541  0.3580  0.2447 -0.0387
70414POPS   C3B36949  20.217   2.403  16.893 -0.0296  0.0930  0.0624
70414POPS   C4B36950  20.133   2.522  17.272  0.0219 -0.1889 -0.0007
70415POPS   CNO36951  26.344   0.589  12.707 -0.1429  0.3741 -0.0502
70415POPS   PO436952  26.398   0.634  13.097 -0.2318  0.0643  0.1801
70415POPS   GL136953  26.667   0.921  13.281 -0.0132 -0.0263  0.3986
70415POPS   GL236954  26.881   0.640  13.282  0.0260 -0.1162 -0.0444
70415POPS   C1A36955  26.582   1.278  13.500 -0.4170 -0.2237  0.0020
70415POPS   D2A36956  26.355   1.504  13.867  0.0395  0.1137 -0.0345
70415POPS   C3A36957  26.504   1.952  13.925  0.0188 -0.0159  0.0972
70415POPS   C4A36958  26.754   2.312  13.961  0.2798 -0.3655 -0.3112
70415POPS   C1B36959  26.961   0.726  13.763 -0.2369 -0.0480  0.0499
70415POPS   C2B36960  26.783   0.962  14.104  0.0966 -0.1392  0.2215
70415POPS   C3B36961  26.763   1.190  14.483 -0.1753 -0.2587 -0.2456
70415POPS   C4B36962  26.712   1.406  14.942  0.1136  0.0690  0.0756
70416POPS   CNO36963  25.599  13.489  16.024  0.1392 -0.2362  0.2255
70416POPS   PO436964  25.850  13.272  16.214 -0.1646  0.0816  0.1630
70416POPS   GL136965  25.700  13.261  16.632 -0.1373 -0.0606  0.0709
70416POPS   GL236966  25.915  13.056  16.767  0.3555  0.1826  0.2396
70416POPS   C1A36967  25.650  13.304  17.119 -0.0765  0.4269 -0.3049
70416POPS   D2A36968  25.482  13.424  17.497  0.0870 -0.1032  0.2774
70416POPS   C3A36969  25.848  13.483  17.768  0.1211  0.0214 -0.1683
70416POPS   C4A36970  26.176  13.596  18.121  0.0706 -0.0010  0.0618
70416POPS   C1B36971  26.023  12.888  17.175  0.1644  0.0365 -0.1366
70416POPS   C2B36972  25.979  12.549  17.479  0.1748 -0.0542  0.1351
70416POPS   C3B36973  25.925  12.232  17.834 -0.3743  0.4208 -0.0954
70416POPS   C4B36974  25.706  12.219  18.252 -0.4355  0.0793  0.2160
70417POPS   CNO36975  18.848  12.849  16.450 -0.0409  0.5391  0.0773
70417POPS   PO436976  18.526  12.771  16.633  0.0549 -0.1955 -0.0243
70417POPS   GL136977  18.731  12.682  17.053  0.0606  0.1797 -0.2574
70417POPS   GL236978  18.659  12.915  17.267 -0.1746  0.2462  0.2555
70417POPS   C1A36979  18.891  12.492  17.449 -0.0449  0.1737  0.1566
70417POPS   D2A36980  19.101  12.185  17.700 -0.1801  0.2261  0.3930
70417POPS   C3A36981  19.295  12.420  18.030 -0.2019  0.2135 -0.0409
70417POPS   C4A36982  19.543  12.500  18.392 -0.0941  0.0381 -0.0442
70417POPS   C1B36983  18.466  13.056  17.668  0.1068  0.0025  0.1350
70417POPS   C2B36984  18.143  13.268  17.984 -0.0357  0.2753 -0.0255
70417POPS   C3B36985  17.860  13.541  18.225 -0.0389 -0.1222  0.1427
70417POPS   C4B36986  17.749  13.922  18.398  0.1006 -0.0234 -0.0198
70418POPS   CNO36987  20.956  17.026  15.199  0.1152 -0.0562 -0.2038
70418POPS   PO436988  20.705  16.812  15.435 -0.0898  0.2253  0.2078
70418POPS   GL136989  20.676  16.763  15.793  0.3132 -0.3196 -0.0401
70418POPS   GL236990  20.498  16.585  15.992 -0.0588 -0.0525  0.0176
70418POPS   C1A36991  20.878  16.961  16.145  0.1651 -0.0617  0.0261
70418POPS   D2A36992  20.966  17.107  16.588  0.2688 -0.2405 -0.0268
70418POPS   C3A36993  21.126  17.186  17.021  0.4374  0.0512  0.0613
70418POPS   C4A36994  21.444  17.044  17.267  0.2014  0.1024 -0.1596
70418POPS   C1B36995  20.480  16.776  16.392 -0.1748 -0.0125  0.1850
70418POPS   C2B36996  20.497  16.962  16.781  0.4191 -0.2691  0.0079
70418POPS   C3B36997  20.670  17.022  17.204  0.2153 -0.1496 -0.2306
70418POPS   C4B36998  20.973  16.932  17.456  0.0217  0.1065 -0.0916
70419POPS   CNO36999  22.309   9.563  11.540  0.3940  0.2371  0.1266
70419POPS   PO437000  22.561   9.278  11.617  0.3673 -0.0293  0.2542
70419POPS   GL137001  22.783   8.998  11.533 -0.5316 -0.1849  0.3587
70419POPS   GL237002  22.842   8.998  11.216  0.3248  0.1648 -0.2662
70419POPS   C1A37003  23.209   8.880  11.525 -0.0823  0.0706  0.0776
70419POPS   D2A37004  23.553   8.619  11.323  0.2345  0.1698 -0.2287
70419POPS   C3A37005  23.943   8.496  11.603  0.2030 -0.1124  0.2488
70419POPS   C4A37006  24.367   8.359  11.649 -0.2150 -0.1350 -0.0207
70419POPS   C1B37007  23.073   8.718  11.030 -0.4249  0.2203 -0.1176
70419POPS   C2B37008  23.294   8.340  10.842  0.2266 -0.1319  0.0009
70419POPS   C3B37009  23.651   8.099  10.624 -0.0776 -0.2214  0.1144
70419POPS   C4B37010  23.914   7.739  10.769  0.2296  0.1766  0.0314
70420POPS   CNO37011  31.878   9.832  10.011  0.0217  0.0194  0.1472
70420POPS   PO437012  31.590   9.609   9.886  0.2294  0.0304 -0.0379
70420POPS   GL137013  31.508   9.394   9.589 -0.0609  0.0242  0.2096
70420POPS   GL237014  31.551   9.078   9.640 -0.1472 -0.3473 -0.0539
70420POPS   C1A37015  31.092   9.600   9.420 -0.0401 -0.2496 -0.1461
70420POPS   D2A37016  30.630   9.483   9.238 -0.3247 -0.0649 -0.0643
70420POPS   C3A37017  30.592   9.532   8.803  0.1698  0.1335 -0.1528
70420POPS   C4A37018  30.422   9.278   8.479  0.1586  0.1774 -0.0992
70420POPS   C1B37019  31.255   8.836   9.416 -0.2569 -0.3864 -0.0327
70420POPS   C2B37020  31.022   8.776   8.982 -0.0080 -0.3827  0.0406
70420POPS   C3B37021  30.583   8.742   8.743 -0.0310  0.0885  0.2421
70420POPS   C4B37022  30.187   8.531   8.559 -0.2241  0.0091 -0.1227
70421POPS   CNO37023  26.865  13.193  15.678 -0.1059  0.2458 -0.0399
70421POPS   PO437024  26.889  13.374  16.002  0.2311 -0.0224  0.1514
70421POPS   GL137025  26.868  13.402  16.454 -0.0783 -0.0232  0.1556
70421POPS   GL237026  26.593  13.257  16.471  0.0998  0.0698  0.0205
70421POPS   C1A37027  26.978  13.230  16.827 -0.0426 -0.0776 -0.1796
70421POPS   D2A37028  27.098  12.770  16.899  0.1443  0.0622 -0.2593
70421POPS   C3A37029  27.477  12.776  17.164  0.0558 -0.3040  0.0559
70421POPS   C4A37030  27.678  13.091  17.421 -0.0078  0.0477  0.1254
70421POPS   C1B37031  26.449  13.151  16.906 -0.0274  0.2493 -0.0630
70421POPS   C2B37032  26.231  13.303  17.322  0.2472  0.1820 -0.0365
70421POPS   C3B37033  26.314  13.219  17.804 -0.1400  0.0465 -0.2556
70421POPS   C4B37034  26.416  13.117  18.271  0.0493 -0.3761  0.0017
70422POPS   CNO37035  22.103   9.924  15.023 -0.1175  0.2070 -0.1699
70422POPS   PO437036  22.200   9.604  15.208 -0.2195 -0.2382 -0.2666
70422POPS   GL137037  22.190   9.158  15.469 -0.0674  0.0344 -0.1982
70422POPS   GL237038  22.142   9.261  15.739 -0.4514  0.2580  0.1309
70422POPS   C1A37039  22.369   8.802  15.745 -0.1639  0.3067 -0.3209
70422POPS   D2A37040  22.489   8.328  15.943 -0.4598 -0.4375 -0.0060
70422POPS   C3A37041  22.711   8.088  16.252  0.1188  0.2786 -0.0307
70422POPS   C4A37042  22.869   7.782  16.569 -0.0942 -0.1797 -0.0264
70422POPS   C1B37043  22.446   9.130  16.058 -0.4170  0.1370 -0.1122
70422POPS   C2B37044  22.742   8.824  16.080  0.1242  0.0609  0.0850
70422POPS   C3B37045  23.015   8.470  16.058  0.1587 -0.0366 -0.2088
70422POPS   C4B37046  23.223   8.152  16.226  0.0623 -0.0081 -0.0879
70423POPS   CNO37047  18.632   1.749  15.883  0.1231 -0.0918  0.0051
70423POPS   PO437048  18.301   1.698  15.981 -0.0371 -0.0887  0.1699
70423POPS   GL137049  18.503   1.722  16.347 -0.2454  0.0235  0.1471
70423POPS   GL237050  18.741   1.849  16.379  0.0295 -0.0815 -0.1112
70423POPS   C1A37051  18.370   1.779  16.807 -0.0145 -0.0896  0.0540
70423POPS   D2A37052  18.483   1.899  17.237  0.1840 -0.1463 -0.1769
70423POPS   C3A37053  18.498   2.303  17.468 -0.1806  0.3326 -0.1923
70423POPS   C4A37054  18.661   2.610  17.741  0.0116 -0.1462  0.0481
70423POPS   C1B37055  19.150   1.924  16.518 -0.2331  0.4336  0.0275
70423POPS   C2B37056  19.371   2.039  16.924  0.0203  0.1027 -0.1949
70423POPS   C3B37057  19.386   2.045  17.394  0.3504  0.0134 -0.1747
70423POPS   C4B37058  19.383   1.996  17.861  0.2293 -0.0926  0.0197
70424POPS   CNO37059  30.497  10.287  15.856  0.1774 -0.4626  0.2322
70424POPS   PO437060  30.495   9.923  15.952  0.1116 -0.0277 -0.1700
70424POPS   GL137061  30.494   9.870  16.417  0.2388  0.1832  0.3230
70424POPS   GL237062  30.777   9.711  16.404  0.3343 -0.1095  0.0575
70424POPS   C1A37063  30.167   9.738  16.700 -0.2122 -0.0527  0.0447
70424POPS   D2A37064  29.813   9.585  17.027 -0.1392  0.0775 -0.0848
70424POPS   C3A37065  29.835   9.754  17.498  0.0901 -0.4236 -0.3549
70424POPS   C4A37066  29.987   9.894  17.919 -0.3207 -0.0026  0.0286
70424POPS   C1B37067  30.774   9.620  16.863 -0.0614  0.1358 -0.1284
70424POPS   C2B37068  30.981   9.659  17.286 -0.0342  0.0533  0.2860
70424POPS   C3B37069  30.866   9.794  17.695  0.0669 -0.3365  0.1153
70424POPS   C4B37070  30.991   9.883  18.101  0.0023  0.3539 -0.2908
70425POPS   CNO37071  20.165  12.261  16.289  0.0206 -0.0272 -0.0335
70425POPS   PO437072  20.035  12.264  16.658 -0.3361  0.0133 -0.4048
70425POPS   GL137073  19.896  12.456  16.995 -0.0560  0.1157  0.3332
70425POPS   GL237074  20.006  12.726  16.876  0.3654 -0.1077 -0.0418
70425POPS   C1A37075  19.695  12.732  17.331  0.0526  0.3665  0.1420
70425POPS   D2A37076  19.307  12.688  17.623 -0.1005 -0.2289 -0.0814
70425POPS   C3A37077  18.945  12.897  17.780  0.3667  0.1571 -0.1290
70425POPS   C4A37078  18.650  12.840  18.205 -0.1025 -0.1553  0.3030
70425POPS   C1B37079  20.143  12.832  17.305  0.1274 -0.1199  0.1778
70425POPS   C2B37080  20.226  12.755  17.750 -0.2450  0.0801 -0.1652
70425POPS   C3B37081  20.175  12.478  18.163 -0.0675 -0.1381  0.0865
70425POPS   C4B37082  19.987  12.259  18.532 -0.1596  0.2026  0.0249
70426POPS   CNO37083  31.244   7.939  10.748 -0.1626 -0.1350 -0.2838
70426POPS   PO437084  30.942   7.984  10.904 -0.0192  0.1473 -0.1509
70426POPS   GL137085  30.791   7.942  10.556 -0.0813 -0.0759  0.3686
70426POPS   GL237086  30.900   8.004  10.380 -0.1006  0.0876 -0.1288
70426POPS   C1A37087  30.557   7.562  10.561 -0.0307  0.0276 -0.0582
70426POPS   D2A37088  30.278   7.359  10.312  0.0478 -0.2197  0.4073
70426POPS   C3A37089  29.883   7.394  10.059  0.1512  0.2417  0.2016
70426POPS   C4A37090  29.446   7.479  10.088 -0.1734  0.2505  0.2140
70426POPS   C1B37091  30.840   7.752  10.059 -0.2198  0.1251 -0.2522
70426POPS   C2B37092  30.730   7.514   9.683  0.0201 -0.1985 -0.0735
70426POPS   C3B37093  30.366   7.481   9.349  0.3508 -0.0026 -0.0140
70426POPS   C4B37094  30.050   7.309   9.124 -0.1821  0.0541 -0.1527
70427POPS   CNO37095  19.407   4.304  15.509 -0.1462  0.0139 -0.2610
70427POPS   PO437096  19.263   4.586  15.270 -0.0038  0.0898 -0.0609
70427POPS   GL137097  19.454   4.820  15.538  0.1400 -0.2187  0.3989
70427POPS   GL237098  19.642   4.912  15.413 -0.0937 -0.4072  0.1340
70427POPS   C1A37099  19.505   4.726  15.993 -0.2413 -0.1520  0.0344
70427POPS   D2A37100  19.824   4.915  16.330 -0.0740  0.2175  0.2618
70427POPS   C3A37101  20.221   4.732  16.562  0.0700  0.2341 -0.2213
70427POPS   C4A37102  20.210   4.476  16.997  0.1061  0.3616  0.3197
70427POPS   C1B37103  19.983   4.769  15.671  0.0430  0.0663  0.1866
70427POPS   C2B37104  20.295   4.684  15.992 -0.1763  0.0983 -0.2736
70427POPS   C3B37105  20.633   4.665  16.290 -0.0420 -0.1004  0.1658
70427POPS   C4B37106  20.873   4.952  16.586  0.2007  0.1126  0.2232
70428POPS   CNO37107  28.435   9.648  12.561 -0.1482 -0.0655  0.1216
70428POPS   PO437108  28.589   9.564  12.862 -0.1552  0.0504 -0.2849
70428POPS   GL137109  28.428   9.192  12.627  0.1201  0.0750 -0.2852
70428POPS   GL237110  28.623   8.929  12.489  0.4031  0.1401  0.3401
70428POPS   C1A37111  28.053   9.242  12.354  0.0370  0.0740  0.2330
70428POPS   D2A37112  27.675   9.167  12.085 -0.0984  0.1689 -0.1006
70428POPS   C3A37113  27.413   8.790  11.978 -0.0561  0.0230 -0.0593
70428POPS   C4A37114  27.108   8.578  12.285  0.2515  0.0831  0.0402
70428POPS   C1B37115  28.361   8.621  12.402  0.0908 -0.3318  0.1441
70428POPS   C2B37116  28.039   8.329  12.254 -0.1123  0.0224 -0.0712
70428POPS   C3B37117  27.582   8.178  12.131  0.1100  0.0652  0.1369
70428POPS   C4B37118  27.156   8.103  11.986 -0.0199  0.1420 -0.0598
70429POPS   CNO37119  25.337  12.509  10.069 -0.0384 -0.1261  0.0978
70429POPS   PO437120  25.310  12.182   9.864 -0.3644  0.1290 -0.2894
70429POPS   GL137121  25.677  12.218   9.653 -0.0215 -0.1468 -0.0261
70429POPS   GL237122  25.537  12.242   9.393  0.0804  0.0795  0.3204
70429POPS   C1A37123  25.997  11.912   9.545 -0.1890  0.2173 -0.2683
70429POPS   D2A37124  26.402  11.781   9.578  0.4890  0.2237  0.3659
70429POPS   C3A37125  26.431  11.471   9.266  0.1793 -0.3120 -0.0009
70429POPS   C4A37126  26.591  11.065   9.144 -0.2530 -0.0731 -0.2118
70429POPS   C1B37127  25.792  12.057   9.018 -0.0924  0.1013 -0.2726
70429POPS   C2B37128  25.859  12.075   8.549  0.3531 -0.0216 -0.1934
70429POPS   C3B37129  26.147  12.049   8.219  0.2880 -0.0683 -0.1740
70429POPS   C4B37130  26.373  11.647   8.011  0.1573 -0.0314  0.2004
70430POPS   CNO37131  22.515   9.079  12.303  0.1216  0.0822 -0.3041
70430POPS   PO437132  22.771   9.225  12.099 -0.0630 -0.4182  0.1192
70430POPS   GL137133  22.967   8.922  11.951 -0.0345 -0.0743 -0.0220
70430POPS   GL237134  23.256   8.979  12.026  0.0328 -0.0159  0.0362
70430POPS   C1A37135  23.108   8.497  11.857  0.0048  0.0987  0.0964
70430POPS   D2A37136  23.483   8.248  11.757  0.1018  0.1031  0.1358
70430POPS   C3A37137  23.651   8.034  12.122 -0.0229  0.2423 -0.1131
70430POPS   C4A37138  23.875   7.748  12.461  0.2203  0.2214 -0.1280
70430POPS   C1B37139  23.512   8.629  12.098  0.2655 -0.0701  0.2444
70430POPS   C2B37140  23.915   8.432  12.082  0.1217  0.1148  0.0756
70430POPS   C3B37141  24.244   8.103  12.198 -0.0446 -0.0177 -0.2029
70430POPS   C4B37142  24.367   7.675  12.277 -0.0907 -0.0764 -0.1345
70431POPS   CNO37143  29.029   1.069  12.874 -0.2595  0.0832 -0.2311
70431POPS   PO437144  29.320   1.251  13.081  0.1617 -0.3208 -0.1474
70431POPS   GL137145  29.166   1.473  13.329  0.0486 -0.3745 -0.3113
70431POPS   GL237146  29.302   1.479  13.588 -0.1669 -0.3560  0.1169
70431POPS   C1A37147  29.256   1.946  13.464 -0.0880  0.2188  0.1667
70431POPS   D2A37148  29.010   2.244  13.737 -0.3728 -0.0179  0.0928
70431POPS   C3A37149  28.684   2.523  13.937 -0.0863 -0.0553 -0.1748
70431POPS   C4A37150  28.555   2.820  14.261 -0.0769  0.0122 -0.1745
70431POPS   C1B37151  29.371   1.660  13.988  0.4373 -0.0958 -0.0510
70431POPS   C2B37152  29.294   1.849  14.389 -0.0258  0.1104  0.2418
70431POPS   C3B37153  29.290   1.672  14.823  0.1602 -0.1485  0.2352
70431POPS   C4B37154  29.226   1.641  15.252  0.1118  0.0374 -0.0782
70432POPS   CNO37155  19.163  12.090  16.417 -0.1341 -0.1318  0.3791
70432POPS   PO437156  19.369  12.233  16.657  0.0985 -0.0265  0.1849
70432POPS   GL137157  19.455  11.882  16.824 -0.0522  0.4856 -0.1627
70432POPS   GL237158  19.691  12.003  16.961  0.2755 -0.2082  0.2926
70432POPS   C1A37159  19.229  11.842  17.228  0.3573  0.1041  0.4318
70432POPS   D2A37160  19.255  11.695  17.642 -0.1479  0.1354  0.1600
70432POPS   C3A37161  19.339  11.776  18.103 -0.2100  0.1872 -0.0651
70432POPS   C4A37162  19.611  11.917  18.465 -0.0415  0.3418  0.1801
70432POPS   C1B37163  19.763  11.839  17.323  0.3012  0.4112  0.0031
70432POPS   C2B37164  19.815  11.508  17.698 -0.1433  0.1191 -0.1303
70432POPS   C3B37165  19.725  11.265  18.115 -0.1055  0.1061  0.0741
70432POPS   C4B37166  19.744  10.967  18.432  0.0644  0.1572  0.1544
70433POPS   CNO37167  18.989  13.781  16.717 -0.1142  0.2539  0.2489
70433POPS   PO437168  19.232  13.471  16.698  0.1856 -0.0720 -0.3721
70433POPS   GL137169  19.424  13.424  17.047  0.1151  0.2976 -0.0992
70433POPS   GL237170  19.559  13.169  16.929 -0.1587  0.0399  0.4333
70433POPS   C1A37171  19.231  13.711  17.415  0.0789 -0.1411  0.0312
70433POPS   D2A37172  19.280  14.083  17.709 -0.1449 -0.2946  0.1032
70433POPS   C3A37173  19.262  14.167  18.150 -0.1909 -0.1643  0.0176
70433POPS   C4A37174  19.170  14.446  18.503 -0.0621 -0.2428 -0.1662
70433POPS   C1B37175  19.820  13.226  17.262 -0.3933 -0.1238 -0.2732
70433POPS   C2B37176  20.059  13.209  17.630 -0.0661 -0.1240  0.0488
70433POPS   C3B37177  20.129  13.103  18.089 -0.1216 -0.0131  0.2188
70433POPS   C4B37178  20.123  13.264  18.528 -0.3889 -0.0530 -0.3487
70434POPS   CNO37179   0.276   5.198  15.719  0.3198 -0.2308  0.1849
70434POPS   PO437180   0.110   4.929  15.489  0.0421  0.0063 -0.0693
70434POPS   GL137181  -0.108   4.788  15.786  0.1916 -0.0236 -0.1068
70434POPS   GL237182  -0.331   4.959  15.915  0.0687  0.1846 -0.2596
70434POPS   C1A37183   0.135   4.609  16.147 -0.1560  0.2329  0.1099
70434POPS   D2A37184   0.035   4.315  16.492  0.1781 -0.1589 -0.2418
70434POPS   C3A37185  -0.170   4.290  16.894  0.0054 -0.2095 -0.1446
70434POPS   C4A37186  -0.319   4.298  17.341  0.0916 -0.0631  0.0500
70434POPS   C1B37187  -0.236   5.403  15.943  0.1988  0.0602 -0.1725
70434POPS   C2B37188  -0.279   5.662  16.320  0.0507  0.1192  0.0202
70434POPS   C3B37189  -0.457   5.588  16.726 -0.1904  0.0239  0.2458
70434POPS   C4B37190  -0.494   5.192  16.945 -0.2607 -0.0940  0.1185
70435POPS   CNO37191   0.814  13.381  16.316 -0.2335  0.0926 -0.0079
70435POPS   PO437192   0.601  13.425  16.624  0.1797  0.1133 -0.2634
70435POPS   GL137193   0.645  13.250  16.877  0.1224  0.1498  0.2376
70435POPS   GL237194   0.680  12.981  16.899  0.1528 -0.1368  0.1394
70435POPS   C1A37195   0.311  13.088  17.161  0.1467 -0.1376  0.3934
70435POPS   D2A37196   0.004  12.837  17.418  0.0270  0.0489 -0.1853
70435POPS   C3A37197   0.080  12.786  17.894 -0.0741  0.0902 -0.1407
70435POPS   C4A37198   0.080  13.071  18.276 -0.1115  0.0193 -0.0608
70435POPS   C1B37199   0.578  12.657  17.192  0.0011  0.0815 -0.0037
70435POPS   C2B37200   0.355  12.407  17.476 -0.0065  0.0611 -0.0800
70435POPS   C3B37201   0.317  12.035  17.742  0.2011 -0.0270 -0.1188
70435POPS   C4B37202   0.118  11.846  18.118  0.3136  0.0043  0.1776
70436POPS   CNO37203  21.430   7.905  13.822  0.1073 -0.2577  0.1118
70436POPS   PO437204  21.370   7.843  14.194  0.2064  0.1201  0.1102
70436POPS   GL137205  21.737   7.712  14.295  0.1805  0.3215 -0.1648
70436POPS   GL237206  21.641   7.380  14.222 -0.0019  0.0398  0.0696
70436POPS   C1A37207  22.113   7.750  14.563 -0.2067 -0.2029 -0.2045
70436POPS   D2A37208  22.504   7.911  14.766  0.1167  0.1129 -0.0360
70436POPS   C3A37209  22.615   7.647  15.148 -0.2527 -0.0530  0.0905
70436POPS   C4A37210  22.388   7.531  15.542  0.1276  0.0572  0.0695
70436POPS   C1B37211  22.098   7.362  14.079  0.1080  0.2301  0.1760
70436POPS   C2B37212  22.474   7.110  14.262 -0.1848  0.1071  0.1066
70436POPS   C3B37213  22.849   6.998  14.489  0.2528 -0.1047 -0.0690
70436POPS   C4B37214  23.245   6.967  14.745 -0.0261  0.2374  0.2576
70437POPS   CNO37215  19.890   3.899  14.018 -0.2462  0.1544  0.1563
70437POPS   PO437216  20.008   4.196  14.208  0.1635 -0.0607  0.0428
70437POPS   GL137217  20.148   4.447  14.508  0.1964 -0.0861 -0.0988
70437POPS   GL237218  20.016   4.309  14.750 -0.1474 -0.0941  0.0713
70437POPS   C1A37219  20.546   4.447  14.750  0.0109  0.0294  0.2087
70437POPS   D2A37220  20.738   4.442  15.123  0.1021 -0.0448  0.0868
70437POPS   C3A37221  20.730   4.888  15.281  0.1424 -0.0297  0.2818
70437POPS   C4A37222  21.029   5.104  15.560  0.0357  0.1516 -0.0446
70437POPS   C1B37223  20.166   4.483  15.121  0.0074 -0.1704  0.0485
70437POPS   C2B37224  20.440   4.505  15.520  0.4085  0.2758 -0.3778
70437POPS   C3B37225  20.783   4.677  15.830  0.2722 -0.2459  0.1809
70437POPS   C4B37226  21.030   4.976  16.093 -0.0796 -0.3689  0.6186
70438POPS   CNO37227  27.750  12.623   9.445 -0.0694  0.1564  0.0369
70438POPS   PO437228  27.662  12.433   9.766  0.1068  0.1951  0.0041
70438POPS   GL137229  27.570  12.180   9.528 -0.1568 -0.0883 -0.2005
70438POPS   GL237230  27.678  11.891   9.626  0.1689  0.0016 -0.1218
70438POPS   C1A37231  27.716  12.221   9.069  0.2322 -0.1553  0.0525
70438POPS   D2A37232  27.872  12.262   8.615  0.0331  0.2245 -0.0106
70438POPS   C3A37233  27.678  12.052   8.285 -0.1465  0.0368 -0.0915
70438POPS   C4A37234  27.393  11.905   7.980  0.1089  0.0401  0.1671
70438POPS   C1B37235  27.710  11.585   9.293 -0.1504 -0.2461 -0.1604
70438POPS   C2B37236  27.555  11.371   8.931 -0.0015 -0.1725  0.1529
70438POPS   C3B37237  27.468  11.113   8.557 -0.0522 -0.2116  0.1068
70438POPS   C4B37238  27.518  10.712   8.305  0.0992 -0.1953  0.3277
70439POPS   CNO37239  20.634  12.113  16.315  0.0068  0.2115  0.0700
70439POPS   PO437240  20.450  11.901  16.615 -0.1803 -0.0557  0.0361
70439POPS   GL137241  20.453  11.948  16.984 -0.0324 -0.1578 -0.3939
70439POPS   GL237242  20.148  12.041  17.111  0.0463  0.0646 -0.3420
70439POPS   C1A37243  20.578  12.066  17.432 -0.1679 -0.0315 -0.2818
70439POPS   D2A37244  20.914  12.006  17.750  0.1737  0.0938  0.1345
70439POPS   C3A37245  21.162  11.838  18.049 -0.1154  0.0238  0.1115
70439POPS   C4A37246  21.313  11.745  18.462 -0.0508 -0.0298  0.0319
70439POPS   C1B37247  20.097  12.323  17.463  0.1453 -0.0412  0.2484
70439POPS   C2B37248  19.790  12.430  17.790  0.0550  0.0153  0.1252
70439POPS   C3B37249  19.668  12.788  18.009 -0.0335 -0.3925 -0.2677
70439POPS   C4B37250  19.717  12.996  18.432  0.1428 -0.0568  0.0510
70440POPS   CNO37251  16.735   2.067  15.317  0.2307  0.0360 -0.1681
70440POPS   PO437252  16.567   1.944  15.643  0.0739  0.0178 -0.1868
70440POPS   GL137253  16.242   1.956  15.960 -0.0259 -0.4248  0.1191
70440POPS   GL237254  16.038   1.730  15.872  0.0244 -0.4004  0.0123
70440POPS   C1A37255  16.415   1.771  16.368  0.2397  0.0328  0.0403
70440POPS   D2A37256  16.585   1.904  16.734 -0.3492 -0.0635  0.0745
70440POPS   C3A37257  16.286   2.012  17.101 -0.1105  0.1558 -0.0214
70440POPS   C4A37258  16.022   2.032  17.525 -0.0898  0.0513 -0.1734
70440POPS   C1B37259  15.924   1.759  16.285  0.1525 -0.4405 -0.3599
70440POPS   C2B37260  15.953   1.685  16.722 -0.0112  0.1470  0.1999
70440POPS   C3B37261  15.805   1.471  17.090  0.2242 -0.0173  0.1517
70440POPS   C4B37262  15.943   1.200  17.362 -0.1977 -0.1099  0.2221
70441POPS   CNO37263  18.144  14.381  16.218  0.2761 -0.4598 -0.2707
70441POPS   PO437264  18.111  14.275  16.567 -0.0620 -0.3113  0.1009
70441POPS   GL137265  18.131  14.251  16.940  0.2236 -0.1391  0.1667
70441POPS   GL237266  18.335  14.498  16.991  0.0710 -0.1741  0.1199
70441POPS   C1A37267  17.985  14.395  17.349 -0.1134  0.0879 -0.0964
70441POPS   D2A37268  18.201  14.606  17.644 -0.0664  0.1204 -0.1360
70441POPS   C3A37269  17.878  14.800  17.923 -0.1247 -0.1637 -0.3622
70441POPS   C4A37270  17.511  14.754  18.191 -0.2048  0.0851  0.1617
70441POPS   C1B37271  18.626  14.465  17.324 -0.2767 -0.3420  0.1115
70441POPS   C2B37272  18.884  14.469  17.730 -0.1960 -0.1492 -0.1438
70441POPS   C3B37273  19.122  14.769  17.985 -0.2282 -0.0815  0.0090
70441POPS   C4B37274  19.407  14.958  18.266 -0.0600  0.3878 -0.0046
70442POPS   CNO37275  25.337  11.369  15.131  0.1762 -0.2772  0.0238
70442POPS   PO437276  25.227  11.105  15.399 -0.0160 -0.2562  0.1825
70442POPS   GL137277  25.287  10.885  15.718  0.2594  0.0738 -0.3293
70442POPS   GL237278  25.231  11.021  15.983 -0.2687  0.2424  0.0581
70442POPS   C1A37279  25.220  10.425  15.858 -0.0162  0.0745 -0.2408
70442POPS   D2A37280  25.057  10.258  16.214  0.4420 -0.0254 -0.2279
70442POPS   C3A37281  25.033   9.998  16.579 -0.0556 -0.3862  0.0080
70442POPS   C4A37282  25.143   9.689  16.883 -0.0597  0.1105 -0.1294
70442POPS   C1B37283  25.380  10.703  16.268 -0.0486 -0.0021  0.2201
70442POPS   C2B37284  25.424  10.411  16.682  0.0952  0.1812  0.2748
70442POPS   C3B37285  25.474   9.994  16.810 -0.2996 -0.1344  0.3026
70442POPS   C4B37286  25.625   9.629  17.060  0.1115 -0.0374  0.2157
70443POPS   CNO37287  23.796  12.369  15.864 -0.1697  0.4089  0.1746
70443POPS   PO437288  23.813  12.555  16.187  0.2109  0.0264 -0.0778
70443POPS   GL137289  23.809  12.369  16.549 -0.1275  0.3479  0.0863
70443POPS   GL237290  23.923  12.140  16.571 -0.1091  0.0004  0.2708
70443POPS   C1A37291  23.651  12.471  16.966 -0.2568 -0.5114 -0.0017
70443POPS   D2A37292  23.640  12.490  17.446  0.1048  0.2002  0.1063
70443POPS   C3A37293  23.236  12.497  17.626 -0.2176 -0.0796 -0.1992
70443POPS   C4A37294  23.161  12.499  18.094 -0.2487  0.1378 -0.0819
70443POPS   C1B37295  24.208  12.228  16.908  0.0360 -0.1036  0.1788
70443POPS   C2B37296  24.332  12.218  17.343 -0.2938  0.0709 -0.0017
70443POPS   C3B37297  24.234  12.405  17.763  0.2151 -0.0723  0.0542
70443POPS   C4B37298  24.232  12.570  18.205 -0.1594  0.0375  0.0078
70444POPS   CNO37299  28.453   1.154  12.028 -0.2837  0.1539 -0.0881
70444POPS   PO437300  28.102   1.163  11.884 -0.0382 -0.0880  0.2633
70444POPS   GL137301  28.118   1.407  12.277 -0.2601 -0.1146 -0.1371
70444POPS   GL237302  28.152   1.215  12.443 -0.1032 -0.2437 -0.0269
70444POPS   C1A37303  28.297   1.767  12.441 -0.2830  0.1019 -0.0349
70444POPS   D2A37304  28.181   1.952  12.860  0.1757 -0.1379  0.0580
70444POPS   C3A37305  28.372   2.203  13.225  0.0729  0.0346 -0.1834
70444POPS   C4A37306  28.730   2.494  13.412 -0.2263 -0.1938 -0.2457
70444POPS   C1B37307  27.857   1.605  12.634 -0.3305 -0.2596 -0.1906
70444POPS   C2B37308  27.432   1.814  12.624 -0.0144 -0.0795 -0.3629
70444POPS   C3B37309  27.192   2.163  12.837 -0.0504  0.0384 -0.0123
70444POPS   C4B37310  26.781   2.367  12.796  0.1473 -0.1031  0.3052
70445POPS   CNO37311   0.826   7.885  15.989  0.0539  0.1376  0.3265
70445POPS   PO437312   0.857   8.238  15.966  0.2173  0.3398  0.1098
70445POPS   GL137313   0.958   8.229  16.329 -0.0474  0.2329  0.3168
70445POPS   GL237314   0.672   8.292  16.439 -0.0968  0.4647  0.3320
70445POPS   C1A37315   0.910   7.921  16.690  0.0839 -0.0618  0.0704
70445POPS   D2A37316   0.937   7.688  17.109  0.0697 -0.3111 -0.0123
70445POPS   C3A37317   0.874   7.522  17.508  0.4906 -0.0928  0.0433
70445POPS   C4A37318   0.564   7.525  17.887 -0.2724  0.3338  0.1325
70445POPS   C1B37319   0.314   8.341  16.799 -0.0692 -0.3997 -0.0483
70445POPS   C2B37320  -0.022   8.199  17.140  0.0394  0.1632  0.0519
70445POPS   C3B37321  -0.230   8.211  17.537  0.3039 -0.0849  0.0137
70445POPS   C4B37322  -0.263   8.174  17.997 -0.3776  0.0835 -0.1082
70446POPS   CNO37323  29.999  10.589  16.212 -0.2197  0.1271  0.2192
70446POPS   PO437324  30.253  10.811  16.279 -0.1903 -0.0329  0.1156
70446POPS   GL137325  30.165  10.908  16.599  0.5268 -0.0148  0.0372
70446POPS   GL237326  30.253  11.179  16.674  0.1026 -0.0646 -0.0375
70446POPS   C1A37327  29.874  10.807  16.895 -0.1755 -0.1695 -0.2251
70446POPS   D2A37328  29.665  10.667  17.291 -0.2987  0.0542 -0.1508
70446POPS   C3A37329  29.819  10.747  17.732  0.1212  0.0982 -0.1604
70446POPS   C4A37330  29.742  10.639  18.138  0.0368 -0.1659  0.0289
70446POPS   C1B37331  30.280  10.964  17.093  0.4302  0.1033  0.3799
70446POPS   C2B37332  30.279  11.027  17.560 -0.3230  0.4132  0.0761
70446POPS   C3B37333  30.667  11.133  17.810  0.1231 -0.1447  0.1191
70446POPS   C4B37334  30.889  11.305  18.135 -0.2707 -0.1432 -0.0119
70447POPS   CNO37335  32.540   8.980   9.550 -0.0479 -0.0355  0.1165
70447POPS   PO437336  32.156   8.957   9.623 -0.0274  0.0582  0.2815
70447POPS   GL137337  31.913   8.860   9.426  0.1660  0.1049 -0.1253
70447POPS   GL237338  32.023   8.984   9.151 -0.2707 -0.0886  0.0228
70447POPS   C1A37339  31.589   8.823   9.041  0.1450 -0.1045 -0.2081
70447POPS   D2A37340  31.309   9.011   8.710 -0.0890 -0.0359  0.0175
70447POPS   C3A37341  31.337   9.308   8.319  0.0782  0.0810  0.3062
70447POPS   C4A37342  31.160   9.512   7.955  0.1783  0.3131 -0.1084
70447POPS   C1B37343  31.959   9.007   8.679 -0.1345 -0.1259  0.1384
70447POPS   C2B37344  31.676   8.851   8.385 -0.0634 -0.0227  0.1829
70447POPS   C3B37345  31.235   8.722   8.340 -0.0900 -0.0621 -0.2279
70447POPS   C4B37346  30.828   8.583   8.322 -0.0126 -0.0152  0.0026
70448POPS   CNO37347  27.517  14.204  15.794  0.0710  0.0360 -0.0161
70448POPS   PO437348  27.535  14.118  16.155 -0.0375 -0.1229 -0.0901
70448POPS   GL137349  27.574  13.810  16.377  0.2816 -0.1875 -0.1860
70448POPS   GL237350  27.796  13.887  16.534 -0.0980  0.0303 -0.1661
70448POPS   C1A37351  27.312  13.800  16.771  0.1607  0.2059 -0.0533
70448POPS   D2A37352  27.183  13.710  17.160  0.1269  0.0971 -0.3953
70448POPS   C3A37353  27.435  13.504  17.515 -0.1590 -0.1462 -0.0106
70448POPS   C4A37354  27.326  13.254  17.881 -0.2763  0.0186 -0.1974
70448POPS   C1B37355  27.741  14.020  16.993 -0.1041  0.2461  0.2647
70448POPS   C2B37356  27.640  14.141  17.414 -0.0182 -0.0850  0.2597
70448POPS   C3B37357  27.728  14.478  17.684  0.1219 -0.3878 -0.0168
70448POPS   C4B37358  27.589  14.918  17.780 -0.2106 -0.0940  0.0796
70449POPS   CNO37359  16.729   6.477  15.826 -0.2358 -0.1318  0.0273
70449POPS   PO437360  16.988   6.668  16.072 -0.1604  0.0544 -0.2576
70449POPS   GL137361  16.957   6.964  16.452  0.4937 -0.1058  0.0537
70449POPS   GL237362  16.908   6.731  16.598 -0.1057 -0.0813 -0.3222
70449POPS   C1A37363  16.792   7.089  16.933  0.2248  0.1337  0.3893
70449POPS   D2A37364  16.541   6.871  17.280 -0.3223 -0.4569  0.0675
70449POPS   C3A37365  16.534   6.662  17.665 -0.0902 -0.2147 -0.1019
70449POPS   C4A37366  16.347   6.694  18.093  0.0585  0.1086 -0.1542
70449POPS   C1B37367  16.917   6.639  17.065  0.0828  0.4005 -0.1616
70449POPS   C2B37368  17.018   6.592  17.520 -0.1478 -0.0004  0.0148
70449POPS   C3B37369  17.137   6.597  17.963  0.1868  0.3502  0.4754
70449POPS   C4B37370  17.405   6.537  18.249  0.1395 -0.0030 -0.1315
70450POPS   CNO37371  23.411  11.047  15.894 -0.0978 -0.0496  0.2199
70450POPS   PO437372  23.696  11.226  15.726  0.0911 -0.2340 -0.0163
70450POPS   GL137373  23.781  11.199  16.098  0.1732  0.1161 -0.0524
70450POPS   GL237374  23.873  10.834  16.135 -0.3379 -0.3919  0.2703
70450POPS   C1A37375  23.462  11.139  16.445  0.0214 -0.2573  0.1547
70450POPS   D2A37376  23.306  10.784  16.736 -0.2608 -0.1524  0.1288
70450POPS   C3A37377  23.317  10.367  16.733  0.0892  0.0936 -0.1266
70450POPS   C4A37378  23.523   9.999  16.647  0.0325 -0.0768  0.0299
70450POPS   C1B37379  23.844  10.834  16.615 -0.1259  0.0541  0.2106
70450POPS   C2B37380  23.771  10.525  16.965 -0.0433  0.0971 -0.1070
70450POPS   C3B37381  23.957  10.247  17.309 -0.0607 -0.0093 -0.0005
70450POPS   C4B37382  24.113  10.004  17.686  0.0165 -0.2135 -0.1480
70451POPS   CNO37383  28.816  10.655  16.043 -0.3208 -0.1221 -0.1548
70451POPS   PO437384  28.716  10.359  16.267  0.0087  0.1840 -0.3769
70451POPS   GL137385  28.546  10.306  16.592 -0.0953 -0.3270  0.2787
70451POPS   GL237386  28.453  10.041  16.580  0.0570  0.1652  0.1302
70451POPS   C1A37387  28.577  10.192  17.056  0.2517  0.0923 -0.0942
70451POPS   D2A37388  28.702  10.264  17.477  0.0593 -0.1267 -0.1847
70451POPS   C3A37389  28.739  10.681  17.725 -0.0979 -0.0021  0.6228
70451POPS   C4A37390  28.806  11.030  17.446  0.1285 -0.1177  0.1595
70451POPS   C1B37391  28.414   9.632  16.854 -0.1859  0.1797  0.1844
70451POPS   C2B37392  28.264   9.408  17.256 -0.1964 -0.3242 -0.1656
70451POPS   C3B37393  28.323   9.004  17.504  0.2678  0.2479  0.1444
70451POPS   C4B37394  28.348   8.559  17.663 -0.1191 -0.1942 -0.1499
70452POPS   CNO37395  30.750  15.628  15.964 -0.0216  0.0703  0.2921
70452POPS   PO437396  30.403  15.712  16.086 -0.4299 -0.2294 -0.2726
70452POPS   GL137397  30.371  15.995  16.350  0.0518 -0.5703  0.0996
70452POPS   GL237398  30.197  15.875  16.566  0.1507 -0.1119 -0.0081
70452POPS   C1A37399  30.550  16.210  16.723  0.1186 -0.2849 -0.4719
70452POPS   D2A37400  30.494  16.319  17.174  0.0246 -0.2515 -0.1875
70452POPS   C3A37401  30.452  16.731  17.359 -0.0387  0.1325  0.1758
70452POPS   C4A37402  30.754  16.902  17.643 -0.3007 -0.0571  0.0768
70452POPS   C1B37403  30.225  15.930  17.019  0.0757  0.2507 -0.2102
70452POPS   C2B37404  29.951  16.051  17.359  0.4016  0.2588 -0.1794
70452POPS   C3B37405  29.570  15.959  17.587 -0.0314 -0.3924  0.2707
70452POPS   C4B37406  29.193  16.151  17.808 -0.2283 -0.0162  0.2345
70453POPS   CNO37407  19.023  14.456  16.245  0.3033  0.0734  0.2052
70453POPS   PO437408  18.959  14.105  16.366 -0.0060  0.0432  0.0098
70453POPS   GL137409  18.938  14.209  16.752 -0.4023 -0.3472 -0.0213
70453POPS   GL237410  19.167  14.329  16.856 -0.0933  0.1152  0.1711
70453POPS   C1A37411  18.919  14.067  17.200 -0.0171 -0.2956  0.0314
70453POPS   D2A37412  18.775  13.850  17.591 -0.0288  0.0522  0.0000
70453POPS   C3A37413  18.808  13.962  17.978  0.0658 -0.2312 -0.0693
70453POPS   C4A37414  18.927  13.734  18.390 -0.3206 -0.0737 -0.0031
70453POPS   C1B37415  19.324  14.362  17.279  0.3355  0.0830 -0.2074
70453POPS   C2B37416  19.460  14.657  17.657  0.1333  0.0067 -0.2085
70453POPS   C3B37417  19.710  14.525  17.979 -0.2548  0.1730 -0.2721
70453POPS   C4B37418  19.791  14.569  18.456 -0.0842  0.0565  0.0628
70454POPS   CNO37419  23.598  10.764  15.549 -0.0284  0.0213  0.3586
70454POPS   PO437420  23.790  10.645  15.230 -0.0597 -0.0569 -0.1938
70454POPS   GL137421  24.013  10.490  15.494 -0.0766  0.2408 -0.2454
70454POPS   GL237422  23.872  10.180  15.448  0.1664  0.1730  0.0652
70454POPS   C1A37423  24.157  10.380  15.910  0.1796 -0.1358  0.1023
70454POPS   D2A37424  24.189  10.519  16.331  0.0979  0.0681  0.1694
70454POPS   C3A37425  23.987  10.254  16.629  0.1275  0.2596 -0.0362
70454POPS   C4A37426  24.055   9.911  16.945 -0.1249 -0.3081  0.1459
70454POPS   C1B37427  24.104   9.843  15.776 -0.0563  0.0793  0.1087
70454POPS   C2B37428  24.306   9.869  16.168  0.0497 -0.0789 -0.3610
70454POPS   C3B37429  24.484   9.976  16.574 -0.0427  0.1811 -0.0616
70454POPS   C4B37430  24.640  10.003  16.998  0.0201  0.1468 -0.0818
70455POPS   CNO37431  17.559   6.080  15.393  0.0798 -0.0619  0.2421
70455POPS   PO437432  17.854   6.080  15.589  0.0352 -0.0087  0.0282
70455POPS   GL137433  18.148   6.026  15.999  0.0482 -0.0732 -0.6013
70455POPS   GL237434  17.925   6.078  16.125  0.2495 -0.1746 -0.0366
70455POPS   C1A37435  18.226   5.694  16.336 -0.0195  0.2167 -0.1662
70455POPS   D2A37436  18.357   5.400  16.678  0.1669 -0.1286 -0.2686
70455POPS   C3A37437  18.443   5.496  17.142 -0.1825  0.0507 -0.1042
70455POPS   C4A37438  18.523   5.465  17.547  0.2784  0.4352  0.1374
70455POPS   C1B37439  17.944   6.076  16.593 -0.1131 -0.2071 -0.1773
70455POPS   C2B37440  17.745   6.203  16.970  0.1506 -0.0867 -0.0589
70455POPS   C3B37441  17.679   6.157  17.432 -0.1582  0.1931 -0.1416
70455POPS   C4B37442  17.324   6.235  17.670  0.0543 -0.1996 -0.3596
70456POPS   CNO37443  27.579  32.783  14.309  0.2077 -0.1058  0.1402
70456POPS   PO437444  27.238  32.936  14.292 -0.0783  0.0366 -0.1299
70456POPS   GL137445  27.123  33.197  13.992 -0.1117  0.1042  0.1235
70456POPS   GL237446  27.016  33.375  14.205 -0.0451 -0.1932 -0.0092
70456POPS   C1A37447  27.405  33.599  13.964 -0.0176  0.0524  0.0643
70456POPS   D2A37448  27.304  34.051  13.894 -0.2283  0.0779 -0.0215
70456POPS   C3A37449  26.913  34.234  13.976 -0.1327 -0.0149 -0.0245
70456POPS   C4A37450  26.609  34.442  14.278  0.2608 -0.1548  0.0766
70456POPS   C1B37451  27.207  33.703  14.459  0.1053 -0.0700  0.0071
70456POPS   C2B37452  27.592  33.825  14.699  0.0086 -0.0166  0.3485
70456POPS   C3B37453  27.771  34.238  14.756  0.0626 -0.1292  0.2566
70456POPS   C4B37454  28.117  34.459  14.968  0.0146 -0.1198 -0.0050
70457POPS   CNO37455  29.548   8.501  15.599  0.0377 -0.2942  0.0208
70457POPS   PO437456  29.858   8.664  15.362  0.0674 -0.0548  0.0939
70457POPS   GL137457  30.066   8.483  15.567  0.0173 -0.0983  0.0544
70457POPS   GL237458  30.109   8.649  15.794 -0.3320 -0.0145  0.0322
70457POPS   C1A37459  30.182   8.150  15.893 -0.2465 -0.1620 -0.0062
70457POPS   D2A37460  30.537   7.866  15.864  0.2181  0.1585 -0.0181
70457POPS   C3A37461  30.530   7.499  16.191 -0.1436 -0.0861 -0.1814
70457POPS   C4A37462  30.368   7.187  16.485  0.0358  0.2553 -0.0504
70457POPS   C1B37463  29.961   8.472  16.124 -0.0293  0.0461 -0.1045
70457POPS   C2B37464  29.626   8.427  16.434 -0.1796 -0.2460 -0.2671
70457POPS   C3B37465  29.331   8.340  16.825  0.1872  0.4352  0.0094
70457POPS   C4B37466  28.983   8.080  16.837  0.1629 -0.3373 -0.2370
70458POPS   CNO37467   0.123   2.478  15.537 -0.1401 -0.0707 -0.1470
70458POPS   PO437468  -0.024   2.456  15.889 -0.0212 -0.2012 -0.0405
70458POPS   GL137469  -0.079   2.507  16.271  0.3389  0.1628 -0.1165
70458POPS   GL237470  -0.141   2.740  16.387 -0.1011 -0.0308  0.2077
70458POPS   C1A37471  -0.297   2.368  16.682  0.0861  0.3350  0.0063
70458POPS   D2A37472  -0.697   2.295  16.944 -0.4165 -0.0081 -0.3062
70458POPS   C3A37473  -0.681   2.391  17.412 -0.0256  0.1359 -0.1211
70458POPS   C4A37474  -0.924   2.345  17.793 -0.2803  0.1138 -0.0443
70458POPS   C1B37475   0.037   2.772  16.801 -0.3610  0.0309  0.0227
70458POPS   C2B37476  -0.044   3.080  17.167 -0.0324  0.0755  0.2650
70458POPS   C3B37477  -0.345   3.407  17.272  0.0558 -0.0285 -0.0048
70458POPS   C4B37478  -0.734   3.701  17.194  0.0546  0.1499  0.3950
70459POPS   CNO37479  17.619  15.474  16.250 -0.1673 -0.3349  0.2548
70459POPS   PO437480  17.251  15.425  16.358 -0.1668  0.0694  0.1466
70459POPS   GL137481  17.232  15.445  16.699 -0.1242  0.1145 -0.1253
70459POPS   GL237482  17.368  15.175  16.811  0.1551  0.3235  0.1278
70459POPS   C1A37483  16.893  15.216  16.982 -0.0991 -0.0492 -0.0110
70459POPS   D2A37484  16.716  14.834  17.193 -0.1602 -0.3246 -0.4760
70459POPS   C3A37485  16.623  14.768  17.675  0.2782  0.1041 -0.1400
70459POPS   C4A37486  16.616  14.852  18.098  0.2414  0.0157  0.1865
70459POPS   C1B37487  17.587  15.283  17.189 -0.0883  0.0750 -0.1264
70459POPS   C2B37488  17.607  15.289  17.623 -0.0660 -0.0965 -0.0743
70459POPS   C3B37489  17.758  15.344  18.059  0.0785  0.1120 -0.1702
70459POPS   C4B37490  17.646  15.265  18.515 -0.1802  0.0216  0.0750
70460POPS   CNO37491  20.380  10.159  15.932  0.0400 -0.2025 -0.0783
70460POPS   PO437492  20.306   9.901  16.176  0.0247 -0.2373 -0.1255
70460POPS   GL137493  20.580   9.811  16.407  0.0671  0.0761  0.1465
70460POPS   GL237494  20.692  10.052  16.639 -0.0606 -0.2608  0.4392
70460POPS   C1A37495  20.443   9.738  16.860 -0.1269  0.0974 -0.0255
70460POPS   D2A37496  20.556   9.521  17.284 -0.0355  0.0147  0.0892
70460POPS   C3A37497  20.697   9.154  17.515 -0.0684 -0.0733 -0.0639
70460POPS   C4A37498  21.018   8.807  17.545 -0.1928  0.0972 -0.0012
70460POPS   C1B37499  21.008  10.148  16.935  0.2171  0.0795 -0.3422
70460POPS   C2B37500  21.043  10.108  17.373 -0.1770  0.3718 -0.1598
70460POPS   C3B37501  21.174  10.010  17.774 -0.2578 -0.2051 -0.0944
70460POPS   C4B37502  21.223   9.859  18.253 -0.1122  0.0666 -0.2876
70461POPS   CNO37503  28.435   9.494  14.236  0.3938 -0.3131  0.0728
70461POPS   PO437504  28.271   9.439  13.866 -0.4937 -0.1777  0.1320
70461POPS   GL137505  28.108   9.089  14.095  0.2263 -0.1790  0.0219
70461POPS   GL237506  27.997   8.939  13.826  0.0456  0.0534 -0.2847
70461POPS   C1A37507  28.252   8.668  14.166  0.3374 -0.0648  0.0153
70461POPS   D2A37508  28.387   8.268  14.322 -0.1493 -0.3559  0.0027
70461POPS   C3A37509  28.164   7.863  14.388  0.0075  0.2104  0.0870
70461POPS   C4A37510  27.810   7.481  14.448  0.1149 -0.1418  0.0381
70461POPS   C1B37511  28.108   8.531  13.667  0.0783 -0.1417 -0.1281
70461POPS   C2B37512  27.987   8.164  13.900  0.2218 -0.0661  0.3599
70461POPS   C3B37513  27.822   7.765  14.036 -0.1411  0.1831 -0.0522
70461POPS   C4B37514  27.766   7.318  13.922 -0.2831 -0.2477 -0.2883
70462POPS   CNO37515  21.991   9.159  15.007 -0.1678 -0.0392 -0.1137
70462POPS   PO437516  22.365   9.118  14.897 -0.1748  0.1249  0.1299
70462POPS   GL137517  22.613   9.058  15.162  0.5980  0.5355  0.0111
70462POPS   GL237518  22.575   8.755  15.268  0.1459 -0.2497  0.0850
70462POPS   C1A37519  22.827   9.113  15.572  0.2107 -0.1888 -0.2360
70462POPS   D2A37520  22.913   9.398  15.948  0.2523 -0.3326 -0.0229
70462POPS   C3A37521  23.068   9.171  16.315  0.1062 -0.2910  0.0513
70462POPS   C4A37522  23.278   8.779  16.547  0.1841 -0.0980  0.1581
70462POPS   C1B37523  22.781   8.485  15.558 -0.2660  0.3263 -0.1255
70462POPS   C2B37524  22.906   8.075  15.768  0.0790  0.4054 -0.1194
70462POPS   C3B37525  23.016   7.557  15.679 -0.1176 -0.0100  0.3480
70462POPS   C4B37526  22.968   7.159  15.851  0.1003 -0.1312 -0.1407
70463POPS   CNO37527  17.573   1.845  15.194 -0.1464 -0.3179  0.1052
70463POPS   PO437528  17.517   2.070  15.519 -0.0498 -0.0891 -0.0440
70463POPS   GL137529  17.284   2.064  15.944  0.1828 -0.2063  0.3275
70463POPS   GL237530  17.271   1.793  16.000  0.1218 -0.3416 -0.3428
70463POPS   C1A37531  17.373   2.368  16.333 -0.0282  0.0527 -0.1550
70463POPS   D2A37532  17.267   2.750  16.525  0.1538 -0.1669 -0.2281
70463POPS   C3A37533  17.259   2.698  16.956  0.1026 -0.1776 -0.0754
70463POPS   C4A37534  16.891   2.632  17.260  0.0619  0.1212  0.1311
70463POPS   C1B37535  17.265   1.927  16.457 -0.0621 -0.1430 -0.0318
70463POPS   C2B37536  17.258   2.097  16.886 -0.1730 -0.2581 -0.0205
70463POPS   C3B37537  17.273   2.332  17.295 -0.2245  0.0736 -0.0229
70463POPS   C4B37538  17.312   2.647  17.614  0.0329 -0.2042 -0.2350
70464POPS   CNO37539  16.064   1.908  19.737  0.1085  0.2477 -0.2089
70464POPS   PO437540  16.231   2.217  19.622  0.4320 -0.1669  0.0450
70464POPS   GL137541  16.264   1.979  19.234  0.1565  0.0047 -0.1361
70464POPS   GL237542  16.052   1.769  19.178 -0.4533 -0.0950  0.2925
70464POPS   C1A37543  16.290   2.249  18.823 -0.0900  0.4073  0.2206
70464POPS   D2A37544  16.052   2.506  18.456 -0.0363 -0.2910 -0.4120
70464POPS   C3A37545  15.892   2.806  18.774  0.0599 -0.2085 -0.2892
70464POPS   C4A37546  15.629   2.860  19.154 -0.0106  0.4036 -0.0771
70464POPS   C1B37547  16.241   1.768  18.764  0.0901 -0.0626 -0.2464
70464POPS   C2B37548  16.134   2.016  18.388  0.1546  0.0701  0.0969
70464POPS   C3B37549  16.015   2.275  18.000 -0.2225  0.1663  0.0360
70464POPS   C4B37550  15.803   2.676  17.953 -0.2498 -0.1221 -0.1320
70465POPS   CNO37551  28.926  15.475  20.573 -0.2273  0.1198 -0.1216
70465POPS   PO437552  29.103  15.568  20.260  0.0580 -0.0695  0.1518
70465POPS   GL137553  29.326  15.816  20.034  0.2089 -0.0251 -0.2160
70465POPS   GL237554  29.572  15.640  20.019 -0.0906  0.3045  0.2003
70465POPS   C1A37555  29.450  15.908  19.578  0.0881  0.0045 -0.0480
70465POPS   D2A37556  29.638  15.727  19.193  0.2099  0.1261  0.2242
70465POPS   C3A37557  29.403  15.470  18.929 -0.1072  0.0298  0.0997
70465POPS   C4A37558  29.232  15.477  18.499  0.2365 -0.1803 -0.0453
70465POPS   C1B37559  29.689  15.451  19.623 -0.3875  0.0229 -0.2023
70465POPS   C2B37560  29.764  15.272  19.167 -0.0097  0.1155 -0.0761
70465POPS   C3B37561  29.971  15.189  18.806  0.1300  0.0851  0.0951
70465POPS   C4B37562  30.261  14.893  18.644 -0.2181  0.1129  0.1561
70466POPS   CNO37563  24.998   2.746  17.379  0.1019 -0.0368 -0.1659
70466POPS   PO437564  24.615   2.674  17.365 -0.0298 -0.1176  0.0493
70466POPS   GL137565  24.828   2.410  17.139 -0.1653  0.1809 -0.1310
70466POPS   GL237566  24.674   2.183  17.125  0.1725  0.0774  0.1878
70466POPS   C1A37567  24.966   2.278  16.732 -0.0738  0.1395 -0.0330
70466POPS   D2A37568  24.892   2.409  16.283 -0.2347 -0.6089 -0.3040
70466POPS   C3A37569  24.510   2.320  16.099 -0.0209  0.1424  0.0601
70466POPS   C4A37570  24.220   2.064  15.981  0.1005  0.1037  0.1480
70466POPS   C1B37571  24.510   1.910  16.836  0.1404  0.3098 -0.0706
70466POPS   C2B37572  24.630   1.895  16.412 -0.1773  0.2417  0.2313
70466POPS   C3B37573  24.660   1.810  15.956 -0.0551  0.0082  0.0652
70466POPS   C4B37574  24.625   1.525  15.658  0.2428 -0.2037  0.1417
70467POPS   CNO37575  22.342  10.472  20.501 -0.0745  0.1608 -0.0375
70467POPS   PO437576  22.315  10.656  20.209  0.2621  0.0042 -0.3430
70467POPS   GL137577  22.172  10.744  19.844 -0.1093 -0.1159  0.2250
70467POPS   GL237578  22.017  10.986  19.743 -0.0789 -0.0169 -0.1402
70467POPS   C1A37579  21.817  10.546  19.654  0.1183 -0.2149 -0.0487
70467POPS   D2A37580  21.531  10.630  19.314 -0.0490  0.0599 -0.3959
70467POPS   C3A37581  21.686  10.681  18.887 -0.0048 -0.0488  0.4496
70467POPS   C4A37582  21.776  10.636  18.436  0.0262  0.0226  0.0079
70467POPS   C1B37583  21.776  11.098  19.384  0.2038  0.0328 -0.3458
70467POPS   C2B37584  21.532  11.292  19.086 -0.1479  0.0858 -0.0338
70467POPS   C3B37585  21.076  11.289  18.977  0.0413  0.3777  0.0832
70467POPS   C4B37586  20.665  11.479  19.125  0.2303  0.2160  0.0159
70468POPS   CNO37587  31.500   5.741  19.308  0.0764  0.0132 -0.1114
70468POPS   PO437588  31.194   5.795  19.195  0.3516 -0.4203  0.0585
70468POPS   GL137589  31.126   5.986  18.759  0.0655  0.0546  0.0578
70468POPS   GL237590  30.888   5.703  18.655 -0.0690 -0.0529  0.1998
70468POPS   C1A37591  31.386   6.104  18.369  0.0877  0.0360  0.0604
70468POPS   D2A37592  31.749   6.224  18.072  0.1939  0.0207  0.2138
70468POPS   C3A37593  31.623   6.071  17.648 -0.1643  0.3886 -0.2699
70468POPS   C4A37594  31.287   5.933  17.413 -0.0643  0.0422  0.0087
70468POPS   C1B37595  30.903   5.835  18.224 -0.0643  0.1085  0.1595
70468POPS   C2B37596  30.879   5.890  17.742 -0.1864 -0.0394 -0.1931
70468POPS   C3B37597  30.818   5.724  17.315  0.0412 -0.2458  0.2297
70468POPS   C4B37598  30.526   5.412  16.980  0.2305 -0.2880  0.1197
70469POPS   CNO37599  15.322   4.925  20.017  0.2348 -0.0962  0.0347
70469POPS   PO437600  15.596   4.785  19.792  0.0713 -0.1372 -0.2532
70469POPS   GL137601  15.751   4.660  19.422  0.6325 -0.1809  0.0884
70469POPS   GL237602  15.865   4.909  19.392 -0.0780 -0.1239  0.1321
70469POPS   C1A37603  15.732   4.380  19.064  0.0445 -0.1533  0.2083
70469POPS   D2A37604  15.586   4.262  18.623 -0.0354  0.1080 -0.1595
70469POPS   C3A37605  15.918   4.003  18.394 -0.0952 -0.3491  0.1404
70469POPS   C4A37606  16.225   4.040  18.039 -0.0956 -0.1812 -0.4414
70469POPS   C1B37607  15.847   5.117  18.938  0.2857  0.0374  0.0890
70469POPS   C2B37608  15.966   5.031  18.477 -0.1390  0.0819 -0.2321
70469POPS   C3B37609  16.103   4.958  18.068  0.0128 -0.1440 -0.0636
70469POPS   C4B37610  16.297   5.014  17.627  0.1726 -0.0383  0.1968
70470POPS   CNO37611  20.306   0.926  20.471  0.0668 -0.3792  0.1893
70470POPS   PO437612  20.100   1.036  20.184  0.2553  0.3444 -0.1283
70470POPS   GL137613  19.948   0.896  19.871  0.0513 -0.1881 -0.1344
70470POPS   GL237614  19.952   1.012  19.651 -0.1976 -0.0359  0.0670
70470POPS   C1A37615  20.001   0.482  19.667  0.1549  0.0700 -0.2398
70470POPS   D2A37616  19.845   0.193  19.370  0.0988 -0.1396 -0.1216
70470POPS   C3A37617  20.233   0.071  19.115 -0.0567 -0.1313  0.0498
70470POPS   C4A37618  20.649  -0.140  19.088 -0.2415  0.1918 -0.0508
70470POPS   C1B37619  19.696   0.929  19.255  0.0107 -0.2022 -0.0183
70470POPS   C2B37620  19.512   0.978  18.853  0.2368  0.2401 -0.0944
70470POPS   C3B37621  19.204   1.044  18.515 -0.1913  0.1737  0.1469
70470POPS   C4B37622  18.859   0.884  18.193 -0.0867 -0.3189 -0.0386
70471POPS   CNO37623  19.159   1.730  19.642 -0.2343 -0.0956  0.0872
70471POPS   PO437624  19.473   1.706  19.875 -0.3154 -0.3402 -0.1876
70471POPS   GL137625  19.719   1.551  19.553 -0.1099  0.0816 -0.2872
70471POPS   GL237626  19.595   1.327  19.482  0.2390 -0.0123  0.4926
70471POPS   C1A37627  19.826   1.791  19.146  0.3591  0.1124  0.0825
70471POPS   D2A37628  19.563   2.033  18.854 -0.1209  0.2737 -0.0152
70471POPS   C3A37629  19.886   2.232  18.600  0.0108 -0.0137 -0.0012
70471POPS   C4A37630  20.369   2.163  18.508  0.1590  0.1580  0.0246
70471POPS   C1B37631  19.267   1.249  19.241  0.2837  0.0915 -0.0033
70471POPS   C2B37632  18.933   1.163  18.906 -0.2904  0.1813 -0.1968
70471POPS   C3B37633  18.931   1.437  18.500  0.0062  0.1960  0.1339
70471POPS   C4B37634  19.011   1.783  18.170  0.0160 -0.1147  0.1845
70472POPS   CNO37635  29.930   0.208  20.407  0.2512  0.2656 -0.2456
70472POPS   PO437636  30.075   0.492  20.209 -0.0892  0.0764  0.2306
70472POPS   GL137637  30.252   0.074  20.067 -0.0824 -0.0826 -0.1975
70472POPS   GL237638  29.983   0.086  19.944 -0.3190  0.1337  0.1367
70472POPS   C1A37639  30.516   0.100  19.667 -0.1604 -0.1051  0.0998
70472POPS   D2A37640  30.795  -0.073  19.299 -0.3227  0.1419 -0.0048
70472POPS   C3A37641  31.092  -0.033  18.947 -0.0066 -0.0868 -0.1185
70472POPS   C4A37642  31.251   0.106  18.501 -0.0830  0.0535  0.0416
70472POPS   C1B37643  30.084   0.218  19.509  0.2450 -0.1349  0.0638
70472POPS   C2B37644  30.248   0.027  19.127 -0.0564 -0.1774  0.2614
70472POPS   C3B37645  30.448  -0.319  18.941 -0.0116 -0.2054 -0.0620
70472POPS   C4B37646  30.271  -0.589  18.560  0.0799  0.0315  0.1977
70473POPS   CNO37647  21.031   5.128  18.832 -0.1010 -0.0527  0.0627
70473POPS   PO437648  21.020   4.759  18.969 -0.0817  0.0006  0.2721
70473POPS   GL137649  20.702   4.763  18.687 -0.0941 -0.0820 -0.1725
70473POPS   GL237650  20.657   4.543  18.553  0.0426  0.3114  0.1001
70473POPS   C1A37651  20.438   4.889  18.326  0.2134 -0.1576  0.1505
70473POPS   D2A37652  20.292   5.277  18.135  0.0636 -0.0804  0.0779
70473POPS   C3A37653  19.894   5.284  17.857  0.2798  0.0036  0.1274
70473POPS   C4A37654  19.482   5.430  17.837  0.1797 -0.0130  0.0365
70473POPS   C1B37655  20.282   4.423  18.261  0.2471 -0.0313  0.0203
70473POPS   C2B37656  20.147   4.432  17.840  0.0011 -0.0004  0.0839
70473POPS   C3B37657  19.977   4.621  17.399  0.2515 -0.0173  0.0515
70473POPS   C4B37658  19.802   5.067  17.432 -0.1077  0.0424 -0.2017
70474POPS   CNO37659  24.543  14.195  20.564  0.2569 -0.0934 -0.2840
70474POPS   PO437660  24.737  14.325  20.270 -0.3348  0.2962  0.0403
70474POPS   GL137661  24.967  14.047  19.975  0.2761  0.0038 -0.3029
70474POPS   GL237662  24.796  13.828  19.849  0.2796 -0.0455  0.0918
70474POPS   C1A37663  25.236  14.120  19.658 -0.0826  0.1203  0.1580
70474POPS   D2A37664  25.240  14.187  19.266 -0.3840 -0.0828 -0.1310
70474POPS   C3A37665  25.228  14.082  18.801 -0.0155 -0.1011 -0.1278
70474POPS   C4A37666  25.305  14.195  18.373 -0.1581  0.0341 -0.1621
70474POPS   C1B37667  24.883  13.815  19.387  0.0665 -0.1878  0.1755
70474POPS   C2B37668  24.837  13.679  18.959  0.0656 -0.1302  0.1678
70474POPS   C3B37669  24.466  13.668  18.690 -0.3268  0.0990  0.5057
70474POPS   C4B37670  23.994  13.850  18.609 -0.0585  0.1497 -0.5333
70475POPS   CNO37671  27.370  10.772  20.545 -0.0470  0.1363 -0.2648
70475POPS   PO437672  27.053  10.611  20.505  0.5062  0.0748  0.1805
70475POPS   GL137673  27.032  11.041  20.342 -0.5050 -0.1138 -0.0925
70475POPS   GL237674  26.873  10.841  20.086  0.2660 -0.1650 -0.0346
70475POPS   C1A37675  27.121  11.468  20.147  0.0232 -0.3628  0.1616
70475POPS   D2A37676  26.946  11.696  19.726 -0.0745 -0.0762  0.0243
70475POPS   C3A37677  26.855  11.534  19.288 -0.0234 -0.4535 -0.0608
70475POPS   C4A37678  26.949  11.262  18.896 -0.0902 -0.1829  0.0580
70475POPS   C1B37679  27.090  11.136  19.781  0.0286  0.1634  0.2818
70475POPS   C2B37680  27.359  11.366  19.456  0.0916  0.1792 -0.1908
70475POPS   C3B37681  27.410  11.369  19.022 -0.2812 -0.2159 -0.1495
70475POPS   C4B37682  27.363  11.418  18.603 -0.1633 -0.0775  0.0966
70476POPS   CNO37683  26.349   4.735  12.881  0.1042  0.1942 -0.0457
70476POPS   PO437684  26.109   4.595  12.602  0.1943  0.0886 -0.0274
70476POPS   GL137685  25.807   4.262  12.594 -0.2250  0.1234  0.3581
70476POPS   GL237686  26.002   4.025  12.574  0.0200 -0.4565 -0.0346
70476POPS   C1A37687  25.591   3.938  12.869 -0.1836 -0.0509  0.0451
70476POPS   D2A37688  25.370   3.517  12.962  0.2502 -0.0497 -0.0197
70476POPS   C3A37689  25.229   3.527  13.384  0.1900 -0.1139  0.0440
70476POPS   C4A37690  24.946   3.443  13.731 -0.1056  0.1624  0.0487
70476POPS   C1B37691  25.758   3.617  12.551 -0.2553 -0.1421  0.0565
70476POPS   C2B37692  25.375   3.396  12.374 -0.3103 -0.0052 -0.1022
70476POPS   C3B37693  25.032   3.254  12.723 -0.1888 -0.0879  0.0891
70476POPS   C4B37694  24.791   3.296  13.108 -0.3998  0.0920  0.1258
70477POPS   CNO37695  29.096  11.479  20.747  0.0663  0.2396  0.0429
70477POPS   PO437696  29.048  11.759  20.496 -0.3006  0.0472 -0.0951
70477POPS   GL137697  29.322  11.802  20.143  0.1014 -0.0889  0.1878
70477POPS   GL237698  29.266  11.784  19.857  0.1131 -0.1355 -0.1871
70477POPS   C1A37699  29.701  11.644  19.959 -0.2400 -0.1104  0.1463
70477POPS   D2A37700  30.186  11.480  19.888  0.0969 -0.1942  0.0975
70477POPS   C3A37701  30.446  11.302  19.564 -0.1268 -0.3844 -0.0733
70477POPS   C4A37702  30.445  11.040  19.155  0.1064  0.0697  0.2863
70477POPS   C1B37703  29.295  11.646  19.421 -0.1642  0.1109  0.2726
70477POPS   C2B37704  29.221  11.550  19.030 -0.3114  0.3060  0.4368
70477POPS   C3B37705  29.251  11.739  18.608  0.0725 -0.3358  0.0007
70477POPS   C4B37706  29.110  11.723  18.141  0.1710  0.0882  0.0235
70478POPS   CNO37707  16.626   0.069  20.418 -0.0896  0.1113  0.2581
70478POPS   PO437708  16.595   0.312  20.120  0.0285 -0.0584  0.0492
70478POPS   GL137709  16.610   0.378  19.761  0.1099 -0.0725 -0.0044
70478POPS   GL237710  16.443   0.603  19.626  0.0248  0.0624  0.0053
70478POPS   C1A37711  16.573   0.076  19.400 -0.0299  0.4025 -0.0849
70478POPS   D2A37712  16.574   0.028  18.912  0.2917  0.1851  0.1543
70478POPS   C3A37713  16.673   0.237  18.532 -0.2465 -0.0922 -0.1204
70478POPS   C4A37714  16.834   0.530  18.286 -0.3121 -0.1787  0.2306
70478POPS   C1B37715  16.592   0.592  19.156  0.0576 -0.0139  0.0606
70478POPS   C2B37716  16.935   0.489  18.854  0.1871 -0.3831 -0.0100
70478POPS   C3B37717  17.208   0.314  18.531 -0.2624 -0.0831 -0.2072
70478POPS   C4B37718  17.078  -0.032  18.225  0.2728  0.1467 -0.2675
70479POPS   CNO37719  16.504   9.421  20.674 -0.1478  0.1523 -0.0785
70479POPS   PO437720  16.577   9.249  20.330 -0.2744 -0.2239  0.0420
70479POPS   GL137721  16.392   9.300  19.963 -0.0580  0.1119 -0.1264
70479POPS   GL237722  16.665   9.393  19.834 -0.0389  0.3225  0.0482
70479POPS   C1A37723  16.227   9.282  19.532  0.0893  0.0086  0.4644
70479POPS   D2A37724  16.126   9.318  19.038  0.2180 -0.0516  0.1957
70479POPS   C3A37725  15.824   9.478  18.704 -0.3727 -0.2230  0.2682
70479POPS   C4A37726  15.463   9.630  18.483  0.2063 -0.2165 -0.1165
70479POPS   C1B37727  16.612   9.603  19.409  0.0067  0.2872 -0.2806
70479POPS   C2B37728  16.502   9.699  18.991 -0.1990  0.3485 -0.1367
70479POPS   C3B37729  16.324   9.653  18.513 -0.1686  0.0762  0.1080
70479POPS   C4B37730  16.003   9.472  18.218 -0.1600 -0.2408 -0.0033
70480POPS   CNO37731  26.350   5.220  11.488  0.2410  0.1315  0.1153
70480POPS   PO437732  26.344   4.897  11.326  0.0253  0.1331 -0.0968
70480POPS   GL137733  26.610   4.589  11.376 -0.4546 -0.0039 -0.2718
70480POPS   GL237734  26.768   4.591  11.138  0.0076 -0.0293  0.2174
70480POPS   C1A37735  26.938   4.302  11.540  0.0620  0.2656 -0.0026
70480POPS   D2A37736  27.393   4.155  11.660  0.1165 -0.1141  0.1251
70480POPS   C3A37737  27.783   4.051  11.772 -0.1665  0.3370  0.1694
70480POPS   C4A37738  27.975   3.647  11.963  0.1654  0.2770  0.0814
70480POPS   C1B37739  26.911   4.185  11.029  0.2658  0.2460 -0.2965
70480POPS   C2B37740  27.293   4.042  11.178  0.0965  0.1101  0.0063
70480POPS   C3B37741  27.760   4.139  11.270 -0.0483  0.3085 -0.1426
70480POPS   C4B37742  28.064   4.410  11.457  0.3734  0.1544  0.1716
70481POPS   CNO37743  17.564  13.812  20.867 -0.2703  0.0528  0.0782
70481POPS   PO437744  17.668  13.959  20.561 -0.1021  0.1334  0.2923
70481POPS   GL137745  17.669  13.986  20.161 -0.1879  0.0700 -0.1346
70481POPS   GL237746  17.942  13.935  20.046  0.0316  0.0669 -0.3867
70481POPS   C1A37747  17.417  13.755  19.872 -0.3422  0.0491  0.3486
70481POPS   D2A37748  17.620  13.601  19.494  0.0081 -0.3470  0.1085
70481POPS   C3A37749  17.780  13.621  19.034  0.0736 -0.1384 -0.1317
70481POPS   C4A37750  17.945  13.350  18.702 -0.0115  0.2259  0.1866
70481POPS   C1B37751  17.821  14.051  19.677  0.0011  0.0040 -0.2666
70481POPS   C2B37752  17.650  14.087  19.236  0.0318 -0.2534  0.3120
70481POPS   C3B37753  17.525  13.957  18.834 -0.2297  0.1583 -0.0423
70481POPS   C4B37754  17.146  13.942  18.617 -0.2281 -0.0252  0.0027
70482POPS   CNO37755  24.550   3.522  15.702 -0.4004  0.0586  0.0507
70482POPS   PO437756  24.929   3.553  15.618 -0.0799  0.3101  0.1520
70482POPS   GL137757  24.937   3.443  15.215 -0.0424  0.2808  0.2265
70482POPS   GL237758  24.812   3.176  15.304  0.0585  0.0252 -0.0731
70482POPS   C1A37759  24.785   3.369  14.790 -0.0177 -0.0453  0.0354
70482POPS   D2A37760  24.834   3.511  14.308 -0.0025  0.4642 -0.0864
70482POPS   C3A37761  24.496   3.325  14.003  0.2604  0.2104 -0.1575
70482POPS   C4A37762  24.508   3.201  13.573  0.0982  0.0508  0.4261
70482POPS   C1B37763  24.858   2.913  14.952  0.1708  0.1406  0.0812
70482POPS   C2B37764  24.986   3.013  14.478  0.3508  0.2569 -0.0529
70482POPS   C3B37765  24.879   2.889  14.071  0.2206  0.1362  0.2070
70482POPS   C4B37766  24.692   2.717  13.686  0.1344 -0.1613 -0.0384
70483POPS   CNO37767  27.477   5.321  16.395 -0.0004  0.0721  0.1811
70483POPS   PO437768  27.376   5.632  16.500  0.2348 -0.1416  0.3318
70483POPS   GL137769  27.634   5.894  16.369  0.1669  0.3468 -0.2321
70483POPS   GL237770  27.836   5.684  16.220 -0.1862 -0.1962  0.0511
70483POPS   C1A37771  27.742   6.249  16.065  0.2414 -0.0949 -0.1317
70483POPS   D2A37772  27.990   6.629  15.968 -0.2657 -0.2866  0.1443
70483POPS   C3A37773  28.364   6.582  15.702  0.0370 -0.1566 -0.0080
70483POPS   C4A37774  28.454   6.672  15.260 -0.2672 -0.0118 -0.0612
70483POPS   C1B37775  28.192   5.838  16.007 -0.1667  0.1310 -0.1450
70483POPS   C2B37776  28.623   6.114  15.937 -0.1985 -0.0204 -0.0712
70483POPS   C3B37777  28.964   6.343  15.821  0.0485 -0.1174  0.0398
70483POPS   C4B37778  29.226   6.631  15.683  0.2679  0.0649 -0.0345
70484POPS   CNO37779  21.610   2.789  19.620 -0.3496  0.1726  0.0977
70484POPS   PO437780  21.451   2.711  19.249  0.1184 -0.1003  0.1352
70484POPS   GL137781  21.304   2.849  18.826  0.0861  0.1031 -0.3206
70484POPS   GL237782  21.208   2.602  18.736 -0.2087  0.5319  0.1129
70484POPS   C1A37783  20.971   3.077  18.546 -0.3626  0.1973 -0.0099
70484POPS   D2A37784  21.143   3.269  18.193 -0.0349  0.0450 -0.2483
70484POPS   C3A37785  21.052   2.975  17.821  0.3477  0.0647 -0.0355
70484POPS   C4A37786  20.714   2.796  17.517 -0.1672 -0.5756 -0.0886
70484POPS   C1B37787  21.347   2.308  18.367 -0.2012 -0.0100 -0.1112
70484POPS   C2B37788  21.307   2.088  17.931  0.0178 -0.2075 -0.0537
70484POPS   C3B37789  21.305   2.111  17.452  0.0406 -0.0335 -0.2027
70484POPS   C4B37790  21.523   2.412  17.137  0.1054  0.2153  0.1376
70485POPS   CNO37791  17.602   4.428  19.576  0.1174 -0.0793 -0.0638
70485POPS   PO437792  17.360   4.718  19.564 -0.0607  0.0503 -0.0988
70485POPS   GL137793  17.464   4.731  19.150  0.0513 -0.4870  0.0129
70485POPS   GL237794  17.498   5.036  19.209 -0.0338 -0.0523  0.0066
70485POPS   C1A37795  17.640   4.399  18.873 -0.0639 -0.1157  0.1051
70485POPS   D2A37796  17.701   4.162  18.446  0.0020 -0.0485  0.0106
70485POPS   C3A37797  17.668   3.857  18.075  0.3438  0.2244  0.0183
70485POPS   C4A37798  17.237   3.687  17.941  0.1018  0.1463 -0.3640
70485POPS   C1B37799  17.489   5.027  18.773 -0.0885  0.0121 -0.0389
70485POPS   C2B37800  17.485   4.707  18.345  0.2184 -0.2435 -0.2012
70485POPS   C3B37801  17.569   4.404  18.027 -0.0747 -0.5269 -0.2424
70485POPS   C4B37802  17.786   4.212  17.704  0.0257  0.0052 -0.3650
70486POPS   CNO37803  24.148  11.616  19.997 -0.2363  0.2159 -0.0701
70486POPS   PO437804  23.989  11.281  19.904  0.2561 -0.3456 -0.1072
70486POPS   GL137805  24.127  11.239  19.499 -0.2563  0.0129  0.3544
70486POPS   GL237806  24.171  10.921  19.462  0.0359 -0.0161 -0.0513
70486POPS   C1A37807  24.200  11.584  19.234  0.0827 -0.2236 -0.2548
70486POPS   D2A37808  24.392  11.613  18.844  0.0244  0.0173  0.3697
70486POPS   C3A37809  24.806  11.422  18.771  0.2208  0.0945 -0.1365
70486POPS   C4A37810  25.206  11.540  18.576 -0.1393  0.3340 -0.0881
70486POPS   C1B37811  24.088  10.670  19.095 -0.1587 -0.3001  0.3256
70486POPS   C2B37812  23.766  10.467  18.829  0.1551  0.0097  0.2004
70486POPS   C3B37813  23.717  10.511  18.375  0.0152  0.2588  0.1370
70486POPS   C4B37814  23.445  10.301  18.061 -0.3078  0.0506  0.4186
70487POPS   CNO37815  16.722   6.334  20.054  0.0645 -0.1534  0.1844
70487POPS   PO437816  16.573   6.399  19.732  0.1977 -0.1147 -0.1157
70487POPS   GL137817  16.613   6.117  19.409  0.0299  0.1067 -0.1022
70487POPS   GL237818  16.345   6.195  19.366 -0.0813 -0.0017 -0.2887
70487POPS   C1A37819  16.700   6.203  18.916 -0.3006 -0.0131 -0.0916
70487POPS   D2A37820  16.585   6.430  18.505  0.1817 -0.0991  0.0230
70487POPS   C3A37821  16.907   6.734  18.384  0.1689  0.2193  0.1598
70487POPS   C4A37822  17.191   7.029  18.183  0.0903 -0.2392  0.0295
70487POPS   C1B37823  16.142   6.344  18.998 -0.3195  0.2318  0.3720
70487POPS   C2B37824  16.008   6.463  18.531 -0.0791 -0.2652 -0.1463
70487POPS   C3B37825  15.971   6.421  18.077  0.5310  0.3490  0.0456
70487POPS   C4B37826  16.098   6.207  17.668 -0.3511 -0.2957 -0.3044
70488POPS   CNO37827  27.408   9.124  19.668  0.1497  0.0395  0.1853
70488POPS   PO437828  27.557   9.457  19.662  0.2783 -0.0251 -0.0336
70488POPS   GL137829  27.536   9.665  19.265  0.0432 -0.0470  0.0600
70488POPS   GL237830  27.805   9.625  19.146 -0.2087  0.1597 -0.1322
70488POPS   C1A37831  27.358   9.553  18.835 -0.2880  0.0253 -0.1671
70488POPS   D2A37832  27.046   9.320  18.558 -0.2229 -0.2591  0.0376
70488POPS   C3A37833  26.730   9.385  18.227  0.1339  0.0639 -0.1191
70488POPS   C4A37834  26.279   9.396  18.218 -0.0195 -0.0474  0.1320
70488POPS   C1B37835  27.799   9.710  18.676 -0.0216  0.0753 -0.0830
70488POPS   C2B37836  27.503   9.657  18.303 -0.1389  0.0588  0.0042
70488POPS   C3B37837  27.210   9.498  18.007 -0.0723  0.0709 -0.0221
70488POPS   C4B37838  26.955   9.715  17.664  0.0219 -0.0870 -0.2153
70489POPS   CNO37839  29.914   2.489  19.662  0.3334  0.0808  0.1086
70489POPS   PO437840  30.176   2.583  19.418 -0.2392  0.0070 -0.2407
70489POPS   GL137841  30.283   2.233  19.222  0.0439 -0.0951 -0.0125
70489POPS   GL237842  30.476   2.182  19.403  0.2004  0.0025  0.1072
70489POPS   C1A37843  30.294   1.985  18.833  0.1133 -0.0253 -0.1823
70489POPS   D2A37844  30.264   2.209  18.396  0.0529 -0.0925  0.0608
70489POPS   C3A37845  30.418   2.291  18.018  0.1772 -0.0139 -0.0712
70489POPS   C4A37846  30.289   2.001  17.651 -0.1923 -0.0492 -0.3414
70489POPS   C1B37847  30.791   2.173  19.055  0.1626  0.4486  0.0552
70489POPS   C2B37848  31.158   2.387  18.938 -0.2322  0.0074  0.1998
70489POPS   C3B37849  31.504   2.569  18.650  0.3763 -0.0823 -0.1531
70489POPS   C4B37850  31.671   2.694  18.200  0.0366  0.0818  0.0165
70490POPS   CNO37851  17.624  11.779  20.578  0.0966 -0.1124 -0.2214
70490POPS   PO437852  17.878  12.027  20.493  0.1461  0.2027 -0.1293
70490POPS   GL137853  17.822  12.364  20.271 -0.1651  0.1189 -0.1078
70490POPS   GL237854  17.986  12.239  19.999  0.0623 -0.0544 -0.1514
70490POPS   C1A37855  17.469  12.342  19.938  0.0567  0.0091  0.0795
70490POPS   D2A37856  17.153  11.994  19.750  0.0816 -0.0455  0.0470
70490POPS   C3A37857  16.729  11.816  19.663  0.0007  0.0132 -0.1332
70490POPS   C4A37858  16.357  11.591  19.751 -0.0997 -0.1736 -0.6029
70490POPS   C1B37859  18.136  12.274  19.609 -0.0673  0.0392  0.2877
70490POPS   C2B37860  18.253  12.084  19.155  0.0148  0.0254  0.0269
70490POPS   C3B37861  18.171  11.891  18.778 -0.3334  0.0336  0.0114
70490POPS   C4B37862  18.412  11.590  18.514  0.0216  0.1736 -0.3657
70491POPS   CNO37863  24.199   8.855  19.607  0.0606  0.0065  0.0499
70491POPS   PO437864  24.011   9.080  19.377  0.1067 -0.0090  0.6029
70491POPS   GL137865  24.021   8.986  19.033  0.1824 -0.2635  0.0011
70491POPS   GL237866  24.106   8.707  19.044 -0.0598 -0.2448  0.0280
70491POPS   C1A37867  24.138   9.199  18.615  0.3916  0.2832  0.1403
70491POPS   D2A37868  24.233   9.227  18.168  0.2281  0.3302  0.0199
70491POPS   C3A37869  24.027   9.379  17.755  0.1784  0.0027 -0.2119
70491POPS   C4A37870  24.263   9.635  17.381 -0.1289 -0.0135 -0.0147
70491POPS   C1B37871  23.792   8.773  18.725 -0.0716  0.1746 -0.2241
70491POPS   C2B37872  23.762   9.003  18.347 -0.0580  0.1164  0.3709
70491POPS   C3B37873  23.604   9.241  17.968 -0.0622 -0.1227  0.0089
70491POPS   C4B37874  23.488   9.349  17.550  0.2456 -0.2570 -0.0765
70492POPS   CNO37875  23.753   2.684  17.463  0.0619  0.2045  0.0786
70492POPS   PO437876  24.030   2.961  17.482  0.1790 -0.2456 -0.1558
70492POPS   GL137877  24.133   2.647  17.270  0.2771 -0.1258  0.1570
70492POPS   GL237878  24.151   2.351  17.347 -0.1409 -0.0063 -0.1806
70492POPS   C1A37879  24.132   2.409  16.880  0.2576 -0.4944 -0.3317
70492POPS   D2A37880  24.083   2.514  16.412  0.0001 -0.0314  0.0888
70492POPS   C3A37881  23.726   2.540  16.161  0.1652 -0.1303  0.1139
70492POPS   C4A37882  23.397   2.334  15.942  0.1366  0.0484 -0.0203
70492POPS   C1B37883  24.116   1.918  17.212  0.4131 -0.3173  0.2443
70492POPS   C2B37884  23.933   1.477  17.170  0.0982 -0.0284  0.1765
70492POPS   C3B37885  23.769   1.252  16.819 -0.3140 -0.3461  0.0847
70492POPS   C4B37886  23.430   1.201  16.566 -0.1608  0.1746  0.0157
70493POPS   CNO37887  25.856   3.192  17.024  0.1322 -0.1734  0.0222
70493POPS   PO437888  25.636   2.994  16.815  0.2756  0.0056  0.0692
70493POPS   GL137889  25.670   2.640  16.776  0.3529  0.3694  0.1032
70493POPS   GL237890  25.964   2.674  16.772  0.0478 -0.0919 -0.3150
70493POPS   C1A37891  25.414   2.353  16.542  0.1261 -0.5119 -0.1668
70493POPS   D2A37892  25.219   2.017  16.355  0.1293 -0.1723  0.3528
70493POPS   C3A37893  25.143   1.582  16.134 -0.1179  0.1310  0.0669
70493POPS   C4A37894  24.912   1.194  16.062 -0.0542 -0.2559  0.1252
70493POPS   C1B37895  25.931   2.223  16.621  0.1740 -0.0569  0.0061
70493POPS   C2B37896  25.676   1.957  16.280 -0.5835 -0.1076 -0.2616
70493POPS   C3B37897  25.515   1.928  15.863 -0.1051  0.1598 -0.1902
70493POPS   C4B37898  25.318   2.144  15.516 -0.1011  0.0413  0.2932
70494POPS   CNO37899  25.815  12.469  20.470 -0.4810 -0.0824  0.1086
70494POPS   PO437900  25.735  12.171  20.242  0.2889 -0.0970  0.0456
70494POPS   GL137901  25.769  12.307  19.964  0.0502  0.1039  0.2410
70494POPS   GL237902  25.994  12.197  19.789 -0.0191  0.0803 -0.2242
70494POPS   C1A37903  25.929  12.691  19.763 -0.2501  0.0685 -0.0415
70494POPS   D2A37904  26.123  12.973  19.422  0.2414 -0.2118  0.0651
70494POPS   C3A37905  26.105  13.205  19.001 -0.2005 -0.0241  0.0479
70494POPS   C4A37906  26.155  13.518  18.640  0.1631 -0.0862 -0.2777
70494POPS   C1B37907  26.111  12.412  19.401  0.0556 -0.0412 -0.1168
70494POPS   C2B37908  26.166  12.622  19.046  0.1947 -0.1514  0.1572
70494POPS   C3B37909  25.927  12.799  18.683 -0.2027  0.0803 -0.0989
70494POPS   C4B37910  25.575  12.660  18.482  0.0042 -0.0723 -0.3235
70495POPS   CNO37911  31.097  10.449  20.434 -0.3487  0.2209  0.3282
70495POPS   PO437912  30.763  10.498  20.413  0.2764  0.0364  0.0975
70495POPS   GL137913  31.022  10.634  20.003  0.0741  0.0789  0.3337
70495POPS   GL237914  31.291  10.707  19.965 -0.2159 -0.1319 -0.1157
70495POPS   C1A37915  31.052  10.399  19.608 -0.4132 -0.0605 -0.2442
70495POPS   D2A37916  31.208   9.956  19.438  0.1389  0.0165 -0.0373
70495POPS   C3A37917  31.467  10.141  19.103 -0.0893 -0.0763  0.2790
70495POPS   C4A37918  31.456  10.344  18.749 -0.2713 -0.2135  0.1615
70495POPS   C1B37919  31.452  10.701  19.559 -0.0417  0.0095  0.0263
70495POPS   C2B37920  31.621  10.714  19.097 -0.1252 -0.0746  0.2887
70495POPS   C3B37921  31.619  10.934  18.685  0.1447 -0.3297  0.0758
70495POPS   C4B37922  31.745  11.070  18.290  0.0366 -0.0348 -0.1653
70496POPS   CNO37923  18.808   0.740  20.190 -0.2651 -0.0423  0.0786
70496POPS   PO437924  18.796   1.101  20.103  0.0629  0.1827 -0.1991
70496POPS   GL137925  18.946   0.980  19.763  0.0733 -0.0529 -0.6763
70496POPS   GL237926  19.104   1.196  19.678  0.3116  0.1257  0.0869
70496POPS   C1A37927  18.631   0.784  19.521 -0.2269 -0.2316  0.2119
70496POPS   D2A37928  18.226   0.894  19.302  0.1065 -0.1346  0.0768
70496POPS   C3A37929  18.322   1.107  18.942 -0.1026 -0.3153 -0.2120
70496POPS   C4A37930  18.479   1.271  18.586 -0.2854  0.0946 -0.0450
70496POPS   C1B37931  18.803   1.359  19.359 -0.0725 -0.0036  0.0221
70496POPS   C2B37932  18.347   1.505  19.265  0.2663 -0.1154  0.1221
70496POPS   C3B37933  17.952   1.427  19.514 -0.1345  0.1779  0.0030
70496POPS   C4B37934  17.532   1.454  19.693  0.1263 -0.1676  0.0165
70497POPS   CNO37935  29.331   1.494  19.940  0.0666 -0.0334 -0.1235
70497POPS   PO437936  29.711   1.371  20.021  0.0909 -0.0039  0.0224
70497POPS   GL137937  29.877   1.144  19.713  0.5308 -0.1220 -0.1836
70497POPS   GL237938  29.924   0.916  19.816  0.1230  0.0983  0.0091
70497POPS   C1A37939  29.722   0.951  19.339 -0.0053  0.2500  0.1871
70497POPS   D2A37940  29.642   0.767  18.880 -0.1680  0.2112  0.0626
70497POPS   C3A37941  29.787   0.903  18.427  0.0406 -0.0533 -0.3892
70497POPS   C4A37942  29.841   0.725  18.027 -0.1926  0.0124 -0.1526
70497POPS   C1B37943  30.290   0.742  19.561 -0.2025 -0.3746 -0.0742
70497POPS   C2B37944  30.469   0.501  19.234 -0.0487  0.0471  0.1927
70497POPS   C3B37945  30.594   0.196  18.870 -0.1784  0.0658  0.0479
70497POPS   C4B37946  30.680  -0.121  18.523 -0.0661  0.1726 -0.0524
70498POPS   CNO37947  25.877  32.763  19.504  0.0396  0.2592 -0.3806
70498POPS   PO437948  25.894  32.392  19.407 -0.2121  0.3076 -0.0363
70498POPS   GL137949  25.708  32.258  19.154 -0.2565 -0.0592  0.1688
70498POPS   GL237950  25.809  32.411  18.922  0.3545  0.1414  0.0865
70498POPS   C1A37951  25.432  31.956  18.906 -0.4193 -0.1572  0.2036
70498POPS   D2A37952  25.473  31.457  18.783  0.0296 -0.2223 -0.2926
70498POPS   C3A37953  25.240  31.291  18.372 -0.1726 -0.3647  0.1483
70498POPS   C4A37954  24.924  30.981  18.060  0.0075 -0.3015  0.2116
70498POPS   C1B37955  25.947  32.358  18.452  0.0298  0.0191 -0.1980
70498POPS   C2B37956  26.307  32.299  18.155  0.0742 -0.0374 -0.2997
70498POPS   C3B37957  26.666  32.280  17.853  0.3473  0.0838  0.2012
70498POPS   C4B37958  26.936  32.257  17.471 -0.1203  0.2301  0.1047
70499POPS   CNO37959  15.949  10.030  20.560 -0.4207  0.2353  0.2343
70499POPS   PO437960  16.014  10.402  20.451 -0.3269  0.1034 -0.2619
70499POPS   GL137961  15.815  10.317  20.154  0.0676 -0.2207  0.1568
70499POPS   GL237962  15.588  10.385  20.197  0.2112  0.0023  0.1887
70499POPS   C1A37963  15.856  10.129  19.731 -0.0680  0.0510  0.0863
70499POPS   D2A37964  15.785  10.174  19.245  0.2844  0.1062  0.0303
70499POPS   C3A37965  15.643  10.040  18.855  0.1840 -0.1401  0.2255
70499POPS   C4A37966  15.306  10.087  18.573  0.0668 -0.1847  0.1061
70499POPS   C1B37967  15.391  10.400  19.792 -0.0844 -0.2562 -0.1963
70499POPS   C2B37968  15.266  10.467  19.370  0.1331 -0.0639  0.1745
70499POPS   C3B37969  14.848  10.601  19.208  0.1168 -0.0313 -0.0574
70499POPS   C4B37970  14.440  10.803  19.198 -0.0313  0.0083 -0.1736
70500POPS   CNO37971  30.261   4.989  19.205  0.0392  0.0077  0.0228
70500POPS   PO437972  30.354   5.099  18.855  0.0392  0.1816 -0.0615
70500POPS   GL137973  30.190   5.279  18.604  0.1051  0.1126 -0.2083
70500POPS   GL237974  30.371   5.551  18.663  0.0407 -0.1612 -0.1919
70500POPS   C1A37975  30.226   5.404  18.141 -0.0208 -0.2873  0.3276
70500POPS   D2A37976  30.436   5.430  17.724 -0.1018 -0.2025 -0.1807
70500POPS   C3A37977  30.428   5.135  17.349 -0.0781 -0.1824 -0.0078
70500POPS   C4A37978  30.777   4.955  17.121  0.0372 -0.2576 -0.0705
70500POPS   C1B37979  30.645   5.390  18.340  0.0673  0.0523  0.1398
70500POPS   C2B37980  30.931   5.385  17.968  0.0815 -0.1011 -0.2382
70500POPS   C3B37981  31.031   5.312  17.568 -0.0158  0.0738  0.0898
70500POPS   C4B37982  31.230   5.389  17.167 -0.1287  0.0095 -0.3571
70501POPS   CNO37983  25.249   6.085  14.470 -0.0499  0.2678  0.0196
70501POPS   PO437984  25.601   6.116  14.483  0.0564  0.0219 -0.0516
70501POPS   GL137985  25.515   6.501  14.556 -0.2669 -0.1709  0.3076
70501POPS   GL237986  25.358   6.491  14.721 -0.0241  0.0514  0.0246
70501POPS   C1A37987  25.234   6.581  14.234 -0.4011 -0.3792  0.0105
70501POPS   D2A37988  24.859   6.850  14.205 -0.1163  0.1090  0.2335
70501POPS   C3A37989  24.532   6.611  13.935 -0.3572  0.1921 -0.1537
70501POPS   C4A37990  24.185   6.526  13.685 -0.1088 -0.1624  0.2366
70501POPS   C1B37991  25.329   6.893  14.566  0.2259 -0.2381 -0.1184
70501POPS   C2B37992  25.185   7.226  14.271  0.0776 -0.0725  0.3268
70501POPS   C3B37993  25.013   7.534  13.888  0.1785  0.0077 -0.1883
70501POPS   C4B37994  24.621   7.599  13.605 -0.2058 -0.0006 -0.0475
70502POPS   CNO37995  23.031  10.520  20.124  0.0872  0.0730  0.0082
70502POPS   PO437996  23.119  10.864  20.043  0.0804 -0.0654 -0.0055
70502POPS   GL137997  22.876  10.753  19.698  0.3021 -0.2081 -0.0028
70502POPS   GL237998  22.640  10.722  19.855  0.0152  0.3220  0.0474
70502POPS   C1A37999  22.916  10.959  19.264 -0.4143 -0.2308  0.2046
70502POPS   D2A38000  22.917  11.143  18.827 -0.0107  0.1287 -0.0670
70502POPS   C3A38001  22.535  11.124  18.625  0.2103 -0.0826 -0.4754
70502POPS   C4A38002  22.157  11.329  18.439  0.0084  0.0475 -0.0665
70502POPS   C1B38003  22.448  10.985  19.490  0.1821  0.1106  0.0099
70502POPS   C2B38004  22.515  11.209  19.099 -0.2228  0.0001 -0.2709
70502POPS   C3B38005  22.603  11.580  18.765  0.0630 -0.2806 -0.1942
70502POPS   C4B38006  22.690  11.980  18.552  0.0631 -0.1422 -0.0039
70503POPS   CNO38007  23.987   7.482  18.744  0.3067  0.1539  0.0719
70503POPS   PO438008  23.673   7.655  18.576 -0.1393 -0.1966 -0.1880
70503POPS   GL138009  23.905   7.730  18.269 -0.3158 -0.2757  0.0635
70503POPS   GL238010  23.718   7.807  18.051 -0.1597  0.1671  0.1922
70503POPS   C1A38011  24.164   8.075  18.020 -0.0345 -0.3349 -0.2994
70503POPS   D2A38012  24.501   8.404  18.044  0.3455 -0.0536 -0.2149
70503POPS   C3A38013  24.677   8.572  17.654 -0.1096  0.2926  0.0133
70503POPS   C4A38014  24.677   8.596  17.144  0.1979 -0.2580  0.0065
70503POPS   C1B38015  23.712   8.255  17.890 -0.1213 -0.0973 -0.3404
70503POPS   C2B38016  23.515   8.671  17.864  0.1232  0.3209  0.1569
70503POPS   C3B38017  23.143   9.012  17.903  0.1039 -0.1284 -0.0003
70503POPS   C4B38018  22.823   9.072  18.279  0.0556 -0.1890  0.1595
70504POPS   CNO38019  28.300   9.549  20.495  0.0333 -0.0090  0.0643
70504POPS   PO438020  28.240   9.911  20.412  0.5486 -0.4453  0.0247
70504POPS   GL138021  28.308  10.082  19.954  0.1500  0.2170 -0.1887
70504POPS   GL238022  28.012  10.199  20.007  0.1026 -0.1401  0.1537
70504POPS   C1A38023  28.095  10.062  19.544  0.2766  0.0802  0.0411
70504POPS   D2A38024  27.685  10.109  19.344 -0.2621 -0.1450  0.1485
70504POPS   C3A38025  27.554  10.044  18.921  0.0153  0.1681 -0.1650
70504POPS   C4A38026  27.558  10.120  18.453  0.0233 -0.0022 -0.0566
70504POPS   C1B38027  27.799  10.441  19.652 -0.1472  0.0150 -0.1721
70504POPS   C2B38028  27.923  10.705  19.293  0.2431  0.0126 -0.0572
70504POPS   C3B38029  27.932  10.933  18.916 -0.3688  0.2689 -0.1150
70504POPS   C4B38030  28.019  10.674  18.510 -0.3473  0.2681 -0.0759
70505POPS   CNO38031  19.627   1.180  20.320  0.2397 -0.2766  0.0531
70505POPS   PO438032  19.545   1.121  19.983 -0.0834  0.0714  0.0897
70505POPS   GL138033  19.423   0.831  19.724 -0.4920  0.0888  0.2258
70505POPS   GL238034  19.546   0.562  19.608 -0.0115  0.0348 -0.2351
70505POPS   C1A38035  19.098   0.788  19.363  0.1147 -0.3691  0.1458
70505POPS   D2A38036  18.807   0.580  19.084 -0.1910  0.0220  0.1744
70505POPS   C3A38037  18.867   0.179  18.910 -0.0284 -0.3293  0.0401
70505POPS   C4A38038  18.701  -0.202  18.944 -0.1052 -0.1382  0.3076
70505POPS   C1B38039  19.537   0.438  19.116  0.0342 -0.1539 -0.1228
70505POPS   C2B38040  19.264   0.439  18.796  0.0054  0.0826  0.5045
70505POPS   C3B38041  18.951   0.491  18.486  0.0337  0.0992  0.0064
70505POPS   C4B38042  18.927   0.360  18.022 -0.0795 -0.1570 -0.1985
70506POPS   CNO38043  26.393   3.745  16.770 -0.5208  0.0893 -0.1768
70506POPS   PO438044  26.522   3.680  16.408  0.0572 -0.3899 -0.0036
70506POPS   GL138045  26.819   3.320  16.306 -0.0765 -0.0097  0.0144
70506POPS   GL238046  27.039   3.510  16.482 -0.2125 -0.2228 -0.0402
70506POPS   C1A38047  26.718   2.851  16.203 -0.1422  0.1090  0.1016
70506POPS   D2A38048  26.683   2.421  16.052 -0.0601  0.1178 -0.3078
70506POPS   C3A38049  26.962   2.027  16.154  0.2612 -0.2909  0.3767
70506POPS   C4A38050  27.348   1.851  15.866  0.1101  0.3203 -0.0882
70506POPS   C1B38051  27.515   3.457  16.372 -0.0966  0.0599 -0.0272
70506POPS   C2B38052  27.795   3.739  16.104  0.0748 -0.0235 -0.1099
70506POPS   C3B38053  27.977   3.647  15.696  0.4256 -0.0671 -0.0499
70506POPS   C4B38054  28.343   3.718  15.381 -0.0130  0.2475  0.2280
70507POPS   CNO38055  30.078  13.778  20.967  0.1270 -0.1596 -0.0103
70507POPS   PO438056  30.215  13.556  20.761 -0.3393  0.2807  0.0516
70507POPS   GL138057  30.114  13.571  20.380  0.0549  0.1718  0.1166
70507POPS   GL238058  30.067  13.854  20.343 -0.1098 -0.1880  0.1408
70507POPS   C1A38059  30.137  13.549  19.901 -0.0916  0.3951  0.1292
70507POPS   D2A38060  30.158  13.767  19.436 -0.3435 -0.0008 -0.1380
70507POPS   C3A38061  30.557  13.910  19.218 -0.0271 -0.0185  0.0472
70507POPS   C4A38062  30.920  14.057  18.899 -0.0115 -0.3221 -0.0500
70507POPS   C1B38063  30.131  14.090  19.937 -0.0270 -0.3403 -0.0962
70507POPS   C2B38064  30.332  14.277  19.564  0.1324 -0.1794 -0.0165
70507POPS   C3B38065  30.507  14.379  19.173 -0.2179 -0.3047  0.1148
70507POPS   C4B38066  30.701  14.539  18.785 -0.1057 -0.2550 -0.0523
70508POPS   CNO38067  26.816   2.786  17.807  0.0016  0.0616  0.0923
70508POPS   PO438068  27.039   3.081  17.746  0.3574 -0.0400 -0.1748
70508POPS   GL138069  27.044   2.852  17.318  0.1667 -0.4886 -0.1407
70508POPS   GL238070  27.237   2.602  17.368 -0.0074  0.1390  0.1681
70508POPS   C1A38071  27.228   2.773  16.865  0.2067  0.3200 -0.1002
70508POPS   D2A38072  27.214   2.484  16.455  0.0991 -0.1199  0.0754
70508POPS   C3A38073  27.374   2.279  16.116  0.0090 -0.0455 -0.1516
70508POPS   C4A38074  27.612   2.295  15.720 -0.0941 -0.2251 -0.2332
70508POPS   C1B38075  27.645   2.371  17.222  0.1484  0.2593 -0.1175
70508POPS   C2B38076  27.842   2.020  17.396 -0.1935 -0.1158 -0.1516
70508POPS   C3B38077  27.948   1.663  17.165 -0.1629 -0.0785 -0.0331
70508POPS   C4B38078  27.923   1.223  17.298  0.2371 -0.2614 -0.0756
70509POPS   CNO38079  25.979   4.701  13.889 -0.2810  0.0296 -0.0313
70509POPS   PO438080  26.129   4.407  13.745  0.0592  0.2858  0.0865
70509POPS   GL138081  26.059   4.002  13.904  0.2315  0.4739  0.0056
70509POPS   GL238082  25.848   3.963  13.655  0.2263  0.1613  0.0682
70509POPS   C1A38083  26.016   3.553  13.905  0.1730 -0.0076  0.2022
70509POPS   D2A38084  25.636   3.423  13.718  0.1845  0.1769  0.0901
70509POPS   C3A38085  25.529   2.999  13.674  0.1370 -0.1483 -0.1164
70509POPS   C4A38086  25.714   2.609  13.763  0.1669  0.0696  0.2895
70509POPS   C1B38087  25.775   3.737  13.315  0.1835 -0.0382 -0.1361
70509POPS   C2B38088  25.667   3.253  13.262  0.2217  0.3136 -0.0304
70509POPS   C3B38089  25.304   3.036  13.118  0.1256 -0.2144 -0.2256
70509POPS   C4B38090  25.061   2.775  12.896 -0.3218 -0.0856  0.1033
70510POPS   CNO38091  21.196  11.970  20.858  0.4174 -0.0394 -0.2501
70510POPS   PO438092  21.059  11.726  20.557 -0.1598 -0.2556  0.3846
70510POPS   GL138093  21.098  11.707  20.101  0.1156  0.2201  0.2033
70510POPS   GL238094  20.899  11.842  19.886  0.0117  0.0249  0.0238
70510POPS   C1A38095  21.446  11.953  19.842 -0.2781 -0.0788 -0.0221
70510POPS   D2A38096  21.379  12.047  19.395  0.2655  0.0261 -0.1978
70510POPS   C3A38097  21.380  12.333  19.015 -0.2202 -0.0905  0.0497
70510POPS   C4A38098  21.037  12.618  18.851 -0.0805 -0.0209 -0.2112
70510POPS   C1B38099  20.787  11.920  19.417  0.0021  0.0514 -0.0777
70510POPS   C2B38100  20.777  12.197  19.054 -0.0115  0.4492 -0.0636
70510POPS   C3B38101  20.999  12.162  18.624  0.1260 -0.0069  0.0720
70510POPS   C4B38102  20.858  12.250  18.183 -0.0390 -0.0669 -0.0269
70511POPS   CNO38103  29.500  15.381  20.431 -0.1713 -0.1228  0.2690
70511POPS   PO438104  29.256  15.026  20.359 -0.2288 -0.0786  0.0139
70511POPS   GL138105  29.165  15.239  19.949 -0.0887  0.2089  0.0562
70511POPS   GL238106  29.437  15.101  19.901  0.1173 -0.1565  0.2525
70511POPS   C1A38107  29.161  15.425  19.518 -0.3693 -0.3217  0.0681
70511POPS   D2A38108  28.889  15.585  19.125 -0.1683 -0.3574 -0.0890
70511POPS   C3A38109  28.939  15.822  18.669  0.2718  0.2370 -0.1951
70511POPS   C4A38110  29.193  15.934  18.245  0.1987 -0.0414  0.1242
70511POPS   C1B38111  29.452  14.950  19.434 -0.2239 -0.1117 -0.0452
70511POPS   C2B38112  29.421  14.847  19.011  0.0658 -0.0457  0.3085
70511POPS   C3B38113  29.537  15.090  18.618 -0.0964  0.0120  0.1457
70511POPS   C4B38114  29.749  15.497  18.494  0.3372  0.0466  0.0773
70512POPS   CNO38115  27.813   7.155  18.557  0.0208 -0.1935 -0.3630
70512POPS   PO438116  28.100   7.095  18.755 -0.0830 -0.2045 -0.2593
70512POPS   GL138117  28.181   7.307  18.404  0.3008 -0.2386  0.0796
70512POPS   GL238118  28.176   7.167  18.098 -0.0851  0.0727  0.0651
70512POPS   C1A38119  28.403   7.664  18.226 -0.3079  0.2901 -0.1496
70512POPS   D2A38120  28.667   7.705  17.840 -0.3177 -0.1308 -0.2603
70512POPS   C3A38121  28.675   7.505  17.442  0.0715  0.0167 -0.2006
70512POPS   C4A38122  28.628   7.695  16.984 -0.0115 -0.1086  0.1113
70512POPS   C1B38123  28.169   7.555  17.813  0.2105 -0.3547 -0.0526
70512POPS   C2B38124  28.139   7.575  17.331 -0.1782 -0.0022  0.2543
70512POPS   C3B38125  28.132   7.688  16.866  0.1940  0.1558  0.0140
70512POPS   C4B38126  28.151   7.430  16.491 -0.0942 -0.1257  0.1406
70513POPS   CNO38127  19.854   4.225  19.951  0.4088  0.3439 -0.1567
70513POPS   PO438128  19.608   4.172  19.669  0.0999 -0.1981 -0.1044
70513POPS   GL138129  19.539   4.324  19.324 -0.2171 -0.0723  0.0627
70513POPS   GL238130  19.344   4.412  19.223 -0.0107  0.0755  0.2328
70513POPS   C1A38131  19.533   4.089  18.900  0.0212  0.0277 -0.2179
70513POPS   D2A38132  19.516   3.901  18.463  0.0045 -0.4494 -0.2278
70513POPS   C3A38133  19.254   4.231  18.208  0.0187  0.1852  0.0973
70513POPS   C4A38134  19.168   4.396  17.788  0.1285 -0.0642 -0.1074
70513POPS   C1B38135  19.216   4.808  18.975 -0.0071 -0.1184 -0.0568
70513POPS   C2B38136  18.918   4.939  18.624  0.1666  0.0410  0.1380
70513POPS   C3B38137  18.643   5.058  18.261  0.0767  0.0957 -0.1659
70513POPS   C4B38138  18.362   4.995  17.870 -0.0923 -0.0367  0.1639
70514POPS   CNO38139  21.210   7.987  20.346 -0.0442  0.2376  0.2222
70514POPS   PO438140  21.343   8.185  20.085  0.1096 -0.1663  0.0155
70514POPS   GL138141  21.030   8.076  19.765 -0.0166 -0.4304 -0.2693
70514POPS   GL238142  21.132   7.934  19.503 -0.0902  0.0837  0.1335
70514POPS   C1A38143  20.661   8.080  19.493  0.2546 -0.0211  0.2260
70514POPS   D2A38144  20.322   8.364  19.402 -0.0064 -0.0836 -0.0317
70514POPS   C3A38145  19.977   8.480  19.060  0.2099 -0.2724 -0.1090
70514POPS   C4A38146  19.769   8.715  18.732 -0.1254  0.3357 -0.1197
70514POPS   C1B38147  21.066   8.310  19.322  0.0042  0.1976  0.0488
70514POPS   C2B38148  20.710   8.410  19.072  0.0281 -0.0409 -0.0023
70514POPS   C3B38149  20.402   8.524  18.762 -0.1542 -0.0202  0.0120
70514POPS   C4B38150  20.253   8.758  18.427 -0.2240  0.0385 -0.1986
70515SAP2    C138151  21.365   2.311  10.132 -0.0838 -0.0409 -0.1063
70515SAP2    C238152  21.355   2.167  10.368  0.0137  0.2129  0.0563
70515SAP2    C338153  21.198   2.084  10.083 -0.0195 -0.1526  0.1770
70515SAP2    C438154  21.306   2.188  10.194 -0.1370 -0.0871 -0.7272
70515SAP2   PO438155  21.675   2.343  10.071  0.0027  0.2790  0.1739
70515SAP2    P438156  21.053   1.815  10.153 -0.0866  0.1164  0.0483
70515SAP2    P538157  21.132   2.095  10.531  0.0207  0.1592 -0.0843
70515SAP2   GL138158  21.732   2.451   9.804 -0.1736 -0.2370 -0.1570
70515SAP2   GL238159  21.590   2.684   9.673  0.0283 -0.1329  0.1788
70515SAP2   D1A38160  22.177   2.599   9.826  0.1898 -0.2346  0.0540
70515SAP2   D2A38161  22.514   2.446  10.109 -0.0895 -0.1036  0.0085
70515SAP2   D3A38162  22.659   2.438   9.637 -0.1287 -0.3668  0.3131
70515SAP2   D4A38163  22.852   2.816   9.435 -0.2838 -0.0123 -0.0820
70515SAP2   C5A38164  23.298   2.901   9.371  0.1476  0.2196  0.2014
70515SAP2   C1B38165  21.998   2.850   9.470 -0.1039 -0.5065  0.0896
70515SAP2   C2B38166  22.405   2.825   9.227  0.0377 -0.2302 -0.2458
70515SAP2   C3B38167  22.484   3.144   8.901  0.0614  0.1625  0.4335
70515SAP2   C4B38168  22.439   3.481   8.607  0.3884  0.0795 -0.4020
70516SAP2    C138169  32.186   5.648  10.173 -0.0151  0.1143 -0.2087
70516SAP2    C238170  32.360   5.641  10.388  0.0785  0.0529 -0.2857
70516SAP2    C338171  32.209   5.374  10.251  0.0495  0.0872 -0.3209
70516SAP2    C438172  32.251   5.554  10.271  0.2824 -0.2087  0.5544
70516SAP2   PO438173  32.282   5.823   9.924  0.1827  0.0495  0.3789
70516SAP2    P438174  32.302   5.187  10.492  0.1444  0.1928  0.1445
70516SAP2    P538175  32.323   5.738  10.638  0.1089  0.1087  0.3787
70516SAP2   GL138176  32.000   5.886   9.780 -0.0168  0.2548  0.2372
70516SAP2   GL238177  32.084   5.729   9.499 -0.0996 -0.1263 -0.1770
70516SAP2   D1A38178  31.565   5.717   9.650 -0.0721 -0.1694  0.1174
70516SAP2   D2A38179  31.519   6.213   9.623 -0.0666 -0.1108  0.0226
70516SAP2   D3A38180  31.191   6.264   9.274 -0.1543 -0.3144  0.0369
70516SAP2   D4A38181  30.870   6.526   9.469 -0.0648  0.3437 -0.4202
70516SAP2   C5A38182  30.884   6.659   9.901  0.0144  0.0322  0.0476
70516SAP2   C1B38183  31.714   5.939   9.252 -0.1873 -0.2697  0.0707
70516SAP2   C2B38184  31.468   5.991   8.877 -0.3473 -0.2258  0.3918
70516SAP2   C3B38185  31.121   6.051   8.599  0.1270 -0.5437 -0.1563
70516SAP2   C4B38186  30.684   6.003   8.474 -0.0935  0.0337  0.1662
70517SAP2    C138187  30.081   2.899  11.664  0.2765  0.1754 -0.1780
70517SAP2    C238188  30.178   2.693  11.821 -0.1012  0.0634 -0.0801
70517SAP2    C338189  30.343   2.976  11.748  0.2103 -0.0280  0.2420
70517SAP2    C438190  30.201   2.856  11.744 -0.0318 -0.4059  0.0406
70517SAP2   PO438191  29.780   2.851  11.723  0.3271 -0.2174 -0.0500
70517SAP2    P438192  30.635   3.066  11.771 -0.1829 -0.2653  0.0841
70517SAP2    P538193  30.416   2.514  11.830  0.2951  0.2672 -0.1242
70517SAP2   GL138194  29.716   3.202  11.846  0.1267  0.0739  0.1466
70517SAP2   GL238195  29.737   3.340  11.576 -0.1728  0.2226  0.1838
70517SAP2   D1A38196  29.346   3.015  11.977  0.2368  0.0660 -0.1775
70517SAP2   D2A38197  29.058   3.016  11.615 -0.2150  0.1740  0.1198
70517SAP2   D3A38198  29.169   3.155  11.195 -0.0883 -0.0684 -0.2966
70517SAP2   D4A38199  28.809   3.427  11.376  0.0868  0.2351 -0.1249
70517SAP2   C5A38200  28.458   3.338  11.109 -0.2823 -0.0479 -0.0490
70517SAP2   C1B38201  29.278   3.467  11.665 -0.1735  0.2322 -0.1456
70517SAP2   C2B38202  28.868   3.425  11.897 -0.0209 -0.0633  0.2211
70517SAP2   C3B38203  28.427   3.447  11.792 -0.0421  0.1960 -0.1965
70517SAP2   C4B38204  28.273   3.774  11.427  0.0755 -0.0722  0.2840
70518SAP2    C138205  20.230   2.836  10.153 -0.0339 -0.0368 -0.2729
70518SAP2    C238206  20.305   2.572  10.191 -0.0813 -0.0435 -0.2267
70518SAP2    C338207  20.040   2.722  10.333 -0.0227  0.0443 -0.2089
70518SAP2    C438208  20.192   2.710  10.226 -0.3399 -0.0020 -0.0563
70518SAP2   PO438209  20.238   2.902   9.862 -0.0520 -0.1862  0.0058
70518SAP2    P438210  19.864   2.604  10.505  0.0567  0.1770 -0.0437
70518SAP2    P538211  20.252   2.306  10.339 -0.3635 -0.0612  0.2082
70518SAP2   GL138212  20.400   2.789   9.617 -0.2577 -0.1546  0.2166
70518SAP2   GL238213  20.594   2.621   9.638  0.2113 -0.0591  0.0155
70518SAP2   D1A38214  20.374   2.774   9.149 -0.1560 -0.0310 -0.1340
70518SAP2   D2A38215  20.541   2.845   8.735 -0.1938 -0.1879  0.0368
70518SAP2   D3A38216  20.145   2.879   8.674  0.1538  0.0858  0.1456
70518SAP2   D4A38217  20.232   3.216   8.375  0.0388  0.1030  0.1650
70518SAP2   C5A38218  20.526   2.877   8.208 -0.0925  0.0406 -0.1232
70518SAP2   C1B38219  20.870   2.612   9.271  0.1747  0.1525 -0.0102
70518SAP2   C2B38220  21.390   2.411   9.245 -0.1761 -0.3381  0.1682
70518SAP2   C3B38221  21.834   2.389   9.314 -0.0924 -0.0240 -0.2519
70518SAP2   C4B38222  22.327   2.352   9.267  0.3171 -0.0785 -0.2070
70519SAP2    C138223  19.190   0.708   9.049 -0.0691 -0.1880  0.1001
70519SAP2    C238224  19.318   0.512   9.197  0.0256 -0.1201  0.1093
70519SAP2    C338225  19.125   0.756   9.323  0.1608 -0.0220  0.1292
70519SAP2    C438226  19.211   0.658   9.190 -1.4398 -0.3129 -0.4046
70519SAP2   PO438227  19.061   0.542   8.766  0.0131 -0.3272  0.1345
70519SAP2    P438228  19.109   0.602   9.633  0.0643  0.1058  0.0818
70519SAP2    P538229  19.498   0.431   9.368 -0.0411  0.0995 -0.1962
70519SAP2   GL138230  19.042   0.697   8.504 -0.4091  0.0493 -0.2125
70519SAP2   GL238231  19.170   0.748   8.272  0.0725 -0.2182  0.1041
70519SAP2   D1A38232  18.855   1.129   8.414  0.1330  0.2143  0.2149
70519SAP2   D2A38233  18.693   0.984   7.974  0.0338 -0.1261  0.0078
70519SAP2   D3A38234  18.647   1.457   8.093  0.0455 -0.1346 -0.0119
70519SAP2   D4A38235  18.218   1.229   8.195 -0.3236 -0.1600 -0.0746
70519SAP2   C5A38236  18.312   1.361   7.751  0.1688  0.0298  0.0130
70519SAP2   C1B38237  19.209   1.123   7.949 -0.0851  0.2019 -0.0445
70519SAP2   C2B38238  19.224   1.320   7.525  0.2374 -0.0438 -0.1244
70519SAP2   C3B38239  19.392   1.212   7.122 -0.0352  0.0212 -0.0967
70519SAP2   C4B38240  19.440   1.199   6.644 -0.0913  0.1600 -0.0703
70520SAP2    C138241  22.122   1.013   9.895 -0.0803 -0.1142 -0.0842
70520SAP2    C238242  22.000   1.213  10.042  0.0120 -0.0835 -0.0490
70520SAP2    C338243  21.971   0.884  10.101 -0.0786 -0.0779 -0.0602
70520SAP2    C438244  22.031   1.037  10.013 -0.0306 -0.6243 -0.5612
70520SAP2   PO438245  22.466   1.027   9.804  0.2983 -0.1080  0.0539
70520SAP2    P438246  21.770   0.972  10.311  0.1330  0.1803  0.1905
70520SAP2    P538247  21.847   1.414  10.211 -0.1338 -0.2972 -0.0665
70520SAP2   GL138248  22.698   1.084   9.469  0.0615  0.1231  0.3632
70520SAP2   GL238249  22.908   1.086   9.616 -0.0113 -0.0323 -0.0379
70520SAP2   D1A38250  22.804   1.452   9.132  0.1289 -0.1511 -0.1555
70520SAP2   D2A38251  23.076   1.537   8.786 -0.0555  0.2617  0.1401
70520SAP2   D3A38252  23.012   1.077   8.750  0.3237  0.1009 -0.0872
70520SAP2   D4A38253  22.812   1.230   8.393 -0.0874 -0.5225  0.1882
70520SAP2   C5A38254  22.469   0.980   8.545  0.0081  0.4247 -0.1030
70520SAP2   C1B38255  23.205   1.344   9.412 -0.1408 -0.1177  0.0681
70520SAP2   C2B38256  23.614   1.536   9.292 -0.0350  0.1351 -0.3343
70520SAP2   C3B38257  23.924   1.340   9.021  0.4859 -0.0942 -0.3755
70520SAP2   C4B38258  23.932   1.006   8.720  0.3230 -0.0687  0.0615
70521SAP2    C138259  19.605   1.636   9.351  0.0315 -0.1347  0.1077
70521SAP2    C238260  19.525   1.737   9.597 -0.0232 -0.0526  0.0566
70521SAP2    C338261  19.425   1.445   9.465 -0.1419 -0.0089  0.0488
70521SAP2    C438262  19.518   1.606   9.471 -0.7507 -0.6133  0.1916
70521SAP2   PO438263  19.935   1.675   9.304 -0.0061  0.0534 -0.0604
70521SAP2    P438264  19.293   1.331   9.726 -0.0571  0.0709 -0.0636
70521SAP2    P538265  19.267   1.723   9.769  0.2082 -0.1822  0.0186
70521SAP2   GL138266  19.924   1.822   9.002 -0.0224 -0.1769  0.0684
70521SAP2   GL238267  20.102   1.676   8.888 -0.1853 -0.0798  0.1807
70521SAP2   D1A38268  19.752   1.669   8.531 -0.1288  0.0934  0.1412
70521SAP2   D2A38269  20.083   1.445   8.359  0.0215 -0.0451 -0.3272
70521SAP2   D3A38270  20.054   1.647   7.946 -0.2320 -0.2130 -0.0248
70521SAP2   D4A38271  20.493   1.467   7.775 -0.0340  0.0551 -0.2119
70521SAP2   C5A38272  20.377   1.850   7.645 -0.0750  0.1212  0.0112
70521SAP2   C1B38273  20.252   1.912   8.513 -0.0589  0.3159 -0.0056
70521SAP2   C2B38274  20.379   2.132   8.121 -0.2795  0.1610 -0.1260
70521SAP2   C3B38275  20.526   2.408   7.777 -0.0372 -0.1366 -0.0887
70521SAP2   C4B38276  20.801   2.666   7.541 -0.1416 -0.3188 -0.0285
70522SAP2    C138277  19.892  11.341   8.695  0.6028  0.1275 -0.0306
70522SAP2    C238278  19.964  11.109   8.828  0.0353  0.0495  0.1695
70522SAP2    C338279  19.877  11.398   8.975  0.0443  0.1696 -0.0575
70522SAP2    C438280  19.911  11.283   8.833 -0.1521  0.3641 -0.4658
70522SAP2   PO438281  19.745  11.262   8.412  0.3230  0.1197 -0.0463
70522SAP2    P438282  19.815  11.279   9.259  0.0203 -0.0541 -0.0143
70522SAP2    P538283  20.024  10.854   9.100 -0.2464 -0.2228  0.1671
70522SAP2   GL138284  19.823  11.306   8.063 -0.3888  0.0754 -0.1025
70522SAP2   GL238285  20.044  11.020   8.094 -0.0801 -0.4185  0.0495
70522SAP2   D1A38286  19.568  10.850   7.996 -0.1724  0.0310 -0.0670
70522SAP2   D2A38287  19.081  10.948   7.991 -0.0849  0.1253 -0.1123
70522SAP2   D3A38288  19.085  10.721   7.610 -0.0990  0.1216 -0.3089
70522SAP2   D4A38289  19.128  10.538   7.180 -0.0774 -0.0089  0.1322
70522SAP2   C5A38290  18.784  10.206   7.111  0.0084  0.0106 -0.2500
70522SAP2   C1B38291  19.938  10.869   7.620 -0.1026  0.2191 -0.3510
70522SAP2   C2B38292  19.975  11.045   7.245  0.2092  0.1165  0.1646
70522SAP2   C3B38293  19.936  11.028   6.746 -0.0230 -0.2512 -0.1615
70522SAP2   C4B38294  19.687  10.852   6.410  0.1591 -0.1654 -0.0522
70523SAP2    C138295  22.409   9.429  10.668  0.1011  0.4592  0.1233
70523SAP2    C238296  22.408   9.692  10.755 -0.4364  0.5136 -0.0090
70523SAP2    C338297  22.182   9.459  10.840 -0.1029  0.1530 -0.0835
70523SAP2    C438298  22.333   9.527  10.754 -0.3193  0.3060  0.0908
70523SAP2   PO438299  22.726   9.330  10.671 -0.0260  0.1334 -0.1008
70523SAP2    P438300  22.054   9.657  11.043  0.0314 -0.0168 -0.1266
70523SAP2    P538301  22.332   9.948  10.752  0.1867  0.0709  0.1279
70523SAP2   GL138302  22.730   9.162  10.435  0.0380 -0.4108 -0.3363
70523SAP2   GL238303  22.615   9.102  10.155  0.3336 -0.1388 -0.2637
70523SAP2   D1A38304  23.148   9.054  10.620  0.1191 -0.0674  0.0631
70523SAP2   D2A38305  23.417   9.342  10.632 -0.0254  0.2227 -0.0914
70523SAP2   D3A38306  23.683   9.369  10.235 -0.0664 -0.2573 -0.5657
70523SAP2   D4A38307  23.951   9.104   9.998 -0.0832  0.0443 -0.0670
70523SAP2   C5A38308  23.680   8.758   9.892 -0.1823  0.3481  0.4766
70523SAP2   C1B38309  22.947   8.770  10.166 -0.0248 -0.2290  0.1485
70523SAP2   C2B38310  23.238   8.407  10.132  0.0276  0.2950  0.0636
70523SAP2   C3B38311  23.502   8.112   9.933  0.2558 -0.0420 -0.1726
70523SAP2   C4B38312  23.653   7.848   9.597  0.3772  0.0432 -0.0766
70524SAP2    C138313  28.607  14.163   9.421 -0.0848 -0.0383 -0.2055
70524SAP2    C238314  28.610  14.027   9.662  0.0270 -0.0697 -0.2243
70524SAP2    C338315  28.710  14.345   9.618  0.0981 -0.0948 -0.2464
70524SAP2    C438316  28.642  14.178   9.567 -0.7562  0.0864 -0.2401
70524SAP2   PO438317  28.326  14.042   9.307 -0.1409 -0.4123  0.1857
70524SAP2    P438318  28.755  14.513   9.880  0.0819  0.1621  0.2307
70524SAP2    P538319  28.879  13.968   9.800  0.2451 -0.3404  0.2434
70524SAP2   GL138320  28.413  14.147   9.044 -0.4115  0.0291  0.0822
70524SAP2   GL238321  28.426  14.265   8.793 -0.2179 -0.4120 -0.0313
70524SAP2   D1A38322  28.487  13.830   8.677  0.2198  0.2832 -0.0165
70524SAP2   D2A38323  28.062  13.697   8.562  0.2632  0.2899 -0.2857
70524SAP2   D3A38324  28.299  13.390   8.416  0.1924 -0.0685  0.1817
70524SAP2   D4A38325  28.364  13.682   8.066 -0.2103  0.0253  0.1181
70524SAP2   C5A38326  28.296  13.429   7.672  0.0832 -0.1013 -0.2348
70524SAP2   C1B38327  28.316  14.186   8.348  0.1393  0.0835  0.3790
70524SAP2   C2B38328  27.959  14.100   8.067 -0.3381 -0.1388  0.0195
70524SAP2   C3B38329  27.575  14.065   7.814  0.2047  0.2642 -0.0373
70524SAP2   C4B38330  27.519  14.028   7.332 -0.0348  0.0246  0.0459
70525SAP2    C138331  21.035   2.975  10.321 -0.2260  0.0459 -0.1312
70525SAP2    C238332  20.882   3.129  10.494  0.1326  0.1998  0.0587
70525SAP2    C338333  21.083   2.876  10.585  0.0589  0.0524 -0.1782
70525SAP2    C438334  21.000   2.994  10.467 -0.1299 -0.1194  0.1656
70525SAP2   PO438335  21.081   3.211  10.084 -0.1123  0.0579 -0.1878
70525SAP2    P438336  21.033   2.984  10.877  0.1733 -0.3516 -0.2614
70525SAP2    P538337  20.621   3.122  10.810  0.0281  0.1674 -0.0844
70525SAP2   GL138338  21.193   3.114   9.825  0.1197 -0.4198  0.1155
70525SAP2   GL238339  21.101   2.919   9.630 -0.0273 -0.1609  0.0890
70525SAP2   D1A38340  21.216   3.433   9.467 -0.1003  0.2246 -0.0587
70525SAP2   D2A38341  21.481   3.415   9.061 -0.0659  0.0546  0.1428
70525SAP2   D3A38342  21.683   3.777   8.931 -0.4446 -0.0229 -0.0172
70525SAP2   D4A38343  21.296   3.886   9.119  0.1671 -0.1091 -0.1595
70525SAP2   C5A38344  21.210   4.024   8.713  0.1700  0.2809  0.0862
70525SAP2   C1B38345  21.427   3.020   9.357 -0.2319 -0.0556  0.0377
70525SAP2   C2B38346  21.794   2.873   9.055  0.2712 -0.2341  0.0084
70525SAP2   C3B38347  21.919   3.034   8.630 -0.1874 -0.0267 -0.1024
70525SAP2   C4B38348  21.921   2.816   8.278 -0.0267  0.0397  0.1450
70526SAP2    C138349  20.215   1.529   9.624  0.1366  0.1311  0.0816
70526SAP2    C238350  20.191   1.515   9.900 -0.0174 -0.0124  0.0623
70526SAP2    C338351  20.254   1.255   9.696 -0.0962  0.0591 -0.0547
70526SAP2    C438352  20.220   1.433   9.740  0.1973  0.5795 -0.7724
70526SAP2   PO438353  20.348   1.816   9.593 -0.1875 -0.1214  0.1287
70526SAP2    P438354  20.410   1.039   9.924  0.1660 -0.1182 -0.0394
70526SAP2    P538355  20.089   1.234  10.106 -0.1942  0.0505 -0.0197
70526SAP2   GL138356  20.334   1.911   9.274 -0.3010 -0.2493  0.1744
70526SAP2   GL238357  20.411   2.256   9.324 -0.1346 -0.2221 -0.1875
70526SAP2   D1A38358  20.804   1.975   9.278 -0.1072 -0.2461 -0.1018
70526SAP2   D2A38359  21.102   2.078   8.969  0.1073 -0.1014  0.0260
70526SAP2   D3A38360  20.862   2.436   8.791  0.1034  0.0517  0.0578
70526SAP2   D4A38361  21.075   2.533   8.379 -0.1111  0.3728 -0.0900
70526SAP2   C5A38362  21.016   2.729   7.958  0.0907  0.0744  0.0979
70526SAP2   C1B38363  20.349   2.255   8.888 -0.3100  0.2579  0.5685
70526SAP2   C2B38364  20.236   2.431   8.442  0.2051 -0.1116  0.1646
70526SAP2   C3B38365  20.109   2.647   7.986 -0.1513  0.0833  0.0436
70526SAP2   C4B38366  20.329   2.922   7.733 -0.1751 -0.1008  0.3133
70527SAP2    C138367  20.928   8.097  10.528 -0.1419  0.0993 -0.2580
70527SAP2    C238368  20.670   8.010  10.581 -0.0181 -0.1231  0.0068
70527SAP2    C338369  20.849   8.216  10.776  0.0105  0.0240 -0.1720
70527SAP2    C438370  20.816   8.108  10.628 -0.8405  1.0909  0.0347
70527SAP2   PO438371  21.059   8.181  10.216  0.1031  0.2119 -0.1245
70527SAP2    P438372  20.623   8.262  11.019  0.0759  0.0443 -0.1407
70527SAP2    P538373  20.424   7.902  10.680  0.0447  0.0314 -0.1825
70527SAP2   GL138374  21.301   8.133  10.093  0.0966  0.4210  0.0704
70527SAP2   GL238375  21.503   7.999   9.955 -0.0188  0.4673 -0.0871
70527SAP2   D1A38376  21.391   8.400   9.726  0.1761  0.1991 -0.0309
70527SAP2   D2A38377  21.735   8.759   9.859  0.0801 -0.0377 -0.1799
70527SAP2   D3A38378  21.939   8.734   9.458  0.1401  0.0003 -0.3576
70527SAP2   D4A38379  22.318   8.405   9.452  0.1410 -0.2347  0.2903
70527SAP2   C5A38380  22.069   8.096   9.214  0.2225  0.2788  0.1536
70527SAP2   C1B38381  21.898   7.799   9.661  0.0657  0.3681 -0.0240
70527SAP2   C2B38382  22.275   7.618   9.464 -0.2520 -0.0312 -0.1939
70527SAP2   C3B38383  22.330   7.688   8.984  0.1082  0.3321  0.1990
70527SAP2   C4B38384  22.529   7.962   8.700 -0.1553  0.0770 -0.2593
70528SAP2    C138385  22.271  15.785   4.287  0.0129 -0.0280 -0.0488
70528SAP2    C238386  22.281  15.863   4.022 -0.1263 -0.0173 -0.0514
70528SAP2    C338387  22.020  15.713   4.170 -0.1248  0.1530  0.1280
70528SAP2    C438388  22.191  15.787   4.160 -0.5272 -0.2224  0.2130
70528SAP2   PO438389  22.394  16.024   4.481  0.1642 -0.1854 -0.0111
70528SAP2    P438390  21.810  15.613   3.985 -0.4095 -0.1899  0.0017
70528SAP2    P538391  22.373  15.477   3.923 -0.0627 -0.2500 -0.3314
70528SAP2   GL138392  22.291  16.037   4.762 -0.0235  0.0213  0.0583
70528SAP2   GL238393  22.183  16.149   4.961 -0.0029  0.2334 -0.1589
70528SAP2   D1A38394  22.206  15.673   5.069 -0.0069 -0.0486 -0.0352
70528SAP2   D2A38395  22.603  15.601   5.347 -0.1432 -0.1099  0.1524
70528SAP2   D3A38396  22.957  15.743   5.602  0.1047 -0.0669  0.0723
70528SAP2   D4A38397  22.979  16.098   5.799 -0.0356  0.0288 -0.0478
70528SAP2   C5A38398  22.957  16.185   5.322 -0.2397 -0.1763 -0.3844
70528SAP2   C1B38399  22.476  16.092   5.256 -0.0095 -0.2837  0.2766
70528SAP2   C2B38400  22.417  15.970   5.724  0.0300  0.0281  0.0319
70528SAP2   C3B38401  22.396  15.702   6.084 -0.0143  0.2995 -0.0940
70528SAP2   C4B38402  22.399  15.642   6.491 -0.2379  0.0004 -0.0337
70529SAP2    C138403  28.426  12.824   4.515 -0.1831 -0.0263  0.1998
70529SAP2    C238404  28.386  12.618   4.335  0.1777 -0.0504  0.1388
70529SAP2    C338405  28.608  12.867   4.298 -0.1340  0.2591  0.2932
70529SAP2    C438406  28.473  12.769   4.382 -0.1288 -0.6517  0.1615
70529SAP2   PO438407  28.396  12.609   4.785 -0.3083 -0.2000  0.1278
70529SAP2    P438408  28.767  12.662   4.004  0.0969  0.0026  0.1055
70529SAP2    P538409  28.259  12.471   4.112 -0.3115  0.0652 -0.2666
70529SAP2   GL138410  28.678  12.651   4.810 -0.0460 -0.5428  0.2214
70529SAP2   GL238411  28.677  12.639   5.122  0.0643  0.1105  0.0545
70529SAP2   D1A38412  29.111  12.813   4.917 -0.1879 -0.1035  0.1703
70529SAP2   D2A38413  28.951  13.083   5.253 -0.1690 -0.1693 -0.0849
70529SAP2   D3A38414  28.581  13.028   5.500  0.2170  0.2037  0.0174
70529SAP2   D4A38415  28.921  13.067   5.785  0.1342 -0.0957 -0.4000
70529SAP2   C5A38416  29.336  12.862   5.728  0.1363  0.2316  0.1218
70529SAP2   C1B38417  29.075  12.579   5.351 -0.3492 -0.0057 -0.3308
70529SAP2   C2B38418  29.373  12.379   5.670 -0.2700  0.2706  0.0942
70529SAP2   C3B38419  29.641  12.467   6.105  0.0651  0.1207  0.0471
70529SAP2   C4B38420  29.624  12.635   6.558  0.0324 -0.3112 -0.0109
70530SAP2    C138421  23.217   4.682   6.261  0.0539  0.1045 -0.0527
70530SAP2    C238422  23.404   4.876   6.326 -0.1166  0.3452 -0.2629
70530SAP2    C338423  23.332   4.771   6.015 -0.1931  0.1106 -0.1684
70530SAP2    C438424  23.318   4.776   6.200 -0.0308 -0.0695  0.3456
70530SAP2   PO438425  22.966   4.792   6.529  0.0402  0.1849  0.1982
70530SAP2    P438426  23.559   4.858   5.820 -0.0197  0.1375  0.0617
70530SAP2    P538427  23.708   4.983   6.324 -0.0831  0.4434  0.2183
70530SAP2   GL138428  22.876   4.708   6.798 -0.1427 -0.0522  0.0192
70530SAP2   GL238429  23.098   4.556   6.871 -0.1400  0.1400 -0.1381
70530SAP2   D1A38430  23.012   4.887   7.197  0.2670 -0.5122  0.0274
70530SAP2   D2A38431  23.314   4.643   7.385 -0.3082  0.0264 -0.5721
70530SAP2   D3A38432  23.143   4.639   7.801  0.0256  0.2943  0.1285
70530SAP2   D4A38433  22.790   4.815   7.618  0.0853  0.0015 -0.0760
70530SAP2   C5A38434  22.404   4.904   7.812  0.1723 -0.0659 -0.1616
70530SAP2   C1B38435  22.892   4.405   7.272  0.0452  0.3511  0.3270
70530SAP2   C2B38436  22.748   4.341   7.688 -0.1896  0.2868  0.0316
70530SAP2   C3B38437  22.574   4.067   7.963  0.0277  0.1452  0.1332
70530SAP2   C4B38438  22.713   3.719   8.209 -0.2347  0.2386 -0.1208
70531SAP2    C138439  25.219   9.443   5.998 -0.0316  0.0013 -0.2467
70531SAP2    C238440  25.205   9.371   5.731 -0.2659 -0.0247 -0.2297
70531SAP2    C338441  25.333   9.181   5.976  0.0402  0.0393 -0.3345
70531SAP2    C438442  25.252   9.332   5.902  0.2856 -0.0425 -0.6496
70531SAP2   PO438443  24.890   9.542   6.077 -0.1599 -0.2074  0.1599
70531SAP2    P438444  25.375   8.953   5.819 -0.1353  0.0949  0.0158
70531SAP2    P538445  25.523   9.308   5.575 -0.0361  0.3238  0.1626
70531SAP2   GL138446  24.698   9.712   5.920  0.1465 -0.2818 -0.0506
70531SAP2   GL238447  24.465   9.819   5.996  0.1588  0.2421 -0.0994
70531SAP2   D1A38448  24.801   9.965   6.336  0.2664 -0.1343 -0.0883
70531SAP2   D2A38449  25.007   9.694   6.600  0.1565  0.0355 -0.1381
70531SAP2   D3A38450  24.678   9.814   6.876  0.1284 -0.0664 -0.0297
70531SAP2   D4A38451  24.373  10.080   6.679  0.2394 -0.2491 -0.1627
70531SAP2   C5A38452  24.145  10.254   7.001 -0.0897 -0.2080  0.0878
70531SAP2   C1B38453  24.244  10.215   6.192  0.0024 -0.1447  0.3097
70531SAP2   C2B38454  23.938  10.339   6.521  0.0464  0.4363 -0.5656
70531SAP2   C3B38455  23.509  10.402   6.762 -0.2920  0.2299  0.0657
70531SAP2   C4B38456  23.081  10.461   6.988  0.0796 -0.0708 -0.0472
70532SAP2    C138457  25.998   9.059   6.384  0.1185 -0.3823  0.2536
70532SAP2    C238458  26.262   8.987   6.345  0.1712 -0.1822  0.2289
70532SAP2    C338459  26.076   9.166   6.130  0.1120 -0.0541  0.3852
70532SAP2    C438460  26.112   9.070   6.287 -0.5833  0.9046 -0.7747
70532SAP2   PO438461  26.043   9.041   6.746  0.1587 -0.0732  0.0828
70532SAP2    P438462  26.333   9.152   5.925 -0.1184  0.1742 -0.0739
70532SAP2    P538463  26.487   8.836   6.229  0.1643 -0.0095 -0.1372
70532SAP2   GL138464  25.844   9.179   7.017  0.0838  0.1191  0.4187
70532SAP2   GL238465  25.920   9.516   7.044  0.0598  0.0352 -0.0899
70532SAP2   D1A38466  25.640   8.864   7.360  0.0022  0.0647 -0.3438
70532SAP2   D2A38467  25.405   9.120   7.634  0.1659  0.0946  0.1016
70532SAP2   D3A38468  25.224   8.759   7.780 -0.1305 -0.2052  0.3327
70532SAP2   D4A38469  25.376   8.872   8.172  0.1199  0.2504  0.2397
70532SAP2   C5A38470  25.410   9.279   8.126 -0.0109  0.0311  0.1014
70532SAP2   C1B38471  25.616   9.740   7.275 -0.0034  0.2130  0.0466
70532SAP2   C2B38472  25.428   9.622   7.707 -0.0981 -0.1586  0.1454
70532SAP2   C3B38473  25.371   9.767   8.093  0.0927 -0.0771  0.0761
70532SAP2   C4B38474  25.021  10.020   8.264  0.0634 -0.0779 -0.2481
70533SAP2    C138475  27.729   6.828   7.511 -0.1773  0.0471  0.0261
70533SAP2    C238476  27.489   6.868   7.645 -0.2226  0.0381 -0.0521
70533SAP2    C338477  27.523   6.713   7.348 -0.0857 -0.2266  0.0981
70533SAP2    C438478  27.581   6.803   7.501  0.7217 -0.7318  0.1299
70533SAP2   PO438479  28.012   6.786   7.729 -0.2729 -0.1272 -0.1080
70533SAP2    P438480  27.271   6.626   7.281 -0.4149 -0.0593 -0.0688
70533SAP2    P538481  27.258   6.998   7.543  0.4320 -0.0269  0.2661
70533SAP2   GL138482  28.157   6.846   8.007 -0.0325 -0.1230 -0.3790
70533SAP2   GL238483  28.336   6.998   8.176  0.0956  0.1588 -0.0042
70533SAP2   D1A38484  28.318   6.423   8.074 -0.1203 -0.0016  0.2609
70533SAP2   D2A38485  28.586   6.672   7.833 -0.4588 -0.1471 -0.3939
70533SAP2   D3A38486  28.984   6.591   8.006  0.0858  0.0665  0.0781
70533SAP2   D4A38487  29.181   6.139   7.899  0.2050 -0.0422  0.4203
70533SAP2   C5A38488  29.098   5.970   8.313  0.2062 -0.0789  0.1722
70533SAP2   C1B38489  28.726   6.946   8.348  0.0403  0.2192  0.1289
70533SAP2   C2B38490  29.126   6.784   8.454 -0.0293 -0.3304  0.1499
70533SAP2   C3B38491  29.454   6.421   8.389 -0.0210  0.0449  0.0037
70533SAP2   C4B38492  29.886   6.370   8.454 -0.0791  0.1542 -0.0642
70534SAP2    C138493  26.432   1.649   5.106  0.0124  0.0590 -0.0403
70534SAP2    C238494  26.361   1.390   5.037 -0.0498  0.0507  0.0535
70534SAP2    C338495  26.567   1.588   4.861 -0.0796 -0.0273 -0.0702
70534SAP2    C438496  26.453   1.542   5.001  0.1062  0.3661  0.2009
70534SAP2   PO438497  26.379   1.679   5.406 -0.2144 -0.0615 -0.2358
70534SAP2    P438498  26.662   1.355   4.688  0.2134 -0.1420 -0.0234
70534SAP2    P538499  26.182   1.279   4.737 -0.2144  0.1549  0.2847
70534SAP2   GL138500  26.546   1.392   5.530 -0.2040  0.0044 -0.0781
70534SAP2   GL238501  26.462   1.455   5.789 -0.3772  0.5618 -0.0610
70534SAP2   D1A38502  26.898   1.072   5.574 -0.0351  0.0708 -0.2034
70534SAP2   D2A38503  27.245   0.756   5.599  0.3720  0.0495 -0.0963
70534SAP2   D3A38504  27.054   0.461   5.851 -0.1090  0.0135  0.2286
70534SAP2   D4A38505  27.063   0.112   5.585  0.0958  0.3836  0.1691
70534SAP2   C5A38506  27.512  -0.058   5.538 -0.2518 -0.4124  0.0267
70534SAP2   C1B38507  26.646   1.252   6.130  0.0644  0.5446  0.0525
70534SAP2   C2B38508  26.730   1.225   6.571  0.1661  0.0794  0.0614
70534SAP2   C3B38509  26.766   0.928   6.916 -0.0829 -0.1757  0.0564
70534SAP2   C4B38510  26.874   0.532   7.182 -0.1463 -0.0633 -0.4267
70535SAP2    C138511  25.823   5.193  10.706  0.1388 -0.1368 -0.3606
70535SAP2    C238512  25.737   5.446  10.633  0.2031 -0.0183 -0.0416
70535SAP2    C338513  26.043   5.370  10.750  0.1133 -0.2032  0.0790
70535SAP2    C438514  25.868   5.336  10.697 -0.3458  0.4170 -0.6526
70535SAP2   PO438515  25.764   4.991  10.461  0.3310  0.3085 -0.0562
70535SAP2    P438516  26.149   5.688  10.730  0.2513 -0.2307 -0.0181
70535SAP2    P538517  25.637   5.711  10.635 -0.0133  0.2063 -0.3560
70535SAP2   GL138518  25.644   4.803  10.597 -0.0075 -0.1433 -0.0091
70535SAP2   GL238519  25.380   4.670  10.712  0.0630 -0.3065 -0.0136
70535SAP2   D1A38520  25.679   4.311  10.637 -0.3499  0.0959 -0.0950
70535SAP2   D2A38521  25.517   4.289  11.114  0.1360  0.1111  0.0524
70535SAP2   D3A38522  25.446   3.850  11.058 -0.6698 -0.3846  0.1422
70535SAP2   D4A38523  25.320   3.476  11.276  0.2270 -0.1334  0.0862
70535SAP2   C5A38524  24.964   3.355  11.074 -0.2269 -0.0246  0.1994
70535SAP2   C1B38525  24.962   4.559  10.934 -0.2085 -0.0887 -0.3413
70535SAP2   C2B38526  24.667   4.441  11.297  0.0459 -0.0499 -0.0881
70535SAP2   C3B38527  24.210   4.480  11.187 -0.3655 -0.1514 -0.0647
70535SAP2   C4B38528  24.061   4.795  10.901  0.0982 -0.1485  0.1691
70536SAP2    C138529  20.668  11.585   4.037  0.0049 -0.3816  0.2529
70536SAP2    C238530  20.598  11.574   3.770  0.0279 -0.2328  0.2400
70536SAP2    C338531  20.910  11.545   3.890  0.0748  0.1142  0.2143
70536SAP2    C438532  20.725  11.568   3.899 -0.4426  0.4052  0.1352
70536SAP2   PO438533  20.391  11.431   4.180  0.2818  0.1834 -0.0558
70536SAP2    P438534  21.030  11.544   3.544  0.1040  0.3069 -0.0349
70536SAP2    P538535  20.602  11.803   3.518 -0.0286  0.2773  0.1500
70536SAP2   GL138536  20.366  11.651   4.497  0.1787 -0.2712  0.0505
70536SAP2   GL238537  20.498  11.854   4.404 -0.0033  0.1641  0.1512
70536SAP2   D1A38538  20.544  11.456   4.867  0.0927 -0.4499 -0.1076
70536SAP2   D2A38539  20.115  11.610   4.861  0.1022 -0.1957 -0.2261
70536SAP2   D3A38540  20.130  11.976   4.659  0.0124  0.2348  0.2724
70536SAP2   D4A38541  20.494  11.998   4.896 -0.0459 -0.3131 -0.0510
70536SAP2   C5A38542  20.353  12.124   5.342 -0.0810  0.2316  0.2593
70536SAP2   C1B38543  20.893  12.073   4.617  0.2664  0.0261  0.3127
70536SAP2   C2B38544  20.963  12.154   5.064 -0.1773  0.1320  0.2738
70536SAP2   C3B38545  21.261  12.275   5.336  0.0442 -0.1081 -0.0147
70536SAP2   C4B38546  21.612  12.170   5.613  0.3168  0.4408  0.4741
70537SAP2    C138547  21.403   8.547   4.837  0.2232  0.0598  0.3114
70537SAP2    C238548  21.577   8.603   4.629 -0.0656 -0.2795 -0.0364
70537SAP2    C338549  21.335   8.808   4.741  0.1998 -0.0264  0.0880
70537SAP2    C438550  21.438   8.653   4.736  0.4995  0.5071  1.1419
70537SAP2   PO438551  21.553   8.394   5.065  0.1209  0.3119 -0.0954
70537SAP2    P438552  21.424   9.074   4.601  0.3504 -0.2888 -0.0799
70537SAP2    P538553  21.754   8.830   4.415 -0.1515 -0.1540 -0.2001
70537SAP2   GL138554  21.375   8.307   5.267 -0.1837  0.0108 -0.2198
70537SAP2   GL238555  21.165   8.394   5.428  0.0779 -0.2902 -0.1537
70537SAP2   D1A38556  21.554   8.094   5.649 -0.2896  0.0796 -0.0968
70537SAP2   D2A38557  21.373   8.399   5.884 -0.1756 -0.0581  0.1623
70537SAP2   D3A38558  21.657   8.579   5.557  0.0054  0.1733  0.2090
70537SAP2   D4A38559  21.363   8.867   5.672 -0.2596 -0.0986  0.1240
70537SAP2   C5A38560  20.939   8.794   5.852 -0.1728  0.2416  0.2444
70537SAP2   C1B38561  20.879   8.301   5.799 -0.1691  0.0885  0.3830
70537SAP2   C2B38562  20.648   8.508   6.138  0.2385  0.0782 -0.2511
70537SAP2   C3B38563  20.649   8.748   6.541  0.1918  0.1105  0.0224
70537SAP2   C4B38564  20.914   8.830   6.860  0.3217 -0.2103 -0.1035
70538SAP2    C138565  27.763  13.368   4.628  0.1010  0.0649  0.1313
70538SAP2    C238566  27.741  13.097   4.576  0.0706 -0.0092  0.5065
70538SAP2    C338567  27.746  13.339   4.343 -0.3562 -0.2956  0.1839
70538SAP2    C438568  27.750  13.268   4.516  0.4521  0.1550 -0.4530
70538SAP2   PO438569  27.957  13.379   4.889  0.0563  0.2296  0.0852
70538SAP2    P438570  27.716  13.131   4.081  0.1286 -0.1054 -0.2574
70538SAP2    P538571  27.610  12.881   4.550  0.2187  0.0199  0.0026
70538SAP2   GL138572  27.925  13.303   5.229 -0.1376  0.1104  0.3004
70538SAP2   GL238573  28.104  13.221   5.405 -0.0410 -0.1010 -0.0734
70538SAP2   D1A38574  27.737  13.425   5.636  0.1826 -0.0382 -0.0825
70538SAP2   D2A38575  27.602  13.796   5.353  0.1824 -0.4319 -0.1935
70538SAP2   D3A38576  27.769  14.234   5.496  0.1416 -0.1390  0.1461
70538SAP2   D4A38577  28.063  14.376   5.833  0.0735  0.3834  0.1151
70538SAP2   C5A38578  28.062  14.222   6.252  0.2078  0.0822  0.0331
70538SAP2   C1B38579  28.114  13.289   5.894 -0.0090 -0.1104  0.0163
70538SAP2   C2B38580  28.256  13.220   6.293  0.0411  0.2421  0.0947
70538SAP2   C3B38581  28.414  13.212   6.776  0.0334  0.1722 -0.2555
70538SAP2   C4B38582  28.477  13.397   7.164 -0.0192  0.0489  0.0180
70539SAP2    C138583  22.193   5.358   5.746 -0.0905 -0.0723 -0.0260
70539SAP2    C238584  22.418   5.218   5.664  0.1976  0.3609 -0.0056
70539SAP2    C338585  22.180   5.342   5.460  0.2324  0.3213 -0.0708
70539SAP2    C438586  22.264   5.306   5.623  0.4268  0.6155 -0.0731
70539SAP2   PO438587  22.335   5.543   5.976 -0.2737 -0.1284 -0.4596
70539SAP2    P438588  22.370   5.260   5.228  0.1876 -0.1493 -0.1319
70539SAP2    P538589  22.412   4.895   5.554 -0.2891 -0.0993 -0.3522
70539SAP2   GL138590  22.192   5.507   6.276  0.0271  0.1910  0.1205
70539SAP2   GL238591  21.958   5.554   6.370  0.3956 -0.2509 -0.0711
70539SAP2   D1A38592  22.190   5.109   6.527 -0.2780  0.2378  0.1798
70539SAP2   D2A38593  21.903   4.825   6.523  0.3325 -0.1994 -0.2102
70539SAP2   D3A38594  22.183   4.735   6.867 -0.3427 -0.3428  0.2715
70539SAP2   D4A38595  21.798   4.849   7.073  0.0150  0.0218 -0.2209
70539SAP2   C5A38596  21.897   4.746   7.480 -0.0820 -0.1368 -0.1448
70539SAP2   C1B38597  21.807   5.321   6.776  0.3479  0.1403 -0.0543
70539SAP2   C2B38598  21.569   5.310   7.167 -0.0099 -0.1228  0.0615
70539SAP2   C3B38599  21.134   5.503   7.244 -0.1194  0.1396  0.0289
70539SAP2   C4B38600  20.913   5.516   7.668 -0.1169  0.3312 -0.0771
70540SAP2    C138601  28.327   6.569   7.335  0.2146  0.4232  0.1649
70540SAP2    C238602  28.087   6.674   7.245  0.0049 -0.2275 -0.1011
70540SAP2    C338603  28.373   6.662   7.068  0.0602 -0.0276 -0.0288
70540SAP2    C438604  28.262   6.635   7.216 -0.0728  0.3505 -0.1789
70540SAP2   PO438605  28.206   6.285   7.494 -0.2050 -0.0010 -0.0529
70540SAP2    P438606  28.307   6.738   6.788  0.1541 -0.0093  0.0116
70540SAP2    P538607  27.927   6.797   7.104 -0.1741 -0.0706  0.0586
70540SAP2   GL138608  28.165   6.114   7.762  0.5291  0.1351  0.0722
70540SAP2   GL238609  28.395   5.867   7.726 -0.1482 -0.3528  0.1979
70540SAP2   D1A38610  28.201   5.930   8.205 -0.3771 -0.0432 -0.0740
70540SAP2   D2A38611  28.542   5.643   8.221 -0.2782  0.1663 -0.0616
70540SAP2   D3A38612  28.934   5.557   8.547  0.0873  0.1233  0.1025
70540SAP2   D4A38613  29.291   5.710   8.746 -0.0752  0.1130 -0.2762
70540SAP2   C5A38614  29.531   6.057   8.739 -0.1073 -0.1006  0.0333
70540SAP2   C1B38615  28.647   6.095   8.072 -0.0415  0.4549  0.0579
70540SAP2   C2B38616  28.648   6.007   8.563  0.3045  0.2889  0.1917
70540SAP2   C3B38617  28.822   5.815   8.964 -0.1598  0.0093 -0.1819
70540SAP2   C4B38618  28.935   5.371   9.026 -0.2752  0.0982  0.0524
70541SAP2    C138619  32.624  15.040  15.661  0.0800  0.0141 -0.0282
70541SAP2    C238620  32.761  15.013  15.422  0.0580  0.4481 -0.0984
70541SAP2    C338621  32.442  14.921  15.475  0.1049  0.2251 -0.1922
70541SAP2    C438622  32.609  14.991  15.519 -0.7855  0.3331 -0.3085
70541SAP2   PO438623  32.756  15.336  15.761 -0.0213  0.1064  0.0527
70541SAP2    P438624  32.458  14.723  15.201  0.0993 -0.0348  0.0067
70541SAP2    P538625  32.857  14.753  15.347 -0.1381 -0.1455 -0.2350
70541SAP2   GL138626  32.577  15.341  15.967 -0.1620  0.0061  0.2541
70541SAP2   GL238627  32.765  15.535  16.175  0.3229  0.1002  0.0457
70541SAP2   D1A38628  32.375  15.228  16.422 -0.0858 -0.2329  0.1310
70541SAP2   D2A38629  32.262  15.677  16.267 -0.1718 -0.1569  0.3160
70541SAP2   D3A38630  32.268  16.064  16.556 -0.1164 -0.1428 -0.1931
70541SAP2   D4A38631  31.885  15.828  16.745 -0.1686  0.0653 -0.6135
70541SAP2   C5A38632  32.259  15.630  16.893 -0.0812  0.1070  0.3131
70541SAP2   C1B38633  32.683  15.604  16.567 -0.0510 -0.0395  0.0195
70541SAP2   C2B38634  32.695  15.896  16.964  0.1179 -0.1844  0.1152
70541SAP2   C3B38635  32.452  15.953  17.356  0.1896  0.2565 -0.3447
70541SAP2   C4B38636  32.264  16.359  17.468 -0.1627 -0.0046 -0.2434
70542SAP2    C138637  31.153   5.760  12.305  0.1751 -0.1153  0.3170
70542SAP2    C238638  31.363   5.933  12.356  0.1487 -0.0457  0.1949
70542SAP2    C338639  31.367   5.685  12.130 -0.0024  0.1502 -0.0275
70542SAP2    C438640  31.295   5.792  12.264 -0.3494 -0.1845  0.4509
70542SAP2   PO438641  30.889   6.007  12.356 -0.0348  0.1388  0.5020
70542SAP2    P438642  31.690   5.739  12.039 -0.0549  0.1838  0.0471
70542SAP2    P538643  31.611   5.929  12.492 -0.1682  0.0166  0.0012
70542SAP2   GL138644  30.692   5.859  12.131 -0.0709  0.2373 -0.0847
70542SAP2   GL238645  30.619   6.111  12.100  0.3907 -0.0935 -0.0975
70542SAP2   D1A38646  30.455   5.798  11.701  0.2784 -0.1095 -0.3469
70542SAP2   D2A38647  30.059   5.979  11.884  0.0531 -0.0695  0.0572
70542SAP2   D3A38648  30.270   5.886  12.325  0.0851 -0.0680 -0.1178
70542SAP2   D4A38649  30.062   5.476  12.474  0.1054 -0.3843  0.1781
70542SAP2   C5A38650  29.766   5.125  12.413  0.0949 -0.0219  0.0327
70542SAP2   C1B38651  30.239   6.418  12.077  0.0734  0.2690 -0.2232
70542SAP2   C2B38652  29.865   6.719  11.926 -0.1166  0.1822  0.0455
70542SAP2   C3B38653  29.419   6.810  11.843 -0.2191 -0.0172 -0.0175
70542SAP2   C4B38654  29.146   6.845  11.476 -0.1412  0.1055 -0.0322
70543SAP2    C138655  18.457   4.697  15.407  0.0651  0.2190  0.0321
70543SAP2    C238656  18.462   4.776  15.141  0.1151  0.1234  0.0042
70543SAP2    C338657  18.184   4.727  15.323  0.0759  0.0232 -0.0813
70543SAP2    C438658  18.368   4.733  15.290  0.9588  0.0944  0.1396
70543SAP2   PO438659  18.642   4.872  15.598  0.0111  0.0147 -0.0266
70543SAP2    P438660  17.948   4.748  15.140  0.2235 -0.3857 -0.1179
70543SAP2    P538661  18.357   4.724  14.896 -0.0808  0.2367 -0.2625
70543SAP2   GL138662  18.572   4.747  15.891  0.1370  0.0884  0.1459
70543SAP2   GL238663  18.261   4.809  15.810 -0.1498  0.1712 -0.0012
70543SAP2   D1A38664  18.528   4.371  16.194  0.0623 -0.1405  0.0812
70543SAP2   D2A38665  18.487   4.444  16.614  0.1759  0.1690  0.0947
70543SAP2   D3A38666  18.579   3.937  16.629  0.0121 -0.2222  0.0307
70543SAP2   D4A38667  18.716   4.129  17.025  0.1401 -0.0628  0.5150
70543SAP2   C5A38668  18.779   3.702  17.185 -0.0611 -0.0817 -0.0038
70543SAP2   C1B38669  18.340   4.887  16.285  0.0394  0.2910 -0.1438
70543SAP2   C2B38670  18.354   4.935  16.753  0.0449 -0.1663  0.1887
70543SAP2   C3B38671  18.398   4.963  17.186  0.0159 -0.5694 -0.0443
70543SAP2   C4B38672  18.785   5.092  17.385  0.3295 -0.2061 -0.0304
70544SAP2    C138673  21.447  10.384   9.224  0.1430  0.0124  0.1208
70544SAP2    C238674  21.396  10.365   9.496 -0.0798 -0.5379  0.0541
70544SAP2    C338675  21.216  10.546   9.277  0.2738  0.1450  0.2982
70544SAP2    C438676  21.353  10.432   9.332 -0.0099 -0.7883 -0.7638
70544SAP2   PO438677  21.549  10.143   9.065  0.0694  0.0108  0.1959
70544SAP2    P438678  20.993  10.582   9.457 -0.0087 -0.4671 -0.0298
70544SAP2    P538679  21.416  10.463   9.763 -0.0711 -0.2137 -0.3553
70544SAP2   GL138680  21.609  10.266   8.741 -0.0954  0.0626  0.1443
70544SAP2   GL238681  21.811  10.014   8.679 -0.0839  0.1079  0.1926
70544SAP2   D1A38682  21.456  10.193   8.287  0.0245 -0.3195 -0.4069
70544SAP2   D2A38683  21.326   9.743   8.401  0.3043 -0.2718 -0.0653
70544SAP2   D3A38684  21.515   9.439   8.098  0.1137  0.1598 -0.1303
70544SAP2   D4A38685  21.663   9.177   8.465 -0.2166  0.1975 -0.2309
70544SAP2   C5A38686  21.900   9.106   8.083  0.0357  0.0384 -0.1088
70544SAP2   C1B38687  21.805   9.790   8.313 -0.0979 -0.1941  0.1685
70544SAP2   C2B38688  21.932   9.600   7.915 -0.0449 -0.1444  0.1190
70544SAP2   C3B38689  22.308   9.466   7.671  0.1867  0.0304 -0.3024
70544SAP2   C4B38690  22.503   9.700   7.306 -0.2283  0.1785  0.1494
70545SAP2    C138691  18.120   5.984  15.213  0.1074  0.0568  0.1611
70545SAP2    C238692  18.192   5.774  15.047  0.1312 -0.0311  0.2813
70545SAP2    C338693  18.100   6.080  14.944  0.1926 -0.0696  0.1085
70545SAP2    C438694  18.138   5.946  15.068 -0.3187  0.2522 -0.4072
70545SAP2   PO438695  18.342   6.001  15.445 -0.0142 -0.1591  0.2726
70545SAP2    P438696  18.202   6.008  14.661  0.2339 -0.2423 -0.0126
70545SAP2    P538697  18.184   5.611  14.829 -0.2005 -0.1058  0.3190
70545SAP2   GL138698  18.286   5.787  15.559  0.2919  0.3052 -0.0267
70545SAP2   GL238699  18.465   5.762  15.787 -0.2429  0.3933  0.1046
70545SAP2   D1A38700  17.967   5.590  15.831  0.0289 -0.1784  0.1309
70545SAP2   D2A38701  18.259   5.313  15.754 -0.2386  0.1723  0.1261
70545SAP2   D3A38702  18.526   5.350  16.154  0.1622 -0.0541  0.0982
70545SAP2   D4A38703  18.876   5.607  15.981 -0.1215 -0.1834  0.2538
70545SAP2   C5A38704  18.804   5.631  16.451  0.3303  0.0534  0.0447
70545SAP2   C1B38705  18.597   6.004  16.184  0.1248  0.1518  0.0256
70545SAP2   C2B38706  18.534   6.046  16.640  0.1914 -0.0168  0.1625
70545SAP2   C3B38707  18.229   6.035  16.999 -0.1596 -0.1947  0.2110
70545SAP2   C4B38708  17.982   5.690  17.245 -0.1031 -0.0882 -0.1590
70546SAP2    C138709  31.540  15.524  15.884 -0.0022  0.1446  0.1156
70546SAP2    C238710  31.705  15.419  15.687 -0.2692  0.0645 -0.0717
70546SAP2    C338711  31.596  15.737  15.700 -0.1892  0.0898 -0.0068
70546SAP2    C438712  31.614  15.560  15.757 -0.1153  0.1081  0.1636
70546SAP2   PO438713  31.723  15.429  16.150  0.2548  0.1387  0.1347
70546SAP2    P438714  31.790  15.864  15.386  0.2333  0.2232  0.1678
70546SAP2    P538715  31.655  15.323  15.440 -0.1347 -0.4304  0.1581
70546SAP2   GL138716  31.806  15.492  16.442 -0.2063 -0.1271 -0.0453
70546SAP2   GL238717  31.571  15.463  16.611 -0.2555 -0.0391  0.2580
70546SAP2   D1A38718  31.964  15.246  16.821  0.1841 -0.2020 -0.0583
70546SAP2   D2A38719  31.893  15.516  17.181 -0.0922 -0.0649 -0.0693
70546SAP2   D3A38720  31.734  15.452  17.638 -0.1053  0.0329 -0.1443
70546SAP2   D4A38721  31.651  15.835  17.880 -0.0451  0.3202 -0.2177
70546SAP2   C5A38722  32.038  15.851  18.192  0.0468  0.1340  0.0069
70546SAP2   C1B38723  31.463  15.441  17.047 -0.3540  0.1320 -0.2656
70546SAP2   C2B38724  31.308  15.708  17.310 -0.1700  0.1579 -0.2871
70546SAP2   C3B38725  31.410  16.090  17.524  0.0956 -0.0505 -0.1702
70546SAP2   C4B38726  31.458  16.527  17.476 -0.0090  0.1826  0.2323
70547SAP2    C138727  17.306   5.497  15.380  0.1443  0.0739 -0.0950
70547SAP2    C238728  17.414   5.561  15.133 -0.3889  0.4935 -0.2408
70547SAP2    C338729  17.216   5.297  15.196  0.1128  0.1256 -0.1362
70547SAP2    C438730  17.312   5.452  15.237 -0.4562 -0.1137  0.2300
70547SAP2   PO438731  17.186   5.781  15.529  0.0411 -0.2187  0.1781
70547SAP2    P438732  17.091   5.150  15.029 -0.3421 -0.2101  0.3493
70547SAP2    P538733  17.359   5.462  14.779  0.0815 -0.0487 -0.0195
70547SAP2   GL138734  17.035   5.842  15.821 -0.0953  0.0378 -0.1975
70547SAP2   GL238735  16.774   5.644  15.767  0.0272 -0.1246 -0.2766
70547SAP2   D1A38736  17.156   6.107  16.215 -0.1082  0.3940 -0.0633
70547SAP2   D2A38737  16.733   6.301  16.349 -0.2928  0.3237  0.2746
70547SAP2   D3A38738  16.464   6.044  16.075 -0.0011 -0.0128 -0.2316
70547SAP2   D4A38739  16.066   6.263  15.933 -0.3612 -0.1170 -0.1080
70547SAP2   C5A38740  15.945   6.129  16.367  0.4014  0.1638 -0.1925
70547SAP2   C1B38741  16.526   5.584  16.179 -0.0069  0.0391  0.3263
70547SAP2   C2B38742  16.277   5.778  16.535  0.0982 -0.2427  0.1029
70547SAP2   C3B38743  15.948   5.737  16.954  0.2632 -0.0549  0.1291
70547SAP2   C4B38744  15.764   5.890  17.279 -0.0909  0.3710  0.1987
70548SAP2    C138745  23.569  10.190  14.306  0.0441  0.0045 -0.0881
70548SAP2    C238746  23.551  10.248  14.036  0.3027  0.0704 -0.0935
70548SAP2    C338747  23.649  10.463  14.275  0.3388 -0.0665  0.0161
70548SAP2    C438748  23.590  10.301  14.206  0.9008 -0.5073  0.2920
70548SAP2   PO438749  23.686   9.867  14.252 -0.0618  0.0488  0.1884
70548SAP2    P438750  23.667  10.667  14.068 -0.1565  0.0478 -0.0712
70548SAP2    P538751  23.466  10.440  13.825  0.0534  0.2445 -0.1366
70548SAP2   GL138752  23.875   9.690  14.426  0.2365  0.1422 -0.1758
70548SAP2   GL238753  23.989   9.481  14.387  0.3077  0.0353  0.3755
70548SAP2   D1A38754  23.803   9.433  14.821  0.1133 -0.0336  0.1655
70548SAP2   D2A38755  23.560   9.552  15.219 -0.1249  0.0149 -0.1371
70548SAP2   D3A38756  23.899   9.378  15.549  0.1047 -0.1494 -0.2423
70548SAP2   D4A38757  23.665   8.998  15.732  0.1415 -0.0080  0.2140
70548SAP2   C5A38758  24.124   8.930  15.704 -0.0472 -0.0102 -0.0411
70548SAP2   C1B38759  24.013   9.084  14.599  0.1123  0.1492  0.0321
70548SAP2   C2B38760  24.056   8.823  14.983  0.0303  0.2133 -0.4047
70548SAP2   C3B38761  24.351   8.741  15.279  0.0727  0.2658 -0.2233
70548SAP2   C4B38762  24.476   8.396  15.557  0.2446 -0.0464  0.1815
70549SAP2    C138763  22.969  10.289  14.955  0.0109 -0.0200 -0.1304
70549SAP2    C238764  22.890  10.554  14.934 -0.1588 -0.0461  0.1312
70549SAP2    C338765  22.840  10.318  14.701  0.2129  0.2004 -0.2124
70549SAP2    C438766  22.900  10.387  14.863 -0.4319 -1.2638  0.1406
70549SAP2   PO438767  22.894  10.224  15.272 -0.0141  0.0478  0.1771
70549SAP2    P438768  22.619  10.464  14.555  0.1132  0.2075  0.2358
70549SAP2    P538769  23.033  10.765  14.801  0.0157 -0.0816  0.1669
70549SAP2   GL138770  23.111  10.262  15.548 -0.0498 -0.1889 -0.2882
70549SAP2   GL238771  23.324  10.182  15.506 -0.0307  0.2205  0.0389
70549SAP2   D1A38772  23.124  10.589  15.892  0.0756  0.1420 -0.2650
70549SAP2   D2A38773  23.433  10.562  16.265  0.2533 -0.0514  0.2084
70549SAP2   D3A38774  23.120  10.227  16.283  0.0248 -0.2934 -0.3744
70549SAP2   D4A38775  23.197   9.919  15.934  0.1204 -0.1008  0.2010
70549SAP2   C5A38776  23.511   9.530  15.974  0.0372  0.1979 -0.1626
70549SAP2   C1B38777  23.555  10.296  15.892 -0.2737  0.1502  0.0295
70549SAP2   C2B38778  23.712   9.982  16.162  0.1177 -0.1290  0.0758
70549SAP2   C3B38779  23.876   9.643  16.474  0.1585 -0.0596  0.3290
70549SAP2   C4B38780  24.147   9.454  16.791  0.1297  0.0125  0.0340
70550SAP2    C138781  29.124   9.176  14.689 -0.0593  0.0482  0.2224
70550SAP2    C238782  29.158   9.450  14.668 -0.1039  0.0325 -0.1134
70550SAP2    C338783  29.278   9.222  14.452 -0.0021 -0.2223  0.2031
70550SAP2    C438784  29.186   9.283  14.603  0.3343  0.0306 -0.1401
70550SAP2   PO438785  28.816   9.160  14.823  0.1130 -0.0524  0.2974
70550SAP2    P438786  29.454   9.316  14.245  0.2403 -0.3471  0.0706
70550SAP2    P538787  29.189   9.746  14.466 -0.0759  0.2739 -0.0683
70550SAP2   GL138788  28.766   8.801  14.897 -0.2747  0.1855  0.0170
70550SAP2   GL238789  28.691   8.606  14.711 -0.0463  0.2017  0.3560
70550SAP2   D1A38790  28.426   8.555  15.136 -0.3965 -0.2935 -0.0578
70550SAP2   D2A38791  28.430   8.349  15.551  0.2967 -0.0120 -0.0801
70550SAP2   D3A38792  28.057   8.006  15.577 -0.1321 -0.0447 -0.1534
70550SAP2   D4A38793  27.627   7.774  15.522  0.1438  0.1620  0.0335
70550SAP2   C5A38794  27.633   7.963  15.949 -0.0784  0.0187 -0.2175
70550SAP2   C1B38795  28.472   8.221  14.793  0.0998  0.1376  0.0319
70550SAP2   C2B38796  28.417   7.995  15.192 -0.0770 -0.2849 -0.0111
70550SAP2   C3B38797  28.414   7.656  15.547  0.1590  0.0882 -0.0187
70550SAP2   C4B38798  28.647   7.616  15.861 -0.0246  0.0702 -0.0754
70551SAP2    C138799  23.772   0.738  12.122  0.1428 -0.1393 -0.1566
70551SAP2    C238800  23.552   0.606  12.018  0.1562 -0.2630 -0.0289
70551SAP2    C338801  23.718   0.518  12.297  0.2902 -0.0957 -0.0547
70551SAP2    C438802  23.680   0.621  12.146  0.1985 -0.1041 -0.2616
70551SAP2   PO438803  23.667   1.076  12.113  0.1071  0.0638 -0.1084
70551SAP2    P438804  23.500   0.310  12.338 -0.1934  0.0264  0.1221
70551SAP2    P538805  23.379   0.347  11.952 -0.1837  0.1402  0.2864
70551SAP2   GL138806  23.900   1.335  12.384 -0.2139 -0.4772 -0.3945
70551SAP2   GL238807  23.988   1.538  12.202 -0.2802 -0.0633  0.1881
70551SAP2   D1A38808  23.512   1.163  12.603  0.1155  0.0640  0.0803
70551SAP2   D2A38809  23.689   1.294  13.040  0.0520 -0.3316  0.0991
70551SAP2   D3A38810  23.681   1.633  12.717 -0.1251  0.1879 -0.1770
70551SAP2   D4A38811  23.969   1.952  12.922 -0.0733  0.0214  0.1396
70551SAP2   C5A38812  24.166   1.442  12.865  0.4267 -0.2779 -0.1405
70551SAP2   C1B38813  24.245   1.784  12.504  0.1889  0.1522 -0.2088
70551SAP2   C2B38814  24.449   1.869  12.932  0.4253 -0.3177  0.1232
70551SAP2   C3B38815  24.691   1.865  13.286  0.0645  0.2694 -0.0350
70551SAP2   C4B38816  25.026   2.102  13.540 -0.0993  0.0386  0.2305
70552SAP2    C138817  28.838   1.052  12.348  0.0896  0.0161  0.0064
70552SAP2    C238818  28.740   0.818  12.238 -0.0501  0.2651 -0.4237
70552SAP2    C338819  29.065   0.887  12.288 -0.0049  0.0074 -0.3448
70552SAP2    C438820  28.881   0.919  12.292 -0.1481  0.1710 -0.0626
70552SAP2   PO438821  28.622   1.091  12.640 -0.0453  0.1094 -0.0589
70552SAP2    P438822  29.182   0.592  12.113  0.1368 -0.0393  0.1396
70552SAP2    P538823  28.753   0.562  12.160  0.4670 -0.3642  0.0359
70552SAP2   GL138824  28.595   1.373  12.470  0.4103  0.0972 -0.0599
70552SAP2   GL238825  28.780   1.562  12.470  0.3126  0.1193  0.2075
70552SAP2   D1A38826  28.378   1.484  12.829 -0.1953  0.4279 -0.0613
70552SAP2   D2A38827  28.494   1.723  13.241 -0.0146 -0.1738  0.3199
70552SAP2   D3A38828  28.842   2.008  13.231  0.1635 -0.1894 -0.2207
70552SAP2   D4A38829  28.888   1.603  12.940  0.2575  0.1933 -0.1426
70552SAP2   C5A38830  28.659   1.978  12.748  0.2020 -0.1038  0.0842
70552SAP2   C1B38831  28.724   1.989  12.272  0.5394 -0.1403  0.1107
70552SAP2   C2B38832  28.384   2.229  12.400  0.3602 -0.1998  0.0373
70552SAP2   C3B38833  28.158   2.501  12.676 -0.0133 -0.1463  0.3030
70552SAP2   C4B38834  27.832   2.680  12.892 -0.0129  0.3453 -0.4882
70553SAP2    C138835  19.217  13.025  16.189 -0.0322 -0.1980 -0.1140
70553SAP2    C238836  19.284  13.259  16.058  0.1343  0.0083  0.3220
70553SAP2    C338837  18.974  13.132  16.082  0.0561  0.1303  0.0039
70553SAP2    C438838  19.158  13.139  16.109  0.2079 -0.3877 -0.0468
70553SAP2   PO438839  19.369  13.023  16.497 -0.2617 -0.0747  0.1189
70553SAP2    P438840  18.782  13.342  15.903  0.2881  0.2783  0.0756
70553SAP2    P538841  19.281  13.332  15.755 -0.1909 -0.2922  0.5645
70553SAP2   GL138842  19.223  12.981  16.650  0.2879 -0.2448 -0.4222
70553SAP2   GL238843  19.069  12.956  16.890  0.0262  0.1066 -0.0443
70553SAP2   D1A38844  19.542  12.717  16.846 -0.1078 -0.2707  0.3149
70553SAP2   D2A38845  19.258  12.525  17.161 -0.0779  0.1337 -0.0971
70553SAP2   D3A38846  19.539  12.271  17.413  0.0087 -0.2305 -0.1006
70553SAP2   D4A38847  19.668  11.975  17.785  0.1294  0.0822  0.1165
70553SAP2   C5A38848  19.992  11.948  18.108  0.0055  0.2113 -0.0848
70553SAP2   C1B38849  19.219  13.037  17.287 -0.1030 -0.0621  0.0082
70553SAP2   C2B38850  19.531  13.147  17.669 -0.2033 -0.0273 -0.0172
70553SAP2   C3B38851  19.706  13.416  18.055  0.2365 -0.1293 -0.0067
70553SAP2   C4B38852  19.636  13.556  18.539 -0.0773 -0.2620 -0.0943
70554SAP2    C138853  24.825   5.189  15.722  0.0545  0.1029  0.0774
70554SAP2    C238854  24.879   4.921  15.764 -0.1238  0.0995  0.3060
70554SAP2    C338855  24.844   5.151  16.006  0.0569  0.3374  0.1106
70554SAP2    C438856  24.849   5.087  15.831  0.0405 -0.7238  0.2098
70554SAP2   PO438857  24.592   5.177  15.493  0.1362 -0.0627 -0.0009
70554SAP2    P438858  24.959   5.004  16.237  0.1717 -0.0606 -0.3330
70554SAP2    P538859  24.921   4.623  15.894  0.3964  0.1381  0.2452
70554SAP2   GL138860  24.353   5.037  15.362 -0.0764  0.0220 -0.0509
70554SAP2   GL238861  24.098   4.879  15.392 -0.4120 -0.0070  0.1810
70554SAP2   D1A38862  24.367   4.814  14.973 -0.0787  0.3271  0.2814
70554SAP2   D2A38863  23.979   5.087  14.944  0.0551 -0.0618 -0.0395
70554SAP2   D3A38864  23.767   5.138  14.553 -0.1360  0.0515 -0.1178
70554SAP2   D4A38865  23.452   5.064  14.201 -0.4174  0.0022 -0.0170
70554SAP2   C5A38866  23.560   5.296  13.832  0.2338 -0.3022  0.2508
70554SAP2   C1B38867  23.632   4.961  15.333  0.0601 -0.0338  0.0204
70554SAP2   C2B38868  23.200   4.904  15.415 -0.3186  0.0759  0.3202
70554SAP2   C3B38869  22.918   4.555  15.466 -0.1287  0.1812  0.0550
70554SAP2   C4B38870  22.644   4.177  15.595  0.0606 -0.1149 -0.2050
70555SAP2    C138871  19.055   2.324  20.460  0.0280 -0.0511 -0.0845
70555SAP2    C238872  19.275   2.161  20.504  0.0967  0.0926  0.1227
70555SAP2    C338873  18.954   2.067  20.536  0.1278 -0.0896 -0.0816
70555SAP2    C438874  19.095   2.184  20.500  0.0367  0.5677  0.1042
70555SAP2   PO438875  19.095   2.483  20.166 -0.2765 -0.2015  0.0405
70555SAP2    P438876  19.041   1.768  20.578 -0.1462  0.0411  0.0814
70555SAP2    P538877  19.404   2.088  20.735 -0.0127  0.2361 -0.0301
70555SAP2   GL138878  18.946   2.486  19.783  0.0060  0.4530  0.0143
70555SAP2   GL238879  19.050   2.295  19.705 -0.0527  0.1229 -0.2188
70555SAP2   D1A38880  19.140   2.755  19.462 -0.1450  0.0548 -0.1496
70555SAP2   D2A38881  19.471   2.476  19.226  0.2172  0.1568 -0.2679
70555SAP2   D3A38882  19.174   2.520  18.918  0.2049  0.0132  0.0933
70555SAP2   D4A38883  18.791   2.778  18.931  0.3367 -0.1952 -0.2567
70555SAP2   C5A38884  18.948   3.216  18.969  0.1771  0.0018  0.2195
70555SAP2   C1B38885  19.109   2.167  19.266  0.3670 -0.0057  0.1484
70555SAP2   C2B38886  19.136   1.711  19.104  0.1049  0.1030 -0.1113
70555SAP2   C3B38887  19.438   1.545  18.782  0.1546 -0.2325  0.2278
70555SAP2   C4B38888  19.420   1.400  18.327 -0.1803  0.0344  0.2225
70556SAP2    C138889  30.130   6.363  19.215 -0.0285  0.1453  0.1941
70556SAP2    C238890  30.045   6.106  19.269  0.1115  0.0280 -0.1173
70556SAP2    C338891  30.034   6.363  19.485 -0.1181 -0.2118  0.1670
70556SAP2    C438892  30.070   6.277  19.323 -0.1685 -0.2283  0.2152
70556SAP2   PO438893  29.996   6.479  18.916 -0.1082 -0.0880 -0.1121
70556SAP2    P438894  29.973   6.169  19.716 -0.1303  0.0910  0.0164
70556SAP2    P538895  30.236   5.801  19.355  0.0521 -0.1061  0.2838
70556SAP2   GL138896  30.030   6.715  18.775  0.0472 -0.0485 -0.0634
70556SAP2   GL238897  30.033   6.606  18.484 -0.1468 -0.2390  0.3473
70556SAP2   D1A38898  30.270   7.108  18.895 -0.0697 -0.0691  0.1135
70556SAP2   D2A38899  30.618   7.273  18.633  0.0245 -0.0536  0.1047
70556SAP2   D3A38900  30.552   7.453  19.010 -0.1326  0.0986  0.0762
70556SAP2   D4A38901  30.161   7.476  19.242 -0.2059  0.0008 -0.2140
70556SAP2   C5A38902  29.977   7.875  19.049  0.4701  0.0972  0.2766
70556SAP2   C1B38903  30.199   6.623  18.055  0.2689 -0.1684 -0.0537
70556SAP2   C2B38904  30.501   6.695  17.679  0.1135 -0.3026 -0.2263
70556SAP2   C3B38905  30.763   6.891  17.291 -0.2420  0.0771 -0.1697
70556SAP2   C4B38906  30.819   7.212  16.958 -0.1407 -0.2025 -0.0555
70557SAP2    C138907  18.421   5.963  20.611 -0.0090 -0.2007 -0.0291
70557SAP2    C238908  18.200   5.854  20.737 -0.2220  0.2033 -0.0389
70557SAP2    C338909  18.456   6.005  20.892  0.1063 -0.3472 -0.0203
70557SAP2    C438910  18.359   5.941  20.747 -0.5872 -0.0374  0.0301
70557SAP2   PO438911  18.361   6.130  20.328  0.0262  0.1377  0.0306
70557SAP2    P438912  18.426   6.023  21.212  0.3674  0.3194 -0.2614
70557SAP2    P538913  18.083   5.645  20.902  0.1926  0.1559  0.2073
70557SAP2   GL138914  18.452   6.037  20.057  1.0032 -0.0297  0.1745
70557SAP2   GL238915  18.675   5.964  19.885 -0.2097 -0.0985  0.2746
70557SAP2   D1A38916  18.739   6.443  20.125 -0.2437 -0.1951  0.2454
70557SAP2   D2A38917  18.580   6.689  19.851  0.1496  0.2483 -0.0045
70557SAP2   D3A38918  18.901   6.965  19.623 -0.0651 -0.0110  0.1928
70557SAP2   D4A38919  18.710   6.684  19.295 -0.0032 -0.1573 -0.1031
70557SAP2   C5A38920  18.319   6.677  19.451  0.1388 -0.1088  0.0330
70557SAP2   C1B38921  18.559   6.137  19.448 -0.0343 -0.1159 -0.0753
70557SAP2   C2B38922  18.477   6.319  18.997  0.1740 -0.2286 -0.2478
70557SAP2   C3B38923  18.326   6.312  18.568 -0.0676  0.3070  0.0874
70557SAP2   C4B38924  18.237   5.953  18.296 -0.1659 -0.1636 -0.1520
70558SAP2    C138925  18.889   5.430  20.308 -0.0997 -0.0212 -0.0855
70558SAP2    C238926  18.794   5.237  20.482 -0.0273  0.0451  0.0289
70558SAP2    C338927  18.961   5.514  20.572 -0.0027  0.0882 -0.1458
70558SAP2    C438928  18.881   5.394  20.454 -1.1155 -0.1889  0.3514
70558SAP2   PO438929  18.687   5.455  20.055  0.1974 -0.0109  0.2044
70558SAP2    P438930  18.984   5.495  20.921 -0.0991 -0.1591  0.0642
70558SAP2    P538931  18.844   5.040  20.685  0.0728 -0.0657 -0.3557
70558SAP2   GL138932  18.836   5.403  19.735 -0.1944 -0.1232 -0.1025
70558SAP2   GL238933  18.639   5.376  19.495  0.0601  0.1043 -0.1280
70558SAP2   D1A38934  19.073   5.677  19.419 -0.0113 -0.2106  0.1383
70558SAP2   D2A38935  18.811   5.905  19.100  0.2895 -0.0667 -0.0730
70558SAP2   D3A38936  19.084   5.888  18.750  0.1017 -0.0208  0.0111
70558SAP2   D4A38937  19.100   5.459  18.923  0.2081 -0.0573 -0.0547
70558SAP2   C5A38938  18.905   5.474  18.513  0.0457 -0.0752 -0.0472
70558SAP2   C1B38939  18.490   5.564  19.038  0.3636  0.2893 -0.3493
70558SAP2   C2B38940  18.546   5.835  18.689 -0.0772 -0.1046 -0.1092
70558SAP2   C3B38941  18.743   5.944  18.267 -0.4353  0.2131  0.2094
70558SAP2   C4B38942  18.950   5.830  17.874  0.0186 -0.1512  0.0099
70559SAP2    C138943  30.192   1.853  20.014  0.1854 -0.0333 -0.0191
70559SAP2    C238944  30.201   2.124  20.068  0.2493 -0.0372 -0.0097
70559SAP2    C338945  30.190   1.880  20.299  0.1279 -0.0407 -0.0188
70559SAP2    C438946  30.194   1.953  20.127 -0.0790 -0.5641 -0.2724
70559SAP2   PO438947  30.452   1.845  19.786  0.1000 -0.0756 -0.0318
70559SAP2    P438948  30.276   2.105  20.507 -0.1305  0.1403 -0.0210
70559SAP2    P538949  30.032   2.368  20.174  0.4016  0.0704 -0.2649
70559SAP2   GL138950  30.466   1.604  19.620  0.5210  0.1253  0.2679
70559SAP2   GL238951  30.575   1.573  19.366  0.3039 -0.1140  0.0655
70559SAP2   D1A38952  30.498   1.152  19.799 -0.0936 -0.0295  0.2738
70559SAP2   D2A38953  30.725   0.720  19.793  0.0830  0.0108  0.1916
70559SAP2   D3A38954  31.085   0.751  19.476  0.1385  0.1485  0.0452
70559SAP2   D4A38955  31.065   0.389  19.266 -0.0141  0.0878 -0.0424
70559SAP2   C5A38956  30.984   0.525  18.824  0.0111  0.0957  0.2457
70559SAP2   C1B38957  30.759   1.394  19.011  0.2061 -0.2215  0.0245
70559SAP2   C2B38958  30.695   1.158  18.600 -0.0476  0.0102 -0.1261
70559SAP2   C3B38959  30.861   0.874  18.337  0.0634  0.3543 -0.2206
70559SAP2   C4B38960  30.829   0.451  18.348  0.3247  0.3664 -0.0742
70560SAP2    C138961  23.542   3.282  18.164 -0.0964 -0.2928 -0.1201
70560SAP2    C238962  23.671   3.458  17.994 -0.0957 -0.2764 -0.1025
70560SAP2    C338963  23.787   3.355  18.292 -0.0984 -0.3032 -0.1107
70560SAP2    C438964  23.667   3.365  18.150 -0.2110 -0.1865 -0.2965
70560SAP2   PO438965  23.402   3.050  18.019  0.1896 -0.3138  0.0777
70560SAP2    P438966  24.093   3.467  18.244 -0.0903 -0.1890  0.1794
70560SAP2    P538967  23.845   3.761  17.930  0.3574 -0.1013 -0.1813
70560SAP2   GL138968  23.368   2.927  17.724  0.2146 -0.2858  0.2111
70560SAP2   GL238969  23.318   2.735  17.658  0.1071  0.0728 -0.2703
70560SAP2   D1A38970  22.953   3.195  17.893 -0.1606  0.0560  0.0255
70560SAP2   D2A38971  23.022   3.053  17.457 -0.1269  0.1488 -0.1425
70560SAP2   D3A38972  22.694   2.834  17.666 -0.0331 -0.1065  0.3146
70560SAP2   D4A38973  22.426   2.743  17.245 -0.1352  0.1157 -0.0778
70560SAP2   C5A38974  22.437   2.335  16.989 -0.2166  0.1254  0.0387
70560SAP2   C1B38975  23.302   2.805  17.217 -0.1522 -0.0709  0.1236
70560SAP2   C2B38976  23.135   3.189  16.990 -0.5014 -0.2538 -0.1560
70560SAP2   C3B38977  22.981   3.506  16.695 -0.1143 -0.2757 -0.0227
70560SAP2   C4B38978  22.897   3.522  16.232 -0.1698  0.1525  0.2822
70561SAP2    C138979  26.203   5.847  13.668 -0.1675 -0.0610 -0.1627
70561SAP2    C238980  26.399   5.651  13.668 -0.0297  0.0729  0.0402
70561SAP2    C338981  26.123   5.649  13.477  0.0085 -0.2770 -0.0182
70561SAP2    C438982  26.242   5.716  13.604 -0.5754 -0.2303 -0.0758
70561SAP2   PO438983  26.338   6.132  13.762  0.1450  0.0281  0.1435
70561SAP2    P438984  26.091   5.401  13.351 -0.1163 -0.0546 -0.0649
70561SAP2    P538985  26.420   5.377  13.728 -0.1482 -0.3356  0.1348
70561SAP2   GL138986  26.177   6.409  13.779 -0.2314 -0.5064 -0.0826
70561SAP2   GL238987  26.331   6.548  13.958  0.3200  0.0965 -0.0878
70561SAP2   D1A38988  25.824   6.695  13.655  0.1849 -0.2670 -0.0289
70561SAP2   D2A38989  25.957   7.110  13.432  0.2325 -0.0394  0.0883
70561SAP2   D3A38990  26.162   7.256  13.795  0.0537  0.1762  0.0819
70561SAP2   D4A38991  25.756   7.072  13.981 -0.2387 -0.1287 -0.1179
70561SAP2   C5A38992  25.398   7.171  13.716 -0.1885 -0.0034 -0.2100
70561SAP2   C1B38993  26.592   6.684  14.343 -0.2125  0.0638 -0.0675
70561SAP2   C2B38994  27.034   6.597  14.502 -0.2437  0.2193 -0.3256
70561SAP2   C3B38995  27.224   6.787  14.919  0.3489 -0.0071  0.2250
70561SAP2   C4B38996  27.113   6.946  15.335 -0.1065  0.3866  0.6095
70562SAP2    C138997  24.580  10.423  20.395 -0.1395  0.1740  0.3173
70562SAP2    C238998  24.849  10.484  20.424 -0.0039 -0.1181 -0.2024
70562SAP2    C338999  24.701  10.204  20.534 -0.0188 -0.1159 -0.2164
70562SAP2    C439000  24.710  10.370  20.451  0.2704  0.1356 -0.0556
70562SAP2   PO439001  24.519  10.470  20.029 -0.1796 -0.2066  0.3216
70562SAP2    P439002  24.912   9.997  20.642 -0.0283  0.0863  0.2716
70562SAP2    P539003  25.018  10.425  20.745  0.0668 -0.0523  0.2428
70562SAP2   GL139004  24.597  10.210  19.785  0.1161 -0.0506  0.0071
70562SAP2   GL239005  24.844  10.237  19.662  0.0487 -0.3032  0.1748
70562SAP2   D1A39006  24.424  10.442  19.411 -0.1427 -0.4984 -0.0656
70562SAP2   D2A39007  24.597  10.738  19.133 -0.0078  0.1400  0.0928
70562SAP2   D3A39008  24.397  11.133  19.073 -0.1635  0.2555 -0.1503
70562SAP2   D4A39009  24.380  11.142  18.674 -0.2093  0.0844 -0.1035
70562SAP2   C5A39010  24.590  10.679  18.595 -0.2185 -0.4999  0.0121
70562SAP2   C1B39011  25.265  10.214  19.417 -0.1996  0.2640  0.2530
70562SAP2   C2B39012  25.617  10.480  19.262 -0.0721  0.0616  0.0896
70562SAP2   C3B39013  25.751  10.966  19.199  0.1254 -0.1732 -0.0345
70562SAP2   C4B39014  25.716  11.433  19.200 -0.1061  0.1202 -0.0148
70563SAP2    C139015  25.133   5.417  15.025 -0.1470 -0.1502  0.2518
70563SAP2    C239016  25.231   5.168  15.097  0.0692 -0.2064 -0.1965
70563SAP2    C339017  25.407   5.454  15.100 -0.0059 -0.1596 -0.2219
70563SAP2    C439018  25.257   5.346  15.074  0.0289  0.1827 -0.6188
70563SAP2   PO439019  24.841   5.467  15.134 -0.1639  0.0340 -0.0319
70563SAP2    P439020  25.667   5.301  15.176  0.0046  0.1321  0.0204
70563SAP2    P539021  25.358   4.938  14.968 -0.0511  0.1129  0.0680
70563SAP2   GL139022  24.752   5.610  14.783 -0.0937 -0.3490 -0.1300
70563SAP2   GL239023  24.622   5.318  14.679 -0.0447  0.0865 -0.0765
70563SAP2   D1A39024  24.349   5.836  14.767 -0.2319 -0.2695 -0.0305
70563SAP2   D2A39025  24.097   5.998  15.149 -0.0515  0.1482  0.0838
70563SAP2   D3A39026  24.089   6.285  14.755 -0.0933 -0.1115  0.1647
70563SAP2   D4A39027  23.635   6.249  14.780 -0.0535 -0.5070 -0.1210
70563SAP2   C5A39028  23.540   5.900  15.072  0.0872 -0.3331 -0.0277
70563SAP2   C1B39029  24.268   5.276  14.396 -0.3804 -0.0882 -0.0164
70563SAP2   C2B39030  23.954   5.474  14.110 -0.0795 -0.3515 -0.3646
70563SAP2   C3B39031  23.877   5.741  13.811 -0.3182 -0.0656  0.1558
70563SAP2   C4B39032  23.921   6.100  13.520 -0.0322 -0.0349  0.3682
70564SAP2    C139033  29.547  32.596  20.480  0.2753 -0.0214 -0.1850
70564SAP2    C239034  29.755  32.697  20.632  0.2103 -0.0985 -0.0425
70564SAP2    C339035  29.671  32.373  20.609 -0.0870 -0.0397  0.1527
70564SAP2    C439036  29.658  32.555  20.574  0.3330 -0.0859  0.6855
70564SAP2   PO439037  29.573  32.800  20.201 -0.3654  0.0383  0.0932
70564SAP2    P439038  29.948  32.233  20.661 -0.2985 -0.2343  0.2502
70564SAP2    P539039  29.899  32.721  20.899 -0.2239  0.1384 -0.1840
70564SAP2   GL139040  29.479  32.652  19.914 -0.0643  0.1138 -0.1794
70564SAP2   GL239041  29.593  32.807  19.680 -0.3333 -0.1777  0.0539
70564SAP2   D1A39042  29.088  32.793  19.680 -0.3031 -0.1913  0.0435
70564SAP2   D2A39043  28.917  32.503  19.389  0.0009  0.3534 -0.1857
70564SAP2   D3A39044  29.137  32.820  19.148  0.1866 -0.0396  0.1029
70564SAP2   D4A39045  29.005  32.541  18.834  0.1001 -0.0444 -0.2240
70564SAP2   C5A39046  28.881  32.664  18.442 -0.2572  0.0428  0.1764
70564SAP2   C1B39047  29.870  32.552  19.462 -0.2570 -0.6294  0.0813
70564SAP2   C2B39048  29.963  32.434  19.015 -0.3349 -0.0080 -0.1046
70564SAP2   C3B39049  29.991  32.787  18.627  0.0016 -0.1180 -0.0134
70564SAP2   C4B39050  30.191  32.670  18.211 -0.1709  0.1433 -0.0330
70565SAP2    C139051  26.702   4.729  14.568  0.1350  0.1043  0.1361
70565SAP2    C239052  26.480   4.644  14.710  0.1290  0.1709  0.1670
70565SAP2    C339053  26.511   4.943  14.560  0.1509  0.1159  0.0616
70565SAP2    C439054  26.564   4.772  14.613  0.2602 -0.3432  0.4989
70565SAP2   PO439055  26.756   4.392  14.405 -0.1672 -0.4586 -0.0901
70565SAP2    P439056  26.299   5.099  14.615  0.0785  0.4426 -0.0705
70565SAP2    P539057  26.277   4.726  14.935 -0.1214 -0.1069 -0.0753
70565SAP2   GL139058  26.841   4.256  14.645  0.0712  0.0465  0.2162
70565SAP2   GL239059  26.654   3.977  14.594 -0.0976  0.0866  0.0124
70565SAP2   D1A39060  27.147   3.916  14.526  0.1781  0.0934  0.2660
70565SAP2   D2A39061  26.864   3.998  14.155 -0.0520 -0.0992 -0.0057
70565SAP2   D3A39062  27.122   3.660  14.129  0.0390 -0.0501  0.2538
70565SAP2   D4A39063  27.103   3.270  13.889  0.0757 -0.2086  0.2263
70565SAP2   C5A39064  27.427   3.207  14.153 -0.3890 -0.0615  0.0731
70565SAP2   C1B39065  26.701   3.589  14.358 -0.2513  0.2623  0.1122
70565SAP2   C2B39066  27.020   3.326  14.503 -0.2034  0.1090  0.1563
70565SAP2   C3B39067  27.372   2.984  14.633 -0.2278 -0.0281  0.1201
70565SAP2   C4B39068  27.366   2.583  14.813 -0.3114  0.4127  0.0415
70566SAP2    C139069  25.163   9.005  19.786  0.0230 -0.2028 -0.0811
70566SAP2    C239070  25.368   8.861  19.904 -0.0718 -0.1588  0.1407
70566SAP2    C339071  25.041   8.828  19.976 -0.0860  0.2537  0.2908
70566SAP2    C439072  25.190   8.898  19.889 -0.0758 -0.1046  0.8567
70566SAP2   PO439073  25.189   9.063  19.488 -0.1495  0.0606  0.3750
70566SAP2    P439074  25.022   8.593  20.171  0.0578  0.0131  0.0411
70566SAP2    P539075  25.456   8.896  20.196 -0.3737  0.0043 -0.0131
70566SAP2   GL139076  25.277   9.358  19.481  0.1421  0.1460 -0.2181
70566SAP2   GL239077  25.225   9.628  19.407  0.2319  0.3114 -0.1437
70566SAP2   D1A39078  25.699   9.560  19.462 -0.1953  0.2139 -0.2397
70566SAP2   D2A39079  26.015   9.950  19.595 -0.1142  0.1672 -0.0116
70566SAP2   D3A39080  26.347  10.171  19.875 -0.1149  0.1609 -0.2605
70566SAP2   D4A39081  26.697  10.104  19.572  0.3106  0.0794  0.0922
70566SAP2   C5A39082  26.481   9.947  19.159  0.1788  0.0424 -0.2071
70566SAP2   C1B39083  25.284   9.887  18.966 -0.0264 -0.1091  0.0846
70566SAP2   C2B39084  25.232  10.008  18.520 -0.0278 -0.1551 -0.0003
70566SAP2   C3B39085  25.196  10.241  18.101  0.0235  0.0179 -0.1285
70566SAP2   C4B39086  25.030  10.276  17.719  0.1027  0.0696 -0.0858
 2778POPC   NC371298  16.192  30.884   7.994  0.0070 -0.0921 -0.1583
 2778POPC   PO471299  16.529  30.729   8.104 -0.1711  0.0710 -0.0231
 2778POPC   GL171300  16.756  30.793   7.726 -0.1543 -0.4817  0.0180
 2778POPC   GL271301  16.535  30.916   7.611  0.1331  0.0652 -0.2209
 2778POPC   C1A71302  17.039  30.831   7.338 -0.0323 -0.2816 -0.1166
 2778POPC   D2A71303  17.284  30.936   6.918  0.0501  0.1589  0.0320
 2778POPC   C3A71304  17.040  31.001   6.503 -0.0611 -0.0676 -0.0683
 2778POPC   C4A71305  16.886  31.313   6.087  0.2601  0.0361  0.2423
 2778POPC   C1B71306  16.683  31.134   7.272  0.1874  0.0957 -0.2335
 2778POPC   C2B71307  16.843  31.163   6.902  0.1052  0.0161  0.0287
 2778POPC   C3B71308  16.699  31.376   6.538  0.1521 -0.0812  0.0923
 2778POPC   C4B71309  16.588  31.863   6.560 -0.0120 -0.3390 -0.3339
 2779POPC   NC371310  21.930  18.080  14.375 -0.1402 -0.1172 -0.1086
 2779POPC   PO471311  22.073  18.346  14.101 -0.0251 -0.2630  0.0239
 2779POPC   GL171312  22.248  18.495  14.317  0.0341  0.1428 -0.3944
 2779POPC   GL271313  22.138  18.486  14.625 -0.0424 -0.2864 -0.0773
 2779POPC   C1A71314  22.393  18.907  14.553 -0.0321 -0.0394 -0.0798
 2779POPC   D2A71315  22.692  19.237  14.371 -0.0518  0.2391 -0.1794
 2779POPC   C3A71316  22.965  19.388  14.682 -0.1570 -0.2114 -0.0187
 2779POPC   C4A71317  23.350  19.366  14.878  0.1912  0.1265  0.1606
 2779POPC   C1B71318  22.382  18.587  14.994  0.0376  0.2044  0.0606
 2779POPC   C2B71319  22.450  18.636  15.429 -0.0392  0.0943  0.2658
 2779POPC   C3B71320  22.401  18.818  15.828  0.2564  0.0877  0.0050
 2779POPC   C4B71321  22.219  18.911  16.242 -0.0143 -0.0260  0.0939
 2780POPC   NC371322  30.062  30.884   8.191  0.0161 -0.0137  0.1704
 2780POPC   PO471323  30.348  30.833   7.924  0.0152  0.2232  0.3647
 2780POPC   GL171324  30.348  30.776   7.580  0.0011  0.0268  0.0520
 2780POPC   GL271325  30.416  31.052   7.480 -0.1802 -0.1148 -0.1324
 2780POPC   C1A71326  30.420  30.704   7.143 -0.1837 -0.2029  0.1593
 2780POPC   D2A71327  30.299  30.520   6.755  0.2694 -0.0438 -0.0354
 2780POPC   C3A71328  30.552  30.304   6.419 -0.3100 -0.1015 -0.0097
 2780POPC   C4A71329  30.837  30.079   6.150  0.1745  0.1763  0.1022
 2780POPC   C1B71330  30.275  31.203   7.097 -0.1392  0.4001  0.2469
 2780POPC   C2B71331  30.058  31.421   6.796 -0.0542  0.0827  0.1296
 2780POPC   C3B71332  29.923  31.670   6.440 -0.0130  0.0673 -0.2087
 2780POPC   C4B71333  29.689  31.537   6.066 -0.0925  0.1836  0.2789
 2781POPC   NC371334  26.939  30.712   9.615 -0.1186 -0.2228 -0.0172
 2781POPC   PO471335  26.932  30.870   9.232 -0.1568  0.0066  0.0774
 2781POPC   GL171336  26.967  30.822   8.779 -0.0266  0.0136  0.0024
 2781POPC   GL271337  26.749  30.887   8.622  0.1302  0.0374  0.0808
 2781POPC   C1A71338  27.300  30.835   8.419 -0.0627  0.1374 -0.0111
 2781POPC   D2A71339  27.527  30.651   8.087 -0.0964 -0.1817 -0.0745
 2781POPC   C3A71340  27.350  30.767   7.704  0.2204  0.0291  0.0472
 2781POPC   C4A71341  27.152  31.112   7.439 -0.0045 -0.2315 -0.0403
 2781POPC   C1B71342  26.910  31.053   8.196  0.0470 -0.1205 -0.0893
 2781POPC   C2B71343  26.920  31.364   7.841  0.0603 -0.0122  0.1766
 2781POPC   C3B71344  26.972  31.562   7.496  0.2800  0.3125 -0.0349
 2781POPC   C4B71345  27.019  31.789   7.078 -0.0025 -0.1774 -0.3304
 2782POPC   NC371346  24.707  27.088  12.470 -0.2619  0.1239 -0.1406
 2782POPC   PO471347  24.964  26.806  12.514  0.1297 -0.1755  0.0756
 2782POPC   GL171348  24.946  26.402  12.445  0.0904 -0.0023  0.3770
 2782POPC   GL271349  25.162  26.282  12.618 -0.1583 -0.0805  0.1259
 2782POPC   C1A71350  25.124  26.077  12.118  0.0254 -0.0938 -0.1110
 2782POPC   D2A71351  25.315  25.703  11.940  0.2611  0.2079  0.1720
 2782POPC   C3A71352  25.378  25.734  11.520 -0.0030 -0.0296 -0.1571
 2782POPC   C4A71353  25.700  25.886  11.227  0.3139 -0.1366  0.5593
 2782POPC   C1B71354  25.387  25.914  12.779 -0.3144 -0.1471  0.2273
 2782POPC   C2B71355  25.440  25.461  12.658 -0.0775 -0.0879 -0.0440
 2782POPC   C3B71356  25.513  25.089  12.524  0.0299  0.1862 -0.0161
 2782POPC   C4B71357  25.684  24.673  12.542  0.3415  0.2939 -0.0197
 2783POPC   NC371358  30.457  31.582   8.341  0.2997 -0.1849 -0.0396
 2783POPC   PO471359  30.191  31.333   8.212  0.1926 -0.0947  0.0734
 2783POPC   GL171360  30.092  31.186   7.768 -0.3241  0.1085 -0.0009
 2783POPC   GL271361  30.078  31.423   7.595  0.4211  0.1284 -0.2421
 2783POPC   C1A71362  29.917  30.973   7.417  0.1213 -0.4171 -0.0830
 2783POPC   D2A71363  29.704  31.097   7.034 -0.3463  0.0692  0.0413
 2783POPC   C3A71364  29.812  30.906   6.606  0.1425 -0.2113 -0.3113
 2783POPC   C4A71365  29.981  31.212   6.281 -0.3049  0.1706  0.0193
 2783POPC   C1B71366  29.743  31.593   7.287 -0.0409 -0.0698  0.0693
 2783POPC   C2B71367  29.553  31.725   6.854  0.2459 -0.3132 -0.0806
 2783POPC   C3B71368  29.352  31.882   6.445 -0.2000 -0.2891  0.0981
 2783POPC   C4B71369  29.053  32.152   6.295 -0.0862  0.0483  0.1057
 2784POPC   NC371370  31.748  28.013   8.509 -0.1284  0.0142  0.0737
 2784POPC   PO471371  31.968  27.879   8.801  0.2305  0.0385 -0.0508
 2784POPC   GL171372  31.963  27.619   8.539 -0.3130  0.1148 -0.0171
 2784POPC   GL271373  32.062  27.371   8.471  0.0461 -0.1593  0.0494
 2784POPC   C1A71374  31.626  27.597   8.248 -0.0463  0.1566 -0.1397
 2784POPC   D2A71375  31.209  27.373   8.111  0.1346  0.0642  0.0380
 2784POPC   C3A71376  31.340  27.189   7.671 -0.0777 -0.2335  0.1250
 2784POPC   C4A71377  31.204  27.143   7.294  0.1542  0.1270  0.0366
 2784POPC   C1B71378  32.004  27.113   8.151 -0.1904 -0.0779 -0.2918
 2784POPC   C2B71379  31.893  26.976   7.735 -0.1302  0.0738 -0.3279
 2784POPC   C3B71380  31.946  26.800   7.334  0.0498  0.0293 -0.0303
 2784POPC   C4B71381  32.011  26.638   6.940 -0.0454  0.1417 -0.0757
 2785POPC   NC371382  19.307  28.576   7.950  0.1420  0.0118  0.1836
 2785POPC   PO471383  19.607  28.818   7.889 -0.2962  0.1526  0.5718
 2785POPC   GL171384  19.873  28.810   7.557 -0.3610 -0.1388  0.1026
 2785POPC   GL271385  19.715  28.982   7.397 -0.0339  0.0934  0.3538
 2785POPC   C1A71386  20.069  28.666   7.154  0.0543  0.2187  0.1613
 2785POPC   D2A71387  20.099  28.545   6.743 -0.1859  0.2276  0.0060
 2785POPC   C3A71388  20.445  28.444   6.443  0.1248 -0.1399 -0.3567
 2785POPC   C4A71389  20.617  28.014   6.413  0.1289  0.2020  0.0798
 2785POPC   C1B71390  19.473  28.892   7.015 -0.2193  0.1268  0.3850
 2785POPC   C2B71391  19.102  28.858   6.729  0.0871 -0.1178 -0.1271
 2785POPC   C3B71392  18.804  28.668   6.376  0.1434  0.0123  0.1253
 2785POPC   C4B71393  18.457  28.570   6.121  0.1825 -0.0354 -0.2105
 2786POPC   NC371394  24.676  17.506  10.371 -0.2626  0.2799 -0.0955
 2786POPC   PO471395  24.918  17.635  10.644 -0.1969  0.0317 -0.0447
 2786POPC   GL171396  25.000  17.803  10.270  0.1329 -0.5148  0.4707
 2786POPC   GL271397  25.263  17.910  10.204  0.2431 -0.2142  0.2365
 2786POPC   C1A71398  24.863  18.069   9.868  0.1045 -0.1369  0.1037
 2786POPC   D2A71399  25.013  18.494   9.711  0.0122  0.0081  0.2094
 2786POPC   C3A71400  24.905  18.395   9.318 -0.1532 -0.0803 -0.0769
 2786POPC   C4A71401  24.884  18.532   8.858  0.1123 -0.0288 -0.2421
 2786POPC   C1B71402  25.377  18.329  10.005  0.0944  0.1546 -0.0575
 2786POPC   C2B71403  25.344  18.778  10.108  0.0191  0.1037 -0.3390
 2786POPC   C3B71404  25.271  19.207  10.003  0.0009  0.2371 -0.0064
 2786POPC   C4B71405  25.484  19.607  10.038  0.1905 -0.0105  0.0126
 2787POPC   NC371406  30.643  27.804   8.692 -0.0288  0.3496 -0.2189
 2787POPC   PO471407  30.422  27.912   9.003  0.2442 -0.0078 -0.1081
 2787POPC   GL171408  30.141  27.651   8.780 -0.1329  0.1729  0.1940
 2787POPC   GL271409  29.838  27.836   8.710 -0.1346  0.2194  0.0415
 2787POPC   C1A71410  30.185  27.662   8.351  0.3259  0.0825  0.0043
 2787POPC   D2A71411  29.978  27.561   7.944  0.1762 -0.0869 -0.0573
 2787POPC   C3A71412  29.618  27.442   7.684  0.0532 -0.0880  0.1161
 2787POPC   C4A71413  29.165  27.240   7.713  0.0151 -0.1818  0.0129
 2787POPC   C1B71414  29.537  27.550   8.538 -0.1820 -0.1189 -0.3587
 2787POPC   C2B71415  29.557  27.296   8.160  0.2349 -0.1091  0.0881
 2787POPC   C3B71416  29.536  26.969   7.917 -0.0931  0.4797  0.2118
 2787POPC   C4B71417  29.347  26.533   7.783 -0.2011 -0.3185 -0.0237
 2788POPC   NC371418  19.484  27.622   8.160  0.1988  0.0009 -0.0510
 2788POPC   PO471419  19.446  27.259   8.183 -0.0382  0.1616 -0.3004
 2788POPC   GL171420  19.734  27.289   7.939  0.1545  0.1169  0.0762
 2788POPC   GL271421  19.817  27.497   7.711  0.3216  0.1050  0.1659
 2788POPC   C1A71422  19.819  26.999   7.572 -0.0678 -0.1326  0.1803
 2788POPC   D2A71423  19.611  26.723   7.281 -0.0518 -0.2887  0.0519
 2788POPC   C3A71424  19.433  26.733   6.843  0.0272 -0.0787  0.0244
 2788POPC   C4A71425  19.387  26.895   6.406  0.0431  0.0150 -0.2531
 2788POPC   C1B71426  20.167  27.463   7.408 -0.0718 -0.2038  0.1888
 2788POPC   C2B71427  20.118  27.245   7.065  0.2579  0.1240  0.1803
 2788POPC   C3B71428  20.170  27.296   6.638 -0.3805  0.0794 -0.0665
 2788POPC   C4B71429  20.410  27.007   6.428  0.1114  0.1380  0.2327
 2789POPC   NC371430  30.245  30.058   8.344  0.1316 -0.2218 -0.0607
 2789POPC   PO471431  30.618  30.141   8.347 -0.0151  0.0296 -0.1708
 2789POPC   GL171432  30.638  30.155   7.983 -0.0753 -0.5233 -0.3360
 2789POPC   GL271433  30.526  30.356   7.821  0.3065 -0.0348  0.0957
 2789POPC   C1A71434  30.673  29.909   7.599 -0.2644  0.0627 -0.2358
 2789POPC   D2A71435  30.688  29.504   7.444  0.4740 -0.0933  0.1345
 2789POPC   C3A71436  30.303  29.513   7.127  0.0462 -0.1251 -0.0406
 2789POPC   C4A71437  30.178  29.345   6.744 -0.0891  0.2485 -0.1592
 2789POPC   C1B71438  30.458  30.274   7.346  0.1081 -0.0243 -0.2373
 2789POPC   C2B71439  30.514  29.992   7.026 -0.0855 -0.0678 -0.1123
 2789POPC   C3B71440  30.259  29.836   6.630 -0.3056 -0.0544 -0.2480
 2789POPC   C4B71441  30.289  29.831   6.182  0.2458 -0.2612  0.0860
 2790POPC   NC371442  18.647  31.046   8.140 -0.0912 -0.0524 -0.0917
 2790POPC   PO471443  18.401  30.753   8.233 -0.3236 -0.1000 -0.0173
 2790POPC   GL171444  18.293  30.687   7.882 -0.3033 -0.3308 -0.1083
 2790POPC   GL271445  18.186  30.376   7.785  0.0262  0.1931  0.3236
 2790POPC   C1A71446  18.609  30.925   7.602  0.0831  0.0318  0.0484
 2790POPC   D2A71447  18.724  31.025   7.156  0.0079  0.1978 -0.0966
 2790POPC   C3A71448  18.293  31.140   6.914 -0.2859 -0.0431  0.2624
 2790POPC   C4A71449  18.001  30.897   6.574 -0.0463 -0.2150 -0.1797
 2790POPC   C1B71450  18.026  30.241   7.375 -0.1375 -0.0479  0.1515
 2790POPC   C2B71451  17.741  30.208   6.989 -0.0377  0.2021  0.2577
 2790POPC   C3B71452  17.635  30.147   6.521 -0.3575 -0.2102  0.1563
 2790POPC   C4B71453  17.343  30.004   6.196  0.1272 -0.0371 -0.3657
 2791POPC   NC371454  19.331  16.247   8.184 -0.3247  0.2098 -0.1116
 2791POPC   PO471455  19.650  16.085   8.402  0.2977 -0.1509  0.1595
 2791POPC   GL171456  19.731  16.032   8.042 -0.0639 -0.3270 -0.1485
 2791POPC   GL271457  19.991  16.069   8.030  0.4326 -0.1317  0.1901
 2791POPC   C1A71458  19.612  16.411   7.811  0.1416 -0.0288 -0.1261
 2791POPC   D2A71459  19.529  16.427   7.376 -0.0627 -0.1911  0.2355
 2791POPC   C3A71460  19.610  16.495   6.937  0.0848 -0.0414 -0.1480
 2791POPC   C4A71461  19.818  16.851   6.779  0.1796  0.0503  0.0839
 2791POPC   C1B71462  20.175  15.697   7.879 -0.3471 -0.3907 -0.0135
 2791POPC   C2B71463  20.257  15.544   7.442 -0.0891  0.0640  0.0738
 2791POPC   C3B71464  20.385  15.474   7.003 -0.2304 -0.1251 -0.1396
 2791POPC   C4B71465  20.594  15.491   6.589 -0.1264  0.1126  0.1143
 2792POPC   NC371466  25.332  17.277  10.862  0.2996  0.0932 -0.1434
 2792POPC   PO471467  25.288  17.691  11.017 -0.0503 -0.2978  0.1714
 2792POPC   GL171468  25.317  18.096  10.941  0.1566 -0.1329  0.3449
 2792POPC   GL271469  25.461  18.306  10.996  0.0515  0.1693  0.2885
 2792POPC   C1A71470  25.235  18.285  10.485 -0.1135  0.0003 -0.0579
 2792POPC   D2A71471  24.909  18.410  10.180 -0.1654  0.2698  0.2057
 2792POPC   C3A71472  24.747  18.799  10.049 -0.3096  0.0943 -0.1175
 2792POPC   C4A71473  24.886  19.003   9.713 -0.1528  0.1529 -0.1749
 2792POPC   C1B71474  25.407  18.676  11.212  0.0742 -0.1082  0.1450
 2792POPC   C2B71475  25.522  18.983  11.536 -0.1329 -0.0134 -0.2248
 2792POPC   C3B71476  25.596  19.429  11.496  0.1602  0.0157 -0.1672
 2792POPC   C4B71477  25.489  19.867  11.478  0.0213  0.1766  0.2401
 2793POPC   NC371478  31.926  19.187  14.804 -0.2391  0.2652 -0.1678
 2793POPC   PO471479  31.828  19.056  15.132  0.2264  0.0206  0.1674
 2793POPC   GL171480  31.676  18.882  15.444 -0.1159 -0.3228  0.3519
 2793POPC   GL271481  31.451  19.009  15.539  0.1443  0.0178  0.2421
 2793POPC   C1A71482  31.531  18.544  15.738  0.0735 -0.2482 -0.1384
 2793POPC   D2A71483  31.281  18.378  16.056 -0.3207 -0.2010 -0.2445
 2793POPC   C3A71484  31.118  18.547  16.416  0.3174  0.1178 -0.0204
 2793POPC   C4A71485  30.846  18.854  16.642  0.4139  0.0648 -0.0189
 2793POPC   C1B71486  31.507  19.011  15.956  0.0929  0.0096  0.0410
 2793POPC   C2B71487  31.504  18.794  16.336 -0.0932 -0.0188  0.0087
 2793POPC   C3B71488  31.494  18.535  16.687  0.0719  0.2583 -0.2425
 2793POPC   C4B71489  31.236  18.285  16.936 -0.1299 -0.1274 -0.0053
 2794POPC   NC371490  27.437   0.681   9.275 -0.0291 -0.0354 -0.1404
 2794POPC   PO471491  27.137   0.652   9.564  0.0438  0.1351 -0.1007
 2794POPC   GL171492  27.042   0.891   9.217  0.1030  0.0336  0.1409
 2794POPC   GL271493  26.888   1.127   9.361 -0.1909 -0.1176  0.0436
 2794POPC   C1A71494  26.688   0.868   8.903  0.3429  0.1143 -0.0524
 2794POPC   D2A71495  26.473   0.905   8.519 -0.0434 -0.1202  0.2378
 2794POPC   C3A71496  26.745   0.928   8.181  0.0286 -0.0202  0.4788
 2794POPC   C4A71497  26.990   1.218   7.847 -0.0105  0.1749  0.0397
 2794POPC   C1B71498  26.747   1.446   9.049  0.1633  0.0740  0.4095
 2794POPC   C2B71499  26.837   1.792   8.774  0.1849 -0.3692  0.1246
 2794POPC   C3B71500  26.623   2.013   8.395  0.1561 -0.0949 -0.1716
 2794POPC   C4B71501  26.645   2.127   7.973 -0.0710 -0.0936  0.0146
 2795POPC   NC371502  19.060  21.427   9.441  0.3804  0.0818  0.2323
 2795POPC   PO471503  18.957  21.775   9.289  0.0952 -0.0142 -0.1573
 2795POPC   GL171504  19.139  21.620   9.010 -0.2451  0.3040  0.0094
 2795POPC   GL271505  19.458  21.660   9.032 -0.1041 -0.3717  0.1608
 2795POPC   C1A71506  19.258  21.791   8.600  0.1803  0.0253  0.1102
 2795POPC   D2A71507  19.343  21.655   8.178  0.1768 -0.1233 -0.0841
 2795POPC   C3A71508  19.246  21.908   7.801 -0.1187 -0.4950  0.1208
 2795POPC   C4A71509  19.526  22.108   7.460 -0.3587 -0.0522 -0.0643
 2795POPC   C1B71510  19.661  21.474   8.682  0.1525  0.0541 -0.1164
 2795POPC   C2B71511  19.800  21.229   8.300  0.1819 -0.1743 -0.2487
 2795POPC   C3B71512  19.885  21.399   7.927 -0.1199  0.1919  0.1824
 2795POPC   C4B71513  19.809  21.736   7.688 -0.0846 -0.3232  0.1073
 2796POPC   NC371514  29.167  28.967   8.793  0.4021 -0.0679 -0.1448
 2796POPC   PO471515  29.176  29.389   8.735 -0.1312  0.2589 -0.0836
 2796POPC   GL171516  29.421  29.200   8.451  0.1957  0.4422  0.1793
 2796POPC   GL271517  29.397  29.374   8.229 -0.0549  0.0421  0.2385
 2796POPC   C1A71518  29.124  28.888   8.241  0.3173 -0.1473 -0.1793
 2796POPC   D2A71519  28.697  28.678   8.137 -0.2538  0.4942  0.2399
 2796POPC   C3A71520  28.442  28.415   7.829  0.0042 -0.1709 -0.1282
 2796POPC   C4A71521  28.505  28.244   7.427  0.1698  0.2369  0.2068
 2796POPC   C1B71522  29.126  29.341   7.832  0.0679  0.0184 -0.0487
 2796POPC   C2B71523  28.823  29.397   7.463  0.0748 -0.0887  0.0344
 2796POPC   C3B71524  28.605  29.246   7.053 -0.0060  0.3539  0.2482
 2796POPC   C4B71525  28.251  29.031   6.822 -0.0662 -0.0852 -0.0436
 2797POPC   NC371526  21.004  22.035  10.653 -0.0652 -0.2675 -0.1222
 2797POPC   PO471527  20.993  21.680  10.465  0.0867 -0.2360  0.0486
 2797POPC   GL171528  21.260  21.819  10.322  0.0033  0.3624  0.1155
 2797POPC   GL271529  21.342  21.630  10.045 -0.3217  0.0521 -0.2470
 2797POPC   C1A71530  21.427  22.124   9.959 -0.4107  0.1449  0.0670
 2797POPC   D2A71531  21.669  22.308   9.717  0.0187 -0.2974  0.0555
 2797POPC   C3A71532  21.889  22.703   9.560  0.0072 -0.1655 -0.0446
 2797POPC   C4A71533  22.260  22.808   9.229 -0.1976 -0.0492 -0.2110
 2797POPC   C1B71534  21.721  21.400   9.834 -0.0597  0.1473  0.2990
 2797POPC   C2B71535  21.978  21.323   9.469  0.1043 -0.0302 -0.1662
 2797POPC   C3B71536  21.972  21.406   9.009  0.0712  0.1424 -0.0432
 2797POPC   C4B71537  21.954  21.531   8.529  0.1938  0.2963 -0.0731
 2798POPC   NC371538  31.939  21.848  10.019 -0.0584  0.0961  0.4081
 2798POPC   PO471539  31.613  21.629   9.975 -0.0807  0.0563 -0.0164
 2798POPC   GL171540  31.293  21.743   9.790 -0.3389  0.3918  0.1429
 2798POPC   GL271541  31.140  21.910   9.953  0.1351 -0.2514 -0.1066
 2798POPC   C1A71542  31.231  21.899   9.365  0.0490  0.1097 -0.1915
 2798POPC   D2A71543  31.084  22.185   9.010  0.1555  0.0071  0.0787
 2798POPC   C3A71544  30.860  22.382   8.638 -0.0008  0.0658 -0.2284
 2798POPC   C4A71545  30.683  22.652   8.306  0.0310  0.2039 -0.2934
 2798POPC   C1B71546  30.804  22.185   9.784  0.2158  0.0474 -0.1846
 2798POPC   C2B71547  30.335  22.286   9.614 -0.2363 -0.1978 -0.2166
 2798POPC   C3B71548  29.963  22.482   9.396 -0.0402  0.0749 -0.2292
 2798POPC   C4B71549  29.564  22.627   9.533 -0.2118 -0.1227  0.2018
 2799POPC   NC371550   0.394  20.899  15.788  0.1321 -0.2311  0.0689
 2799POPC   PO471551   0.340  21.282  15.903 -0.0259 -0.1686  0.1389
 2799POPC   GL171552   0.394  21.098  16.260 -0.2397 -0.1111  0.2160
 2799POPC   GL271553   0.469  20.869  16.344  0.2239 -0.0040 -0.0836
 2799POPC   C1A71554   0.122  21.102  16.674  0.0521 -0.3107 -0.0777
 2799POPC   D2A71555   0.208  21.124  17.119 -0.0214 -0.0610  0.1370
 2799POPC   C3A71556   0.131  21.108  17.584  0.1756 -0.3515 -0.2052
 2799POPC   C4A71557   0.017  21.406  17.901  0.0711  0.1615  0.1144
 2799POPC   C1B71558   0.345  20.627  16.737 -0.0997 -0.1209 -0.3248
 2799POPC   C2B71559   0.162  20.553  17.137 -0.1223  0.3495  0.0114
 2799POPC   C3B71560  -0.091  20.692  17.545 -0.0617  0.3232 -0.1323
 2799POPC   C4B71561  -0.409  21.071  17.629 -0.0300 -0.0820  0.1501
 2800POPC   NC371562  30.213  19.191  10.555 -0.2556 -0.1382 -0.0792
 2800POPC   PO471563  30.564  19.384  10.545  0.2993  0.0612  0.0057
 2800POPC   GL171564  30.225  19.720  10.599  0.1832 -0.5591 -0.3060
 2800POPC   GL271565  30.393  19.836  10.728  0.2865  0.3005 -0.0759
 2800POPC   C1A71566  29.971  19.970  10.348 -0.1448 -0.1153 -0.3769
 2800POPC   D2A71567  29.762  20.230  10.057  0.0944  0.1874  0.1282
 2800POPC   C3A71568  29.901  20.204   9.599  0.0654 -0.3247 -0.1922
 2800POPC   C4A71569  29.743  20.119   9.146  0.0053  0.0572 -0.1483
 2800POPC   C1B71570  30.043  20.140  10.856 -0.0253 -0.1580  0.5049
 2800POPC   C2B71571  29.636  20.282  10.611 -0.1771 -0.1456 -0.1386
 2800POPC   C3B71572  29.368  20.502  10.257 -0.2865 -0.1455 -0.2478
 2800POPC   C4B71573  29.042  20.824  10.264  0.0146 -0.1752  0.1482
 2801POPC   NC371574  21.627  18.064   9.880 -0.0124  0.1882  0.2642
 2801POPC   PO471575  21.957  17.944   9.676  0.1988  0.1848 -0.2835
 2801POPC   GL171576  22.019  17.909   9.381 -0.2132 -0.8634 -0.3917
 2801POPC   GL271577  21.806  17.700   9.287  0.2066 -0.1375  0.1203
 2801POPC   C1A71578  22.347  18.183   9.224 -0.2102 -0.1502 -0.0976
 2801POPC   D2A71579  22.756  18.177   9.000  0.0030 -0.0002 -0.0831
 2801POPC   C3A71580  22.774  18.443   8.645 -0.0684  0.2563  0.2273
 2801POPC   C4A71581  22.858  18.625   8.254  0.1500  0.0477 -0.1923
 2801POPC   C1B71582  21.906  18.050   8.990 -0.0859 -0.0689 -0.3661
 2801POPC   C2B71583  21.959  18.242   8.598  0.2110 -0.1012 -0.2243
 2801POPC   C3B71584  21.962  18.257   8.097 -0.1210 -0.1227  0.1164
 2801POPC   C4B71585  22.110  18.527   7.804 -0.1655  0.1372  0.1334
 2802POPC   NC371586   0.782  25.076   9.036 -0.0453 -0.1091  0.2961
 2802POPC   PO471587   1.024  24.802   9.182  0.0707  0.0411 -0.1041
 2802POPC   GL171588   0.939  24.666   8.892 -0.1513  0.2288 -0.3426
 2802POPC   GL271589   0.685  24.648   8.811  0.1003  0.0656  0.0839
 2802POPC   C1A71590   1.095  24.416   8.585  0.3477  0.1640 -0.1912
 2802POPC   D2A71591   1.270  24.144   8.249  0.1799 -0.2432  0.1121
 2802POPC   C3A71592   1.279  24.076   7.795 -0.2657  0.0529 -0.1395
 2802POPC   C4A71593   1.021  23.905   7.334 -0.2954  0.2282  0.1928
 2802POPC   C1B71594   0.341  24.600   8.557 -0.2947 -0.1751  0.1008
 2802POPC   C2B71595   0.349  24.756   8.111  0.2641 -0.1298 -0.3496
 2802POPC   C3B71596   0.374  24.858   7.663  0.0459  0.0823 -0.0766
 2802POPC   C4B71597   0.574  24.787   7.249  0.0487  0.0626  0.1857
 2803POPC   NC371598  32.487  21.417   9.646  0.1373 -0.1729 -0.1980
 2803POPC   PO471599  32.216  21.656   9.575  0.0811 -0.3221 -0.0344
 2803POPC   GL171600  32.294  21.670   9.183  0.5540 -0.1403  0.4649
 2803POPC   GL271601  32.437  21.487   8.982 -0.0487 -0.0441 -0.4429
 2803POPC   C1A71602  31.933  21.666   8.897  0.1873  0.1042  0.1381
 2803POPC   D2A71603  31.642  21.541   8.578  0.1601  0.0113  0.1940
 2803POPC   C3A71604  31.423  21.608   8.183  0.2651  0.1874  0.0802
 2803POPC   C4A71605  31.178  21.935   8.003  0.2607  0.2959 -0.0619
 2803POPC   C1B71606  32.093  21.238   8.681 -0.2976 -0.0430  0.0459
 2803POPC   C2B71607  31.891  21.108   8.279  0.0618 -0.1094 -0.2141
 2803POPC   C3B71608  31.794  21.266   7.878  0.1302  0.0455  0.2693
 2803POPC   C4B71609  31.638  21.672   7.706 -0.0163  0.1856 -0.0534
 2804POPC   NC371610  19.481  22.706  15.471  0.1799  0.1144  0.1608
 2804POPC   PO471611  19.765  22.910  15.474 -0.3256  0.2983  0.0712
 2804POPC   GL171612  19.857  22.677  15.790  0.0628 -0.3715 -0.0886
 2804POPC   GL271613  20.102  22.661  15.776  0.0632 -0.1854  0.1999
 2804POPC   C1A71614  19.924  22.392  16.149 -0.1714  0.0610 -0.2706
 2804POPC   D2A71615  19.785  22.062  16.482 -0.1384 -0.0560  0.1333
 2804POPC   C3A71616  19.674  22.343  16.846 -0.0369 -0.1426  0.4026
 2804POPC   C4A71617  19.593  22.282  17.281 -0.0577 -0.2047 -0.0548
 2804POPC   C1B71618  20.176  22.781  16.231 -0.1028 -0.0572  0.0254
 2804POPC   C2B71619  20.357  22.870  16.659  0.1360 -0.1294  0.0754
 2804POPC   C3B71620  20.377  22.651  17.032  0.0395 -0.3469 -0.2474
 2804POPC   C4B71621  20.691  22.302  17.173  0.2356 -0.1108 -0.0128
 2805POPC   NC371622  18.983  26.918   8.137 -0.1607  0.1058  0.0511
 2805POPC   PO471623  19.180  26.836   8.483 -0.1437 -0.2638  0.0238
 2805POPC   GL171624  19.367  26.699   8.232 -0.1904 -0.1824  0.0806
 2805POPC   GL271625  19.457  26.780   7.925 -0.0914  0.0019 -0.3517
 2805POPC   C1A71626  19.295  26.278   8.015  0.2374  0.2774 -0.0299
 2805POPC   D2A71627  19.018  25.927   7.831 -0.0470  0.0528 -0.2155
 2805POPC   C3A71628  18.952  25.905   7.396  0.1689 -0.1631  0.0954
 2805POPC   C4A71629  18.909  25.776   7.004 -0.0635 -0.1916  0.0943
 2805POPC   C1B71630  19.665  26.330   7.715 -0.1193 -0.0064  0.0914
 2805POPC   C2B71631  19.819  26.228   7.256  0.2726  0.0869  0.0762
 2805POPC   C3B71632  19.687  26.332   6.824  0.1824 -0.0957  0.0638
 2805POPC   C4B71633  19.447  26.392   6.434 -0.1475 -0.0681 -0.2209
 2806POPC   NC371634  22.342  29.177   8.659  0.2497 -0.3457  0.0112
 2806POPC   PO471635  22.630  29.402   8.616 -0.0113  0.1699 -0.0289
 2806POPC   GL171636  22.898  29.167   8.361  0.0111 -0.2253 -0.1944
 2806POPC   GL271637  23.037  29.411   8.350  0.0101  0.2099 -0.0693
 2806POPC   C1A71638  22.932  29.133   7.878 -0.2506 -0.3666 -0.1707
 2806POPC   D2A71639  23.212  28.973   7.530  0.2085  0.0376 -0.1440
 2806POPC   C3A71640  23.067  28.606   7.241 -0.0146  0.0050 -0.3154
 2806POPC   C4A71641  23.178  28.353   6.924 -0.1247 -0.0825 -0.0029
 2806POPC   C1B71642  23.361  29.278   8.024  0.0377  0.1989  0.1388
 2806POPC   C2B71643  23.655  29.257   7.612  0.1079  0.1243 -0.0265
 2806POPC   C3B71644  24.025  29.122   7.386  0.2009 -0.1990 -0.1096
 2806POPC   C4B71645  24.480  29.219   7.413  0.3169 -0.1520  0.0791
 2807POPC   NC371646  19.144  19.661   9.172 -0.2473  0.2315  0.0641
 2807POPC   PO471647  19.279  20.000   9.269  0.2732  0.0764  0.2097
 2807POPC   GL171648  19.149  20.224   8.962  0.0374  0.2853  0.1451
 2807POPC   GL271649  18.872  20.104   8.831  0.0433  0.0270  0.2229
 2807POPC   C1A71650  19.108  20.396   8.511 -0.0891  0.3273 -0.0567
 2807POPC   D2A71651  19.212  20.228   8.102  0.2356  0.2437 -0.0088
 2807POPC   C3A71652  19.655  20.280   7.918 -0.3987 -0.1472 -0.1301
 2807POPC   C4A71653  19.961  20.273   7.593 -0.2418 -0.0976 -0.1138
 2807POPC   C1B71654  18.915  19.983   8.380 -0.1863 -0.0027 -0.2116
 2807POPC   C2B71655  18.738  20.077   7.919 -0.3495 -0.1890 -0.1645
 2807POPC   C3B71656  18.859  20.303   7.564  0.1918 -0.3277 -0.1872
 2807POPC   C4B71657  19.333  20.375   7.467  0.1482  0.3314  0.1247
 2808POPC   NC371658  29.513  31.610   8.417 -0.1253 -0.1628 -0.1780
 2808POPC   PO471659  29.508  31.913   8.254  0.0326 -0.2439  0.2083
 2808POPC   GL171660  29.335  31.796   7.915  0.2719 -0.0934  0.1478
 2808POPC   GL271661  29.504  31.993   7.656 -0.0492 -0.5240 -0.3717
 2808POPC   C1A71662  29.015  31.879   7.503 -0.1608  0.2046  0.0593
 2808POPC   D2A71663  29.094  31.837   7.050  0.2228 -0.2244 -0.2110
 2808POPC   C3A71664  29.046  32.214   6.774  0.0663  0.0677 -0.0017
 2808POPC   C4A71665  28.920  32.617   6.612 -0.3751  0.0704  0.2707
 2808POPC   C1B71666  29.531  32.073   7.228  0.2132  0.2941  0.0265
 2808POPC   C2B71667  29.564  32.261   6.786 -0.1715  0.1781 -0.1631
 2808POPC   C3B71668  29.481  32.442   6.343  0.2698  0.2599  0.0933
 2808POPC   C4B71669  29.475  32.401   5.916 -0.0249 -0.0723  0.1155
 2809POPC   NC371670  21.897   0.396   8.922  0.2019  0.0333 -0.1211
 2809POPC   PO471671  21.586   0.621   8.943 -0.1390 -0.0368  0.0474
 2809POPC   GL171672  21.676   0.867   8.585  0.2373  0.1454  0.3377
 2809POPC   GL271673  21.967   0.820   8.624 -0.0927  0.0377 -0.0558
 2809POPC   C1A71674  21.835   1.225   8.340  0.2188 -0.0854  0.0142
 2809POPC   D2A71675  22.230   1.447   8.300  0.2823 -0.0558  0.0853
 2809POPC   C3A71676  22.551   1.434   8.002  0.1597 -0.2103 -0.0960
 2809POPC   C4A71677  22.614   1.289   7.588  0.1326  0.6401 -0.2434
 2809POPC   C1B71678  22.144   0.846   8.229  0.2502 -0.2850  0.3518
 2809POPC   C2B71679  22.527   0.961   7.991 -0.1571 -0.1767 -0.2172
 2809POPC   C3B71680  22.867   0.837   7.773  0.1148 -0.1726  0.0975
 2809POPC   C4B71681  22.924   0.460   7.516 -0.1326  0.0749  0.0369
 2810POPC   NC371682  20.550  22.781  10.433 -0.1013  0.0312  0.0149
 2810POPC   PO471683  20.838  22.568  10.508  0.1525 -0.3157  0.1010
 2810POPC   GL171684  21.212  22.379  10.405 -0.3046 -0.0104 -0.1628
 2810POPC   GL271685  21.328  22.459  10.645  0.0051 -0.2246 -0.0548
 2810POPC   C1A71686  21.277  22.587  10.007  0.0500 -0.1036  0.2369
 2810POPC   D2A71687  21.141  22.355   9.639  0.0412  0.2472  0.1136
 2810POPC   C3A71688  21.498  22.379   9.279  0.0607 -0.1534 -0.2099
 2810POPC   C4A71689  21.933  22.427   9.142  0.0732  0.2364 -0.1544
 2810POPC   C1B71690  21.494  22.824  10.384  0.1628 -0.1742  0.1482
 2810POPC   C2B71691  21.676  22.858   9.973  0.2004 -0.2539  0.2933
 2810POPC   C3B71692  21.687  23.172   9.616 -0.1660 -0.1784 -0.1164
 2810POPC   C4B71693  21.994  23.329   9.280  0.2130 -0.0307  0.0451
 2811POPC   NC371694  29.777  32.198  16.004 -0.1048  0.2868  0.0123
 2811POPC   PO471695  29.688  32.271  15.632  0.1030 -0.1801  0.0481
 2811POPC   GL171696  29.508  32.576  15.859 -0.2525 -0.0738 -0.3226
 2811POPC   GL271697  29.262  32.733  15.716 -0.2450 -0.2097 -0.1369
 2811POPC   C1A71698  29.473  32.671  16.299  0.0515  0.0494  0.1004
 2811POPC   D2A71699  29.346  32.975  16.581  0.0597 -0.0895  0.1322
 2811POPC   C3A71700  29.449  33.061  17.009 -0.1283 -0.2209  0.2392
 2811POPC   C4A71701  29.537  33.291  17.385  0.0652 -0.0289 -0.0025
 2811POPC   C1B71702  28.972  32.527  16.021  0.0193 -0.0991  0.3435
 2811POPC   C2B71703  28.868  32.750  16.438 -0.0468 -0.2715  0.0251
 2811POPC   C3B71704  28.581  32.759  16.815  0.2930 -0.0921 -0.2368
 2811POPC   C4B71705  28.495  32.810  17.266  0.0696 -0.1578 -0.1840
 2812POPC   NC371706  20.340  17.939   9.289  0.0378 -0.1043  0.2467
 2812POPC   PO471707  20.606  18.218   9.112 -0.2305  0.2043  0.0512
 2812POPC   GL171708  20.916  18.248   8.883  0.1117  0.0628 -0.1380
 2812POPC   GL271709  20.962  18.588   8.864  0.2716  0.1009  0.3703
 2812POPC   C1A71710  20.964  17.951   8.536  0.2712 -0.3772 -0.0421
 2812POPC   D2A71711  20.852  17.748   8.097  0.0998 -0.1303  0.2156
 2812POPC   C3A71712  21.147  17.801   7.740 -0.1809  0.1479  0.0358
 2812POPC   C4A71713  21.410  17.786   7.361  0.0364  0.0716  0.2639
 2812POPC   C1B71714  21.096  18.436   8.456  0.1888  0.1596  0.2796
 2812POPC   C2B71715  21.151  18.155   8.060 -0.1540 -0.1008 -0.1736
 2812POPC   C3B71716  21.356  18.283   7.637  0.0289 -0.1201 -0.0942
 2812POPC   C4B71717  21.020  18.397   7.298 -0.0127  0.0700 -0.3126
 2813POPC   NC371718  27.014  17.160  13.661  0.0360 -0.0426 -0.0492
 2813POPC   PO471719  26.865  17.405  13.355 -0.2735  0.2881 -0.1226
 2813POPC   GL171720  26.911  17.664  13.687  0.0554  0.2561  0.3410
 2813POPC   GL271721  26.598  17.685  13.849 -0.2431  0.1491  0.3527
 2813POPC   C1A71722  26.977  17.991  13.969  0.1935  0.3503 -0.1982
 2813POPC   D2A71723  27.072  18.423  13.893  0.4045  0.0498  0.0036
 2813POPC   C3A71724  27.055  18.786  14.134 -0.1457  0.0562 -0.0516
 2813POPC   C4A71725  26.967  19.138  14.397 -0.3288 -0.0409 -0.0790
 2813POPC   C1B71726  26.480  18.125  13.874 -0.2024  0.2391  0.2592
 2813POPC   C2B71727  26.608  18.592  13.928 -0.1276  0.0055  0.0797
 2813POPC   C3B71728  26.512  18.983  14.105  0.0082  0.0841 -0.2790
 2813POPC   C4B71729  26.571  19.443  14.206 -0.1602 -0.1772 -0.2098
 2814POPC   NC371730  18.502  24.404   9.024  0.2592 -0.1361  0.1266
 2814POPC   PO471731  18.205  24.581   8.793  0.1230  0.0149  0.1196
 2814POPC   GL171732  18.468  24.671   8.514  0.3073  0.0880  0.0916
 2814POPC   GL271733  18.686  24.760   8.678 -0.3714  0.1994  0.2184
 2814POPC   C1A71734  18.587  24.687   8.072 -0.2670 -0.1996  0.1035
 2814POPC   D2A71735  18.503  24.760   7.633  0.0450 -0.0066  0.3562
 2814POPC   C3A71736  18.537  24.755   7.207 -0.1379  0.1589 -0.3655
 2814POPC   C4A71737  18.762  24.665   6.819  0.1295 -0.4334 -0.0978
 2814POPC   C1B71738  18.912  24.511   8.414 -0.2539  0.1343  0.0352
 2814POPC   C2B71739  19.098  24.504   7.983 -0.0836  0.2691 -0.0240
 2814POPC   C3B71740  19.144  24.196   7.635 -0.3032  0.1470  0.0757
 2814POPC   C4B71741  19.452  23.947   7.422  0.0222  0.1480  0.3538
 2815POPC   NC371742  31.037  29.280   8.463 -0.2078 -0.1311 -0.0730
 2815POPC   PO471743  31.267  29.006   8.510  0.0213  0.0062  0.1104
 2815POPC   GL171744  31.229  29.047   8.116  0.6391  0.1585 -0.2784
 2815POPC   GL271745  31.305  28.827   8.015  0.1108  0.0982  0.1018
 2815POPC   C1A71746  31.292  29.211   7.697 -0.0096 -0.0732 -0.1668
 2815POPC   D2A71747  31.209  29.250   7.260 -0.1890 -0.3142  0.0965
 2815POPC   C3A71748  30.843  29.299   7.042  0.3794 -0.0120 -0.1892
 2815POPC   C4A71749  30.516  28.943   6.972  0.0783  0.0128 -0.1921
 2815POPC   C1B71750  31.291  28.755   7.582  0.0446  0.0118  0.2298
 2815POPC   C2B71751  31.112  28.763   7.156 -0.0724  0.2431  0.0328
 2815POPC   C3B71752  30.945  28.776   6.726 -0.0582  0.1906  0.1812
 2815POPC   C4B71753  30.853  29.059   6.361 -0.3715  0.0561  0.4173
 2816POPC   NC371754  21.308  23.498  11.547 -0.2781 -0.1324 -0.1383
 2816POPC   PO471755  21.582  23.298  11.822  0.0227  0.1768 -0.1771
 2816POPC   GL171756  21.788  23.359  11.580 -0.3007  0.1594  0.2735
 2816POPC   GL271757  21.782  23.508  11.311 -0.0979 -0.0555  0.3277
 2816POPC   C1A71758  22.222  23.367  11.524  0.1385 -0.3792 -0.0798
 2816POPC   D2A71759  22.530  23.687  11.621 -0.1379  0.2156 -0.0392
 2816POPC   C3A71760  22.786  23.783  11.237 -0.0647  0.0365  0.0287
 2816POPC   C4A71761  23.167  23.901  11.078 -0.3144  0.0421  0.0532
 2816POPC   C1B71762  22.035  23.211  11.078  0.0608  0.0733  0.2405
 2816POPC   C2B71763  22.352  23.109  10.751  0.0845  0.3126 -0.2142
 2816POPC   C3B71764  22.806  23.137  10.709 -0.0905  0.0569  0.3678
 2816POPC   C4B71765  23.215  22.994  10.749  0.0758  0.2120  0.0224
 2817POPC   NC371766  18.109  23.848   9.343 -0.0574  0.2106  0.1434
 2817POPC   PO471767  18.415  24.076   9.454  0.0729 -0.3600  0.1820
 2817POPC   GL171768  18.700  23.951   9.164 -0.2784  0.1197 -0.2144
 2817POPC   GL271769  18.879  24.046   9.021  0.2830  0.4026 -0.0239
 2817POPC   C1A71770  18.810  23.573   8.903  0.1924  0.1101 -0.0860
 2817POPC   D2A71771  19.110  23.317   8.640  0.1136  0.0016 -0.0292
 2817POPC   C3A71772  19.046  23.262   8.215 -0.1226 -0.3317 -0.1013
 2817POPC   C4A71773  18.854  23.195   7.778  0.1334  0.1497 -0.0395
 2817POPC   C1B71774  18.943  23.914   8.550  0.0607  0.2988  0.1587
 2817POPC   C2B71775  18.960  23.894   8.156 -0.1076  0.3533  0.1502
 2817POPC   C3B71776  18.802  23.766   7.685 -0.3472  0.0664 -0.1521
 2817POPC   C4B71777  18.998  23.919   7.248 -0.2807  0.2502 -0.1355
 2818POPC   NC371778  31.755  30.777   8.181  0.1623  0.1488 -0.2366
 2818POPC   PO471779  31.742  31.109   7.961 -0.2300  0.1651  0.0700
 2818POPC   GL171780  31.542  31.303   7.746  0.1708  0.2981 -0.1433
 2818POPC   GL271781  31.751  31.478   7.626  0.0098 -0.1295  0.0261
 2818POPC   C1A71782  31.209  31.086   7.466  0.0036 -0.0616 -0.0204
 2818POPC   D2A71783  31.050  30.813   7.098  0.3602 -0.0834 -0.3359
 2818POPC   C3A71784  31.252  30.849   6.686 -0.0897 -0.1172  0.1093
 2818POPC   C4A71785  31.426  30.718   6.298  0.1581 -0.0163  0.0143
 2818POPC   C1B71786  31.839  31.296   7.207 -0.1328  0.2117  0.0099
 2818POPC   C2B71787  31.856  31.360   6.752  0.0389 -0.2275 -0.0486
 2818POPC   C3B71788  31.943  31.114   6.349 -0.3992  0.2287 -0.1379
 2818POPC   C4B71789  31.762  30.838   5.982  0.0253 -0.2917 -0.3884
 2819POPC   NC371790  26.660  29.320   9.397 -0.1697 -0.0310 -0.1129
 2819POPC   PO471791  26.293  29.249   9.460  0.1267 -0.1256  0.0033
 2819POPC   GL171792  26.485  28.973   9.126  0.0868 -0.3036  0.1682
 2819POPC   GL271793  26.702  29.121   8.919  0.1526 -0.0278  0.2215
 2819POPC   C1A71794  26.343  28.728   8.760  0.4998  0.2540  0.0561
 2819POPC   D2A71795  25.945  28.450   8.633  0.0791  0.3151  0.5371
 2819POPC   C3A71796  26.021  28.189   8.213 -0.1474  0.0642 -0.1746
 2819POPC   C4A71797  25.797  28.079   7.783  0.0726 -0.0126  0.3547
 2819POPC   C1B71798  26.597  29.017   8.492 -0.2239  0.0509  0.1846
 2819POPC   C2B71799  26.455  28.900   8.051  0.2022  0.1109  0.0772
 2819POPC   C3B71800  26.622  28.801   7.650 -0.0689 -0.3865 -0.0582
 2819POPC   C4B71801  26.805  28.803   7.229 -0.0678 -0.2671 -0.5653
 2820POPC   NC371802  23.503  31.211   8.367 -0.1282  0.3823  0.6588
 2820POPC   PO471803  23.216  30.984   8.432  0.2543  0.1320 -0.0241
 2820POPC   GL171804  23.053  31.180   8.159 -0.1680  0.1257 -0.0527
 2820POPC   GL271805  22.737  31.161   8.236 -0.0521  0.0846 -0.0508
 2820POPC   C1A71806  22.838  31.477   7.892 -0.2663 -0.0492 -0.2370
 2820POPC   D2A71807  22.573  31.533   7.494  0.1890  0.0610  0.0334
 2820POPC   C3A71808  22.824  31.613   7.131 -0.0991  0.1446 -0.2860
 2820POPC   C4A71809  22.992  31.730   6.733  0.3126  0.0895 -0.1067
 2820POPC   C1B71810  22.761  31.033   7.827 -0.1119 -0.0794 -0.1496
 2820POPC   C2B71811  22.788  31.132   7.360  0.0715 -0.1138  0.0455
 2820POPC   C3B71812  22.914  31.206   6.886  0.0527 -0.0606  0.0456
 2820POPC   C4B71813  23.091  31.032   6.537 -0.0071  0.1265  0.1295
 2821POPC   NC371814  17.463  16.672   8.466 -0.1003 -0.2352  0.0830
 2821POPC   PO471815  17.242  16.419   8.286 -0.0264 -0.2922 -0.1585
 2821POPC   GL171816  17.154  16.293   7.920 -0.3186  0.1994  0.0440
 2821POPC   GL271817  17.236  16.597   7.803  0.2329  0.2690  0.1346
 2821POPC   C1A71818  17.405  16.268   7.510 -0.0747  0.0095  0.0063
 2821POPC   D2A71819  17.356  16.084   7.095 -0.4773  0.0609 -0.1085
 2821POPC   C3A71820  17.205  16.365   6.805 -0.3038 -0.4947 -0.2381
 2821POPC   C4A71821  16.986  16.521   6.437 -0.0745 -0.0172 -0.0067
 2821POPC   C1B71822  17.610  16.732   7.542 -0.0466  0.0288 -0.0486
 2821POPC   C2B71823  17.725  16.820   7.172 -0.0826  0.0046  0.2052
 2821POPC   C3B71824  17.717  16.900   6.722  0.1256 -0.0572  0.2970
 2821POPC   C4B71825  17.785  17.003   6.333  0.0062  0.0511 -0.3963
 2822POPC   NC371826  18.442  29.694   8.084 -0.2062  0.1489 -0.0370
 2822POPC   PO471827  18.459  29.302   8.106 -0.2523  0.1161 -0.1960
 2822POPC   GL171828  18.494  29.343   7.732 -0.1139  0.3266  0.1028
 2822POPC   GL271829  18.158  29.385   7.673 -0.0846 -0.1752 -0.2009
 2822POPC   C1A71830  18.574  29.357   7.302 -0.2780 -0.0584 -0.0379
 2822POPC   D2A71831  18.525  29.573   6.880 -0.0562  0.4683  0.0104
 2822POPC   C3A71832  18.514  29.335   6.495  0.3869 -0.0023  0.2484
 2822POPC   C4A71833  18.564  29.260   6.040 -0.0465 -0.0586 -0.0890
 2822POPC   C1B71834  18.225  29.679   7.327  0.1580 -0.3763 -0.3980
 2822POPC   C2B71835  18.225  29.955   6.948 -0.4197 -0.1713  0.0848
 2822POPC   C3B71836  18.446  30.052   6.531  0.0866 -0.1490  0.0459
 2822POPC   C4B71837  18.639  30.163   6.190  0.1609 -0.1508  0.0021
 2823POPC   NC371838  31.201  20.648  10.944  0.1358 -0.0611  0.2735
 2823POPC   PO471839  31.240  20.837  10.645  0.0172 -0.0214 -0.1655
 2823POPC   GL171840  30.790  20.716  10.678  0.2764  0.0202  0.0213
 2823POPC   GL271841  30.608  20.947  10.886  0.0442 -0.0334  0.1290
 2823POPC   C1A71842  30.415  20.862  10.427  0.1731  0.1380  0.0294
 2823POPC   D2A71843  30.233  21.110  10.069  0.0035 -0.2927  0.0435
 2823POPC   C3A71844  30.187  21.031   9.594 -0.0480 -0.1503  0.1743
 2823POPC   C4A71845  30.172  21.278   9.151 -0.1248  0.2694  0.1249
 2823POPC   C1B71846  30.258  21.114  11.203  0.1430  0.1348  0.0010
 2823POPC   C2B71847  29.838  21.198  11.126 -0.1691 -0.1700  0.0251
 2823POPC   C3B71848  29.476  21.317  11.428 -0.0801  0.2002 -0.1732
 2823POPC   C4B71849  29.082  21.291  11.728 -0.2839  0.0375  0.0813
 2824POPC   NC371850  21.594  23.318  13.879  0.2174  0.0934 -0.1138
 2824POPC   PO471851  21.469  23.111  14.169  0.2834 -0.1211  0.4958
 2824POPC   GL171852  21.801  22.991  14.273 -0.2064  0.2199 -0.0016
 2824POPC   GL271853  21.991  23.075  14.093  0.1894  0.1667  0.0404
 2824POPC   C1A71854  22.045  23.119  14.658 -0.1583  0.1902 -0.1405
 2824POPC   D2A71855  22.419  22.945  14.723 -0.0021  0.2398  0.0692
 2824POPC   C3A71856  22.822  23.135  14.835  0.1780  0.2993 -0.0150
 2824POPC   C4A71857  23.225  23.173  14.995 -0.0107  0.0573 -0.1182
 2824POPC   C1B71858  22.295  22.789  14.261  0.0080  0.0119  0.0979
 2824POPC   C2B71859  22.579  22.502  14.524 -0.0774  0.3238  0.1323
 2824POPC   C3B71860  22.791  22.358  14.953  0.0204  0.0957  0.0455
 2824POPC   C4B71861  23.189  22.303  15.220 -0.2433 -0.1539  0.0698
 2825POPC   NC371862  32.456  24.499   9.595 -0.1249 -0.0949  0.0834
 2825POPC   PO471863  32.653  24.167   9.513 -0.2284 -0.1874 -0.1135
 2825POPC   GL171864  32.722  24.368   9.136 -0.2964  0.1226 -0.1083
 2825POPC   GL271865  32.430  24.233   8.984  0.0890  0.1964 -0.0702
 2825POPC   C1A71866  32.712  24.553   8.752  0.3056 -0.0069  0.0378
 2825POPC   D2A71867  32.500  24.421   8.377  0.0102 -0.0420 -0.3968
 2825POPC   C3A71868  32.337  24.512   7.965 -0.3328 -0.0552  0.0439
 2825POPC   C4A71869  32.201  24.468   7.540 -0.1157 -0.3354 -0.0193
 2825POPC   C1B71870  32.246  23.876   8.734 -0.1042  0.1736 -0.2198
 2825POPC   C2B71871  31.886  23.669   8.470 -0.5588 -0.2027 -0.1512
 2825POPC   C3B71872  31.713  23.492   8.121  0.2761 -0.1525 -0.1536
 2825POPC   C4B71873  31.310  23.554   7.826  0.0726 -0.1524 -0.0327
 2826POPC   NC371874  21.866  24.370  13.052 -0.2276  0.3973 -0.3792
 2826POPC   PO471875  22.126  24.130  12.843  0.2269 -0.1866 -0.1687
 2826POPC   GL171876  22.429  23.837  12.810 -0.3794 -0.4702 -0.1467
 2826POPC   GL271877  22.429  23.559  12.767 -0.0906  0.0789  0.0420
 2826POPC   C1A71878  22.880  23.752  12.942 -0.3476  0.1127 -0.2954
 2826POPC   D2A71879  23.315  23.954  12.834 -0.1246 -0.0486 -0.1983
 2826POPC   C3A71880  23.502  24.261  12.545 -0.1884 -0.0208  0.2001
 2826POPC   C4A71881  23.662  24.447  12.147  0.1264  0.2743 -0.1497
 2826POPC   C1B71882  22.819  23.468  12.571 -0.0671  0.0975 -0.3493
 2826POPC   C2B71883  23.265  23.437  12.496 -0.1366  0.1134 -0.2323
 2826POPC   C3B71884  23.616  23.238  12.236  0.0397  0.1343  0.0341
 2826POPC   C4B71885  23.938  23.340  11.918  0.4664  0.1842 -0.0097
 2827POPC   NC371886  24.688  28.627   9.238  0.1104 -0.0051  0.0865
 2827POPC   PO471887  24.993  28.883   9.224  0.1407 -0.0930  0.1642
 2827POPC   GL171888  24.948  28.611   8.895  0.1550 -0.0701  0.1074
 2827POPC   GL271889  25.213  28.561   8.827 -0.0838 -0.0365  0.2513
 2827POPC   C1A71890  24.897  28.353   8.498  0.1405 -0.0964  0.0996
 2827POPC   D2A71891  24.850  28.299   8.037  0.1721 -0.2272  0.0310
 2827POPC   C3A71892  24.825  27.936   7.754 -0.2010 -0.1132  0.0742
 2827POPC   C4A71893  24.881  27.556   7.485  0.0658 -0.0994 -0.3738
 2827POPC   C1B71894  25.450  28.519   8.463  0.0237  0.1632  0.2437
 2827POPC   C2B71895  25.515  28.967   8.282  0.1917 -0.2103 -0.2604
 2827POPC   C3B71896  25.629  29.104   7.837 -0.0914 -0.1266  0.1737
 2827POPC   C4B71897  25.868  29.334   7.443  0.1726  0.1318 -0.0219
 2828POPC   NC371898  20.708  30.140   8.379 -0.1176 -0.1427  0.0333
 2828POPC   PO471899  20.588  29.980   8.041  0.0159  0.1588  0.1805
 2828POPC   GL171900  20.715  29.966   7.688 -0.0322 -0.0501 -0.0954
 2828POPC   GL271901  20.826  29.768   7.486  0.0159  0.0399  0.2200
 2828POPC   C1A71902  20.493  30.146   7.282 -0.1182 -0.0472  0.0962
 2828POPC   D2A71903  20.422  30.065   6.811 -0.1363 -0.0479 -0.1206
 2828POPC   C3A71904  20.613  30.252   6.447 -0.1375 -0.0332 -0.0021
 2828POPC   C4A71905  20.690  30.507   6.093 -0.1265 -0.0193  0.0485
 2828POPC   C1B71906  20.842  29.635   7.027  0.2089 -0.1795  0.0691
 2828POPC   C2B71907  20.655  29.354   6.700 -0.0160 -0.2385 -0.1667
 2828POPC   C3B71908  20.385  29.324   6.298 -0.1563  0.2809  0.0908
 2828POPC   C4B71909  20.088  29.173   5.938 -0.0269 -0.0038  0.2258
 2829POPC   NC371910  31.985  23.901   9.682  0.1394 -0.1238 -0.2039
 2829POPC   PO471911  32.154  24.151   9.417 -0.0761 -0.2655 -0.1591
 2829POPC   GL171912  31.953  24.366   9.072 -0.0628  0.0500  0.1084
 2829POPC   GL271913  31.837  24.602   9.261  0.1618  0.1749  0.2066
 2829POPC   C1A71914  31.520  24.226   9.053 -0.1010  0.0428  0.0724
 2829POPC   D2A71915  31.189  24.180   8.751  0.1534  0.3518 -0.0306
 2829POPC   C3A71916  30.918  24.558   8.713 -0.3555 -0.1023 -0.3529
 2829POPC   C4A71917  30.900  24.872   8.399  0.2195  0.1074 -0.2015
 2829POPC   C1B71918  31.752  24.692   8.811  0.3262 -0.1404  0.0527
 2829POPC   C2B71919  31.505  24.470   8.448  0.0633  0.0079 -0.0201
 2829POPC   C3B71920  31.113  24.477   8.158 -0.1815 -0.0112 -0.1086
 2829POPC   C4B71921  31.025  24.835   7.934  0.1150  0.0981 -0.2342
 2830POPC   NC371922  31.324  24.793  11.645 -0.1941 -0.0774  0.1816
 2830POPC   PO471923  31.221  25.179  11.695  0.1206 -0.5938  0.0170
 2830POPC   GL171924  30.860  25.113  11.505 -0.1006 -0.3058 -0.3963
 2830POPC   GL271925  30.851  24.822  11.306  0.0675 -0.2430  0.1340
 2830POPC   C1A71926  30.443  25.258  11.407 -0.0085  0.2642 -0.1242
 2830POPC   D2A71927  29.967  25.332  11.361  0.0554  0.1136  0.2955
 2830POPC   C3A71928  29.549  25.181  11.073 -0.2917 -0.4172 -0.1921
 2830POPC   C4A71929  29.385  24.757  10.852 -0.1085 -0.1002  0.2042
 2830POPC   C1B71930  30.515  24.966  11.049 -0.3220  0.1515  0.0764
 2830POPC   C2B71931  30.266  24.792  10.728 -0.0221 -0.1671  0.1669
 2830POPC   C3B71932  29.782  24.785  10.538  0.2431 -0.1253 -0.5061
 2830POPC   C4B71933  29.409  24.758  10.230  0.3841  0.0605 -0.2397
 2831POPC   NC371934  18.876  30.607   8.267  0.0767 -0.0538 -0.0537
 2831POPC   PO471935  19.227  30.449   8.124  0.3108  0.0633 -0.3558
 2831POPC   GL171936  19.024  30.418   7.776 -0.2562 -0.0733  0.0383
 2831POPC   GL271937  18.729  30.484   7.766  0.2478  0.2482  0.1446
 2831POPC   C1A71938  19.128  30.633   7.369 -0.0137  0.1730  0.0628
 2831POPC   D2A71939  19.072  30.549   6.882 -0.1922 -0.3006  0.1536
 2831POPC   C3A71940  18.940  30.975   6.607 -0.1426 -0.5080  0.2566
 2831POPC   C4A71941  18.936  31.363   6.824 -0.2656  0.0210  0.3052
 2831POPC   C1B71942  18.487  30.369   7.389  0.0971  0.0820  0.0422
 2831POPC   C2B71943  18.587  30.583   6.998 -0.4397  0.3166 -0.0627
 2831POPC   C3B71944  18.634  30.575   6.547  0.2058 -0.0316  0.2786
 2831POPC   C4B71945  18.955  30.550   6.201 -0.0525 -0.0314  0.0478
 2832POPC   NC371946  17.668  24.523   8.842 -0.1509 -0.2169  0.0050
 2832POPC   PO471947  17.496  24.175   8.905  0.1684 -0.1563  0.1672
 2832POPC   GL171948  17.519  24.167   8.516  0.2214 -0.0282 -0.0999
 2832POPC   GL271949  17.295  24.367   8.388 -0.0924  0.0735 -0.1526
 2832POPC   C1A71950  17.825  24.405   8.251  0.5773  0.1484  0.1423
 2832POPC   D2A71951  18.075  24.164   8.013 -0.1293 -0.0211 -0.2051
 2832POPC   C3A71952  18.375  23.888   8.197 -0.1065 -0.0384 -0.0025
 2832POPC   C4A71953  18.643  23.549   8.081 -0.0686 -0.0214  0.2011
 2832POPC   C1B71954  16.976  24.367   8.044 -0.0889 -0.0375 -0.1096
 2832POPC   C2B71955  16.827  24.116   7.673  0.3488 -0.1183 -0.1859
 2832POPC   C3B71956  16.619  23.711   7.494 -0.0256  0.3116 -0.1352
 2832POPC   C4B71957  16.393  23.425   7.270 -0.2378 -0.0622 -0.1437
 2833POPC   NC371958  28.336  17.987   9.931 -0.0908 -0.3996 -0.0300
 2833POPC   PO471959  28.512  18.301   9.821 -0.2033 -0.1651  0.0088
 2833POPC   GL171960  28.181  18.378   9.583  0.1667  0.4214  0.2153
 2833POPC   GL271961  28.196  18.122   9.411 -0.0398 -0.2855 -0.1955
 2833POPC   C1A71962  27.740  18.493   9.769 -0.0258  0.1405  0.0147
 2833POPC   D2A71963  27.446  18.799   9.509  0.0641  0.2576 -0.2057
 2833POPC   C3A71964  27.487  19.032   9.187  0.2520  0.4277  0.1134
 2833POPC   C4A71965  27.540  19.441   9.154  0.1974 -0.3334  0.1805
 2833POPC   C1B71966  28.095  18.350   9.011 -0.0809  0.0599 -0.0183
 2833POPC   C2B71967  28.011  18.512   8.612  0.2370  0.1989 -0.0453
 2833POPC   C3B71968  27.745  18.634   8.262  0.1012  0.2475 -0.0655
 2833POPC   C4B71969  27.852  18.397   7.885  0.0141 -0.0335  0.2334
 2834POPC   NC371970  19.758  30.480   8.116  0.0375  0.1387 -0.1237
 2834POPC   PO471971  19.999  30.570   7.841 -0.4683 -0.0838  0.1661
 2834POPC   GL171972  20.145  30.379   7.482  0.2314  0.0232  0.0727
 2834POPC   GL271973  20.186  30.629   7.376  0.3080  0.0336 -0.1003
 2834POPC   C1A71974  20.066  30.253   7.039  0.2228  0.1166  0.2886
 2834POPC   D2A71975  19.911  30.267   6.573  0.2189 -0.4394 -0.0350
 2834POPC   C3A71976  19.803  30.007   6.222 -0.0513  0.0963 -0.4644
 2834POPC   C4A71977  19.794  29.901   5.809  0.1108 -0.2040  0.1292
 2834POPC   C1B71978  20.301  30.664   6.898 -0.0410 -0.0164  0.3122
 2834POPC   C2B71979  20.166  30.659   6.493  0.1496  0.0202 -0.0607
 2834POPC   C3B71980  20.108  30.389   6.143  0.3797  0.1701 -0.1908
 2834POPC   C4B71981  20.263  30.285   5.701  0.3101 -0.1112  0.3910
 2835POPC   NC371982  19.011  25.953   8.420 -0.2443  0.1740 -0.3470
 2835POPC   PO471983  19.183  25.644   8.648 -0.0418 -0.3215 -0.0184
 2835POPC   GL171984  19.274  25.379   8.421 -0.0665 -0.0748 -0.0911
 2835POPC   GL271985  19.524  25.282   8.474  0.1794 -0.4746 -0.0565
 2835POPC   C1A71986  19.456  25.364   7.951 -0.2019 -0.1662  0.0297
 2835POPC   D2A71987  19.472  25.145   7.574 -0.1314  0.0133  0.1347
 2835POPC   C3A71988  19.456  24.770   7.218 -0.0316  0.1662 -0.0267
 2835POPC   C4A71989  19.289  24.342   7.142 -0.3735 -0.0595 -0.3504
 2835POPC   C1B71990  19.881  25.521   8.247  0.0601 -0.1642 -0.1128
 2835POPC   C2B71991  19.954  25.526   7.778  0.2086  0.2708  0.2674
 2835POPC   C3B71992  19.851  25.322   7.386  0.0619  0.1109  0.0588
 2835POPC   C4B71993  19.700  25.256   6.954 -0.0126  0.1799 -0.0896
 2836POPC   NC371994  20.904  26.022   9.280  0.2461 -0.2730 -0.0160
 2836POPC   PO471995  21.069  26.378   9.417  0.0297 -0.0576  0.1132
 2836POPC   GL171996  21.360  26.120   9.358 -0.1534 -0.1377  0.1530
 2836POPC   GL271997  21.411  25.908   9.543  0.0369  0.0161 -0.0262
 2836POPC   C1A71998  21.628  26.060   9.015  0.1890  0.0961  0.0010
 2836POPC   D2A71999  21.715  25.979   8.572 -0.1340  0.2749  0.0476
 2836POPC   C3A72000  21.900  25.737   8.217  0.0328  0.1171 -0.0778
 2836POPC   C4A72001  22.117  25.404   7.931 -0.0797 -0.1670 -0.1034
 2836POPC   C1B72002  21.363  25.672   9.152 -0.1270  0.2862  0.0255
 2836POPC   C2B72003  21.365  25.586   8.708 -0.0832  0.0893  0.0295
 2836POPC   C3B72004  21.622  25.307   8.434 -0.1643 -0.0965  0.0532
 2836POPC   C4B72005  21.693  25.032   8.081  0.0739 -0.0351 -0.1745
 2837POPC   NC372006  29.094   1.408   9.176 -0.1367 -0.4069 -0.0973
 2837POPC   PO472007  28.799   1.188   8.966  0.1164 -0.0929 -0.1487
 2837POPC   GL172008  28.638   1.422   8.688  0.2757  0.4196 -0.1325
 2837POPC   GL272009  28.732   1.323   8.424  0.0839  0.2083  0.0428
 2837POPC   C1A72010  28.347   1.672   8.434 -0.2411 -0.0124  0.2470
 2837POPC   D2A72011  28.164   1.848   7.991  0.2111 -0.1533 -0.0766
 2837POPC   C3A72012  28.039   2.126   7.628 -0.5042  0.0510  0.0079
 2837POPC   C4A72013  27.916   2.230   7.190 -0.1004  0.2540  0.1832
 2837POPC   C1B72014  28.737   1.575   8.027  0.1273  0.1022  0.0313
 2837POPC   C2B72015  28.583   1.905   7.721  0.0930 -0.2899  0.1070
 2837POPC   C3B72016  28.359   1.909   7.319 -0.0082 -0.3402 -0.0921
 2837POPC   C4B72017  28.158   1.574   7.096 -0.1395  0.1629 -0.2127
 2838POPC   NC372018  24.089  18.794  11.469 -0.2297  0.0528 -0.0734
 2838POPC   PO472019  23.845  18.951  11.229  0.3663 -0.2150 -0.0274
 2838POPC   GL172020  23.828  19.395  11.230  0.2232 -0.0158  0.0688
 2838POPC   GL272021  24.073  19.388  11.056 -0.0565 -0.0443  0.0029
 2838POPC   C1A72022  24.136  19.719  11.402 -0.0258 -0.0825 -0.0592
 2838POPC   D2A72023  24.474  20.061  11.474  0.2636  0.0668 -0.1111
 2838POPC   C3A72024  24.747  20.129  11.125 -0.0187 -0.1535 -0.1952
 2838POPC   C4A72025  25.240  20.092  11.079 -0.1840  0.2867  0.1707
 2838POPC   C1B72026  24.277  19.769  10.806  0.3716  0.0560 -0.1649
 2838POPC   C2B72027  23.995  19.956  10.498  0.0388 -0.2458 -0.1759
 2838POPC   C3B72028  23.944  20.121  10.063  0.1298  0.1603  0.0815
 2838POPC   C4B72029  24.372  20.183   9.881 -0.0615 -0.0531  0.0803
 2839POPC   NC372030  23.815  17.430  10.000  0.0077 -0.0623  0.0307
 2839POPC   PO472031  23.780  17.088   9.839 -0.1698 -0.0456 -0.2790
 2839POPC   GL172032  23.932  17.189   9.592 -0.2153  0.2010  0.1693
 2839POPC   GL272033  23.882  17.441   9.507  0.2936 -0.0899 -0.0768
 2839POPC   C1A72034  24.355  17.280   9.477  0.0146 -0.2409  0.3798
 2839POPC   D2A72035  24.647  17.203   9.151  0.1346  0.4357 -0.0122
 2839POPC   C3A72036  24.796  17.536   8.965  0.0938  0.0918 -0.0680
 2839POPC   C4A72037  24.858  17.965   8.808 -0.2314  0.0279 -0.0508
 2839POPC   C1B72038  23.835  17.668   9.079  0.0400 -0.3176  0.1168
 2839POPC   C2B72039  23.901  17.832   8.650 -0.2626  0.1659 -0.3554
 2839POPC   C3B72040  23.961  18.051   8.248  0.0089  0.0657 -0.0158
 2839POPC   C4B72041  24.150  18.247   7.880 -0.4976  0.1112 -0.1060
 2840POPC   NC372042  26.781  27.875  10.201  0.0009 -0.1457  0.1579
 2840POPC   PO472043  27.004  28.181  10.081 -0.2530 -0.0030  0.0395
 2840POPC   GL172044  27.138  28.180   9.666  0.0975  0.2178  0.3211
 2840POPC   GL272045  27.427  28.353   9.563  0.1072  0.0180  0.4197
 2840POPC   C1A72046  27.161  27.953   9.274  0.1785 -0.2361 -0.0755
 2840POPC   D2A72047  26.978  28.006   8.834  0.4168  0.1793 -0.0061
 2840POPC   C3A72048  26.766  27.773   8.481  0.2855 -0.2813  0.0354
 2840POPC   C4A72049  26.822  27.854   8.017 -0.0395  0.3036 -0.0285
 2840POPC   C1B72050  27.515  27.875   9.608  0.1034 -0.1772 -0.2875
 2840POPC   C2B72051  27.448  27.519   9.316  0.0919  0.2397 -0.1011
 2840POPC   C3B72052  27.327  27.122   9.184 -0.2479  0.0018  0.0688
 2840POPC   C4B72053  27.495  26.832   8.897  0.4122 -0.0335 -0.1761
 2841POPC   NC372054  20.729  22.717  14.775  0.3751  0.1971  0.0003
 2841POPC   PO472055  21.034  22.861  14.510  0.1372  0.0094  0.1637
 2841POPC   GL172056  21.481  22.939  14.607 -0.3964 -0.1253  0.1196
 2841POPC   GL272057  21.555  22.667  14.501  0.3036 -0.0658 -0.3291
 2841POPC   C1A72058  21.731  22.835  14.971 -0.1919  0.0027  0.1230
 2841POPC   D2A72059  22.135  23.027  15.161  0.2627  0.0998  0.0594
 2841POPC   C3A72060  22.547  22.823  15.211  0.2015  0.2279 -0.2478
 2841POPC   C4A72061  22.988  22.772  15.237  0.5644  0.2757  0.0759
 2841POPC   C1B72062  21.988  22.609  14.677  0.1635 -0.1100  0.2346
 2841POPC   C2B72063  22.242  22.402  15.040  0.1337 -0.1015 -0.4521
 2841POPC   C3B72064  22.531  22.282  15.386  0.4428 -0.3599 -0.1798
 2841POPC   C4B72065  22.837  22.526  15.636 -0.2158 -0.1558 -0.1034
 2842POPC   NC372066  21.511  23.851  14.644 -0.0579  0.2004  0.0636
 2842POPC   PO472067  21.282  23.810  15.000  0.0490 -0.1294  0.0543
 2842POPC   GL172068  21.576  23.695  15.253 -0.2000  0.0490  0.1314
 2842POPC   GL272069  21.750  23.479  14.994  0.0853  0.1807 -0.0610
 2842POPC   C1A72070  21.748  24.002  15.574  0.0223  0.0525 -0.1631
 2842POPC   D2A72071  22.008  24.233  15.841 -0.2633  0.2128 -0.2196
 2842POPC   C3A72072  22.143  24.063  16.252  0.1669 -0.0000 -0.1215
 2842POPC   C4A72073  22.247  23.724  16.549 -0.1453 -0.2545 -0.0029
 2842POPC   C1B72074  21.667  23.229  15.373  0.0493 -0.1502 -0.2111
 2842POPC   C2B72075  21.691  23.005  15.798 -0.2715 -0.0827 -0.2029
 2842POPC   C3B72076  22.058  22.862  16.025 -0.2468  0.1835 -0.2177
 2842POPC   C4B72077  22.264  23.147  16.318 -0.4380 -0.0718 -0.2970
 2843POPC   NC372078  29.477  28.682   9.009 -0.1160  0.4369  0.1538
 2843POPC   PO472079  29.226  28.490   9.260  0.4043 -0.0304  0.0722
 2843POPC   GL172080  29.049  28.359   8.882  0.2168  0.0489 -0.3586
 2843POPC   GL272081  28.794  28.439   8.744  0.2025 -0.0050 -0.1620
 2843POPC   C1A72082  28.969  27.976   8.652  0.1592  0.1144  0.5054
 2843POPC   D2A72083  29.063  27.652   8.402 -0.1512  0.1591  0.1226
 2843POPC   C3A72084  29.062  27.182   8.303 -0.1796  0.1597  0.0392
 2843POPC   C4A72085  29.053  26.804   8.055 -0.3291  0.3402 -0.3672
 2843POPC   C1B72086  28.472  28.263   8.430 -0.0538  0.1244  0.1365
 2843POPC   C2B72087  28.244  28.044   8.114  0.1200  0.1906  0.1266
 2843POPC   C3B72088  28.200  27.709   7.829 -0.2137  0.2133  0.3378
 2843POPC   C4B72089  28.294  27.270   7.798  0.1357 -0.0747 -0.2464
 2844POPC   NC372090  18.001  22.363   9.421  0.0738 -0.3211  0.0826
 2844POPC   PO472091  17.687  22.562   9.242 -0.1091  0.1505 -0.0361
 2844POPC   GL172092  17.889  22.551   8.916  0.2836  0.2843  0.2002
 2844POPC   GL272093  18.127  22.657   8.897  0.0132  0.3037 -0.1161
 2844POPC   C1A72094  17.660  22.626   8.494 -0.0564  0.1270  0.0954
 2844POPC   D2A72095  17.593  22.421   8.118 -0.0069  0.0839  0.1075
 2844POPC   C3A72096  17.863  22.671   7.822 -0.2155  0.0308 -0.3202
 2844POPC   C4A72097  18.250  22.825   7.681 -0.0483 -0.0777 -0.3501
 2844POPC   C1B72098  18.026  22.374   8.536 -0.1181 -0.0612 -0.0926
 2844POPC   C2B72099  17.920  22.075   8.157  0.2875  0.0450  0.0104
 2844POPC   C3B72100  17.841  22.127   7.706 -0.1411  0.1257 -0.2987
 2844POPC   C4B72101  17.429  22.176   7.501 -0.1146 -0.2420 -0.1469
 2845POPC   NC372102  16.607  31.805   8.179 -0.1190 -0.0750  0.0066
 2845POPC   PO472103  16.982  31.749   8.038  0.0124 -0.1718 -0.0621
 2845POPC   GL172104  17.040  31.757   7.662 -0.0796  0.0252 -0.0210
 2845POPC   GL272105  16.732  31.822   7.588 -0.1034 -0.2918 -0.0015
 2845POPC   C1A72106  17.182  32.083   7.402  0.0931 -0.0676 -0.0273
 2845POPC   D2A72107  16.998  32.279   7.092  0.1009  0.1449  0.0924
 2845POPC   C3A72108  16.602  32.032   7.033 -0.2700 -0.1083  0.0327
 2845POPC   C4A72109  16.132  31.995   6.922  0.2304  0.0048 -0.0703
 2845POPC   C1B72110  16.439  31.565   7.352 -0.0698 -0.0978  0.0770
 2845POPC   C2B72111  16.288  31.447   6.942 -0.1708  0.1317  0.2164
 2845POPC   C3B72112  16.252  31.485   6.449  0.0388  0.1077  0.1231
 2845POPC   C4B72113  16.160  31.339   5.972  0.2908 -0.1553  0.2009
 2846POPC   NC372114  16.495  16.115   7.939  0.0470 -0.2021 -0.0443
 2846POPC   PO472115  16.713  16.412   8.046 -0.0798  0.2152 -0.0352
 2846POPC   GL172116  16.805  16.652   7.742  0.0106 -0.0915 -0.1046
 2846POPC   GL272117  16.533  16.576   7.587  0.0416 -0.2256  0.0394
 2846POPC   C1A72118  17.054  16.855   7.393  0.2070 -0.0486  0.0065
 2846POPC   D2A72119  17.278  17.001   7.076  0.0937 -0.1353  0.0682
 2846POPC   C3A72120  17.134  16.976   6.601  0.5047 -0.1614 -0.1393
 2846POPC   C4A72121  17.072  16.933   6.165 -0.0292 -0.3796  0.0565
 2846POPC   C1B72122  16.529  16.899   7.296  0.2244 -0.1365  0.1142
 2846POPC   C2B72123  16.672  17.119   6.950  0.0080 -0.1282  0.0832
 2846POPC   C3B72124  16.572  17.333   6.540 -0.2096  0.0654  0.1697
 2846POPC   C4B72125  16.275  17.653   6.345 -0.2018 -0.0515 -0.0526
 2847POPC   NC372126  25.953  16.220  14.401 -0.2628 -0.1408 -0.1278
 2847POPC   PO472127  26.094  16.485  14.161 -0.0422 -0.4498  0.1837
 2847POPC   GL172128  26.220  16.738  14.463  0.2200  0.3365 -0.3766
 2847POPC   GL272129  26.277  16.542  14.711  0.1561 -0.0818 -0.2955
 2847POPC   C1A72130  26.103  17.063  14.808  0.0986  0.0365 -0.0426
 2847POPC   D2A72131  26.058  17.424  15.121 -0.2128 -0.0601  0.0534
 2847POPC   C3A72132  25.715  17.508  15.449  0.0698 -0.0780  0.1869
 2847POPC   C4A72133  25.464  17.905  15.480  0.1101 -0.4261 -0.1295
 2847POPC   C1B72134  26.365  16.751  15.087  0.3256  0.0218 -0.3103
 2847POPC   C2B72135  26.354  17.061  15.397  0.1122  0.0410  0.1391
 2847POPC   C3B72136  26.424  17.238  15.763  0.0660 -0.0530 -0.2207
 2847POPC   C4B72137  26.647  17.354  16.105  0.0381  0.1403  0.1396
 2848POPC   NC372138  22.951  25.904  12.665 -0.1126 -0.1691  0.0152
 2848POPC   PO472139  23.286  26.136  12.575  0.1724  0.1828 -0.1003
 2848POPC   GL172140  23.399  25.762  12.369 -0.0253  0.0193  0.0398
 2848POPC   GL272141  23.472  25.649  12.652 -0.1439  0.3088  0.0355
 2848POPC   C1A72142  23.830  25.643  12.289 -0.1223 -0.1020  0.3863
 2848POPC   D2A72143  24.303  25.583  12.285 -0.0902 -0.3555 -0.1739
 2848POPC   C3A72144  24.653  25.333  12.514  0.0679 -0.0521  0.0120
 2848POPC   C4A72145  25.007  25.050  12.684  0.0875 -0.0027 -0.0334
 2848POPC   C1B72146  23.601  25.224  12.594  0.1050  0.0269 -0.0915
 2848POPC   C2B72147  23.872  24.858  12.450  0.3813 -0.2107 -0.2967
 2848POPC   C3B72148  24.322  24.966  12.387  0.0619  0.0582  0.0907
 2848POPC   C4B72149  24.750  24.845  12.275 -0.3798 -0.1972  0.0968
 2849POPC   NC372150  27.584  28.850   9.370  0.1465 -0.3096  0.1978
 2849POPC   PO472151  27.899  28.669   9.539  0.2321 -0.2242 -0.0297
 2849POPC   GL172152  27.891  28.438   9.202  0.0391 -0.5016  0.0523
 2849POPC   GL272153  27.708  28.577   8.975 -0.0065 -0.0918  0.2666
 2849POPC   C1A72154  27.643  28.088   8.997  0.1210 -0.0986 -0.5218
 2849POPC   D2A72155  27.412  27.762   8.837  0.4272 -0.1595  0.1406
 2849POPC   C3A72156  27.385  27.663   8.388 -0.1447 -0.1055  0.0476
 2849POPC   C4A72157  27.362  27.867   7.960  0.0039  0.0796 -0.1158
 2849POPC   C1B72158  27.516  28.713   8.555 -0.1010 -0.1134 -0.0363
 2849POPC   C2B72159  27.409  28.461   8.132 -0.1341 -0.0341 -0.1575
 2849POPC   C3B72160  27.417  28.267   7.695 -0.3281  0.1572 -0.0156
 2849POPC   C4B72161  27.192  27.942   7.472 -0.0152  0.0585 -0.0108
 2850POPC   NC372162  17.379  21.203   9.264  0.1343 -0.0863  0.1603
 2850POPC   PO472163  16.976  21.055   9.271 -0.0945 -0.1280 -0.0302
 2850POPC   GL172164  16.999  21.185   8.939  0.0858 -0.3016  0.3262
 2850POPC   GL272165  16.865  21.525   8.963  0.2038 -0.2434  0.2878
 2850POPC   C1A72166  16.896  21.354   8.467  0.1836 -0.0005 -0.1958
 2850POPC   D2A72167  17.007  21.521   8.009 -0.1805  0.1726  0.0436
 2850POPC   C3A72168  17.011  21.454   7.560  0.0345  0.1833  0.1430
 2850POPC   C4A72169  17.192  21.404   7.076 -0.1938 -0.0515  0.0686
 2850POPC   C1B72170  16.953  21.840   8.635 -0.2540  0.2662  0.3173
 2850POPC   C2B72171  16.954  22.021   8.144 -0.1450 -0.1201 -0.3166
 2850POPC   C3B72172  16.948  21.971   7.679 -0.3294 -0.0300 -0.0575
 2850POPC   C4B72173  17.005  21.865   7.269  0.3580 -0.1717 -0.0251
 2851POPC   NC372174  30.072  29.079   8.540  0.0408 -0.0559  0.0884
 2851POPC   PO472175  29.712  29.013   8.714 -0.0178  0.2870 -0.1404
 2851POPC   GL172176  29.694  28.851   8.327  0.0302  0.1953  0.1248
 2851POPC   GL272177  29.462  28.682   8.495 -0.0651  0.0312  0.0094
 2851POPC   C1A72178  29.448  28.594   8.003  0.0890  0.0278  0.2753
 2851POPC   D2A72179  29.066  28.725   7.765 -0.0941 -0.0020 -0.1257
 2851POPC   C3A72180  29.137  29.021   7.415  0.1888  0.0154  0.1038
 2851POPC   C4A72181  29.056  29.110   6.988 -0.1833 -0.0765  0.2179
 2851POPC   C1B72182  29.090  28.367   8.374 -0.3881 -0.1075 -0.2059
 2851POPC   C2B72183  28.810  28.118   8.129  0.1475 -0.1100 -0.1072
 2851POPC   C3B72184  28.686  27.771   7.881  0.0833  0.1511 -0.1935
 2851POPC   C4B72185  28.609  27.587   7.480 -0.1655 -0.2100  0.2082
 2852POPC   NC372186  31.366  23.730  10.110  0.1297  0.1984 -0.0241
 2852POPC   PO472187  31.711  23.796  10.142 -0.4948 -0.1368  0.0823
 2852POPC   GL172188  31.483  23.876   9.678 -0.0736  0.1215 -0.4208
 2852POPC   GL272189  31.214  23.991   9.717 -0.2021  0.1371  0.4828
 2852POPC   C1A72190  31.305  23.767   9.226 -0.5743 -0.0529 -0.1643
 2852POPC   D2A72191  31.501  23.793   8.756 -0.0390 -0.0816 -0.2002
 2852POPC   C3A72192  31.210  23.799   8.380  0.2494 -0.1362  0.2491
 2852POPC   C4A72193  30.815  23.753   8.066  0.1129  0.0514  0.0708
 2852POPC   C1B72194  30.758  23.856   9.561 -0.0712  0.0328 -0.3180
 2852POPC   C2B72195  30.410  23.651   9.374 -0.0348 -0.1310  0.0610
 2852POPC   C3B72196  30.122  23.315   9.276 -0.1790  0.1365 -0.1375
 2852POPC   C4B72197  30.020  22.918   9.081  0.1140  0.2127  0.0713
 2853POPC   NC372198  22.840  30.084   8.786 -0.0446 -0.2136  0.1110
 2853POPC   PO472199  22.822  29.861   8.462 -0.2356  0.0199  0.2748
 2853POPC   GL172200  22.810  29.767   8.132 -0.1282  0.2532 -0.2261
 2853POPC   GL272201  22.619  29.489   8.147 -0.0459 -0.0043  0.1120
 2853POPC   C1A72202  22.976  29.625   7.710 -0.0490 -0.1500 -0.4131
 2853POPC   D2A72203  23.105  29.763   7.297 -0.1873 -0.0542  0.1472
 2853POPC   C3A72204  23.380  29.406   7.111  0.2523  0.1862 -0.0180
 2853POPC   C4A72205  23.540  29.248   6.686  0.0393  0.2976  0.0832
 2853POPC   C1B72206  22.472  29.703   7.823 -0.1269  0.0865  0.1221
 2853POPC   C2B72207  22.546  29.612   7.330  0.2278 -0.0270 -0.0836
 2853POPC   C3B72208  22.834  29.533   6.973 -0.0483 -0.2620 -0.0252
 2853POPC   C4B72209  23.144  29.578   6.615  0.0932 -0.2181 -0.0968
 2854POPC   NC372210  30.789  26.480   9.787  0.1921  0.3598  0.0579
 2854POPC   PO472211  30.861  26.782   9.564 -0.0398  0.0153  0.0962
 2854POPC   GL172212  30.652  26.546   9.334  0.1625 -0.1120  0.5061
 2854POPC   GL272213  30.634  26.483   9.108  0.2727  0.0353 -0.1732
 2854POPC   C1A72214  30.347  26.273   9.576 -0.1208 -0.0462  0.0690
 2854POPC   D2A72215  30.046  25.966   9.739  0.0715  0.3047  0.1218
 2854POPC   C3A72216  29.717  25.852   9.503 -0.0255 -0.0555  0.0664
 2854POPC   C4A72217  29.262  25.853   9.460 -0.2044  0.2716 -0.1076
 2854POPC   C1B72218  30.675  26.040   8.964  0.0703 -0.1926 -0.2073
 2854POPC   C2B72219  30.398  25.712   8.814  0.0514  0.1450 -0.0868
 2854POPC   C3B72220  30.217  25.591   8.430  0.2478  0.1717 -0.0094
 2854POPC   C4B72221  30.131  25.338   8.051 -0.3143 -0.3280 -0.0270
 2855POPC   NC372222  20.586  23.932  11.329  0.1466 -0.0327 -0.4395
 2855POPC   PO472223  20.905  23.719  11.332 -0.4678  0.1156 -0.1352
 2855POPC   GL172224  21.156  23.856  11.059 -0.3514 -0.1760 -0.2525
 2855POPC   GL272225  21.398  23.667  11.050 -0.1230  0.1253 -0.1140
 2855POPC   C1A72226  21.158  23.966  10.598  0.1462 -0.2311 -0.3287
 2855POPC   D2A72227  21.617  24.112  10.519  0.0520  0.2331 -0.1069
 2855POPC   C3A72228  21.875  23.888  10.283  0.1951  0.2408  0.2569
 2855POPC   C4A72229  22.286  23.883  10.028 -0.2348  0.2575  0.1493
 2855POPC   C1B72230  21.786  23.663  10.788  0.0065 -0.0275  0.0998
 2855POPC   C2B72231  22.133  23.511  10.496  0.1577  0.3600 -0.1243
 2855POPC   C3B72232  22.557  23.589  10.320  0.0292  0.1478  0.1845
 2855POPC   C4B72233  22.938  23.660  10.068  0.0063  0.3118 -0.0979
 2856POPC   NC372234  22.732   0.615   9.858 -0.0008 -0.1054  0.3900
 2856POPC   PO472235  23.121   0.616   9.891  0.0259 -0.1317  0.1253
 2856POPC   GL172236  23.152   0.647   9.532 -0.0648 -0.7967 -0.0376
 2856POPC   GL272237  23.343   0.874   9.478 -0.2237  0.1870  0.0005
 2856POPC   C1A72238  22.908   0.706   9.191  0.0923  0.0233  0.2516
 2856POPC   D2A72239  22.599   0.511   8.843 -0.2790 -0.1908  0.0783
 2856POPC   C3A72240  22.479   0.468   8.344  0.0507 -0.2634 -0.1004
 2856POPC   C4A72241  22.479   0.434   7.846 -0.0360 -0.0441 -0.2738
 2856POPC   C1B72242  23.506   1.094   9.098 -0.1220  0.3657 -0.1195
 2856POPC   C2B72243  23.554   1.375   8.760  0.0511 -0.1156 -0.0364
 2856POPC   C3B72244  23.306   1.518   8.338 -0.1752  0.0174 -0.2044
 2856POPC   C4B72245  22.893   1.695   8.213 -0.1041  0.0419  0.3711
 2857POPC   NC372246  18.901  29.077   7.812  0.1734 -0.2623 -0.2339
 2857POPC   PO472247  19.203  29.127   7.652  0.2778  0.1070 -0.2102
 2857POPC   GL172248  19.130  28.900   7.319  0.4173 -0.2066 -0.2077
 2857POPC   GL272249  18.991  29.138   7.142  0.0272 -0.1955  0.0827
 2857POPC   C1A72250  19.162  28.445   7.147 -0.0459 -0.1691 -0.0381
 2857POPC   D2A72251  19.239  28.252   6.686  0.0815  0.1900  0.1190
 2857POPC   C3A72252  19.167  28.403   6.267  0.0663  0.3328  0.5474
 2857POPC   C4A72253  19.241  28.308   5.814 -0.2162 -0.2153  0.1053
 2857POPC   C1B72254  18.637  29.059   6.896  0.0036 -0.2167  0.1749
 2857POPC   C2B72255  18.327  28.895   6.548  0.0189 -0.0120  0.0093
 2857POPC   C3B72256  18.090  28.849   6.175 -0.0418  0.0759  0.1196
 2857POPC   C4B72257  18.110  29.010   5.733  0.1067 -0.0491  0.4444
 2858POPC   NC372258  21.717  29.229   8.376 -0.0188 -0.0264 -0.3749
 2858POPC   PO472259  21.473  28.954   8.450 -0.1995 -0.1252 -0.2740
 2858POPC   GL172260  21.514  28.901   8.058 -0.3170 -0.0112  0.2637
 2858POPC   GL272261  21.892  28.899   7.979 -0.0088 -0.0417 -0.2547
 2858POPC   C1A72262  21.435  28.427   7.924  0.4194 -0.3028  0.0259
 2858POPC   D2A72263  21.224  28.035   7.748 -0.1881  0.2373 -0.2225
 2858POPC   C3A72264  21.354  28.015   7.276  0.0134 -0.0463  0.4407
 2858POPC   C4A72265  21.455  27.821   6.858 -0.0396  0.2116 -0.0368
 2858POPC   C1B72266  21.978  28.629   7.616 -0.1402  0.0453  0.1555
 2858POPC   C2B72267  22.229  28.544   7.248  0.0121 -0.0294 -0.0592
 2858POPC   C3B72268  22.198  28.425   6.848  0.1174  0.3250  0.2151
 2858POPC   C4B72269  22.328  28.005   6.560 -0.3508 -0.0407 -0.2937
 2859POPC   NC372270  20.915   0.171   8.911 -0.1164  0.1851 -0.2420
 2859POPC   PO472271  21.275   0.243   8.999  0.1772  0.0210  0.2111
 2859POPC   GL172272  21.258   0.521   8.556 -0.1329 -0.0422  0.0118
 2859POPC   GL272273  21.499   0.407   8.355 -0.1567 -0.0154 -0.1742
 2859POPC   C1A72274  21.391   0.882   8.253 -0.1896 -0.1101  0.0104
 2859POPC   D2A72275  21.572   1.129   7.932 -0.0849 -0.4132 -0.0427
 2859POPC   C3A72276  21.986   1.071   7.813 -0.2792 -0.0400  0.2612
 2859POPC   C4A72277  22.181   1.490   7.643  0.0245  0.4004 -0.2012
 2859POPC   C1B72278  21.677  -0.018   8.164  0.0566 -0.2153 -0.2092
 2859POPC   C2B72279  21.791  -0.035   7.747 -0.1805 -0.0708  0.4397
 2859POPC   C3B72280  21.750   0.278   7.384 -0.1450  0.3607  0.0123
 2859POPC   C4B72281  21.867   0.575   7.077  0.2637  0.0608 -0.0595
 2860POPC   NC372282  32.224  17.667   8.749  0.0585 -0.4258  0.0836
 2860POPC   PO472283  31.934  17.437   8.828  0.0940  0.0662  0.1552
 2860POPC   GL172284  31.683  17.496   8.533 -0.0655  0.2230 -0.3101
 2860POPC   GL272285  31.726  17.803   8.476 -0.1633 -0.3149 -0.2951
 2860POPC   C1A72286  31.684  17.480   8.052 -0.0864 -0.1760  0.1779
 2860POPC   D2A72287  31.822  17.518   7.597  0.1640  0.2185 -0.0936
 2860POPC   C3A72288  31.739  17.775   7.198 -0.2155 -0.0983 -0.0687
 2860POPC   C4A72289  31.500  17.799   6.826 -0.0490  0.0190 -0.1773
 2860POPC   C1B72290  31.550  17.968   8.024  0.0670 -0.0930 -0.0809
 2860POPC   C2B72291  31.357  18.097   7.577 -0.2064  0.1015  0.0731
 2860POPC   C3B72292  31.294  18.196   7.083  0.2556 -0.2978  0.0937
 2860POPC   C4B72293  31.283  18.270   6.648 -0.2461 -0.0174 -0.2061
 2861POPC   NC372294  21.024  29.147   8.282 -0.1750 -0.0535  0.0905
 2861POPC   PO472295  20.660  29.152   8.146 -0.0511 -0.1210  0.1791
 2861POPC   GL172296  20.738  29.102   7.754  0.2501  0.0186 -0.1469
 2861POPC   GL272297  20.631  29.330   7.584  0.3903  0.0620 -0.3404
 2861POPC   C1A72298  20.873  28.873   7.328 -0.1783 -0.0580 -0.3297
 2861POPC   D2A72299  21.244  28.846   7.143 -0.2754 -0.4461  0.0950
 2861POPC   C3A72300  21.527  28.481   7.313 -0.1799 -0.0026 -0.1116
 2861POPC   C4A72301  21.774  28.175   7.075 -0.3984  0.3380  0.0758
 2861POPC   C1B72302  20.362  29.564   7.331  0.3615  0.3309 -0.1993
 2861POPC   C2B72303  20.245  29.544   6.890  0.0776 -0.5460 -0.0896
 2861POPC   C3B72304  20.162  29.751   6.572 -0.2565  0.2554  0.1222
 2861POPC   C4B72305  20.270  29.903   6.146  0.0312  0.1858  0.1510
 2862POPC   NC372306  18.091  28.575   8.732 -0.2065  0.0583  0.1505
 2862POPC   PO472307  18.197  28.172   8.644 -0.0871 -0.2660 -0.0539
 2862POPC   GL172308  18.085  28.097   8.228 -0.0171 -0.0211 -0.4481
 2862POPC   GL272309  18.027  28.381   8.112 -0.1514  0.0008 -0.1169
 2862POPC   C1A72310  17.693  27.869   8.013  0.1940 -0.1374 -0.0736
 2862POPC   D2A72311  17.405  27.618   7.819  0.0711  0.1330 -0.2062
 2862POPC   C3A72312  17.314  27.290   7.522 -0.0916  0.0218  0.1291
 2862POPC   C4A72313  17.439  27.017   7.241 -0.1964 -0.0879  0.1287
 2862POPC   C1B72314  17.866  28.355   7.736  0.0745  0.2247  0.0511
 2862POPC   C2B72315  17.787  28.114   7.307  0.2751  0.3129 -0.2759
 2862POPC   C3B72316  18.000  27.919   6.913  0.0267  0.0649  0.0438
 2862POPC   C4B72317  17.983  27.659   6.562  0.0808 -0.3377 -0.0828
 2863POPC   NC372318  18.607  28.133   8.207  0.1311 -0.0601  0.2249
 2863POPC   PO472319  18.974  28.229   8.142  0.2187 -0.0454 -0.1096
 2863POPC   GL172320  19.044  28.067   7.845 -0.0097  0.2293  0.3518
 2863POPC   GL272321  19.160  28.171   7.580  0.1158 -0.2678 -0.0226
 2863POPC   C1A72322  19.246  27.671   7.659 -0.0005  0.0141 -0.0770
 2863POPC   D2A72323  19.353  27.220   7.682  0.0923 -0.4454 -0.2176
 2863POPC   C3A72324  19.186  26.957   7.394 -0.1731 -0.2217  0.0343
 2863POPC   C4A72325  18.831  26.617   7.295 -0.3087  0.0391 -0.0195
 2863POPC   C1B72326  19.243  27.965   7.180 -0.3162  0.2424 -0.1959
 2863POPC   C2B72327  19.394  27.808   6.776 -0.0630  0.1808 -0.0884
 2863POPC   C3B72328  19.538  27.957   6.346 -0.3531  0.2194 -0.0902
 2863POPC   C4B72329  19.844  27.984   6.036  0.2515 -0.2435  0.3060
 2864POPC   NC372330  22.251  17.466   9.337 -0.2368  0.4375 -0.1968
 2864POPC   PO472331  22.048  17.141   9.235  0.1372  0.2139 -0.0633
 2864POPC   GL172332  21.953  17.180   8.973 -0.0469  0.1977 -0.2809
 2864POPC   GL272333  21.987  17.483   8.892  0.2316 -0.2284  0.1103
 2864POPC   C1A72334  22.230  17.110   8.564 -0.2690 -0.0049 -0.1142
 2864POPC   D2A72335  22.583  16.929   8.408 -0.1641  0.2004 -0.0256
 2864POPC   C3A72336  22.681  17.133   7.973  0.0074 -0.0769 -0.0554
 2864POPC   C4A72337  22.691  17.315   7.528 -0.4750 -0.2174 -0.1763
 2864POPC   C1B72338  22.133  17.599   8.490  0.0123  0.1075 -0.2559
 2864POPC   C2B72339  22.208  17.844   8.094  0.2693  0.1004  0.0846
 2864POPC   C3B72340  22.296  18.018   7.690 -0.0890 -0.0570 -0.4524
 2864POPC   C4B72341  22.244  18.317   7.358  0.3056  0.0729  0.0566
 2865POPC   NC372342   0.172  27.277  16.184  0.0985  0.1494  0.0157
 2865POPC   PO472343   0.500  27.285  16.406  0.2649  0.0400  0.1405
 2865POPC   GL172344   0.614  27.468  16.730 -0.0147  0.1055 -0.0115
 2865POPC   GL272345   0.719  27.262  16.860  0.0016  0.1063  0.0620
 2865POPC   C1A72346   0.489  27.871  16.970 -0.2509 -0.0867  0.0346
 2865POPC   D2A72347   0.333  28.291  17.042  0.0040 -0.3977  0.1058
 2865POPC   C3A72348   0.343  28.444  17.500  0.1936 -0.0309  0.1681
 2865POPC   C4A72349   0.484  28.796  17.836 -0.0319  0.0539 -0.2303
 2865POPC   C1B72350   0.560  27.308  17.259 -0.1610 -0.1597 -0.1640
 2865POPC   C2B72351   0.498  27.066  17.671 -0.0135 -0.0825  0.1750
 2865POPC   C3B72352   0.570  26.869  18.061  0.1833  0.0015  0.1906
 2865POPC   C4B72353   0.765  27.037  18.412 -0.4050  0.1504 -0.0221
 2866POPC   NC372354  28.603  17.795   9.558  0.0638 -0.4958  0.0539
 2866POPC   PO472355  28.398  17.502   9.718 -0.0085 -0.1291 -0.2323
 2866POPC   GL172356  28.076  17.633   9.494 -0.2457  0.0622 -0.0936
 2866POPC   GL272357  27.978  17.444   9.308  0.0809  0.0435 -0.0326
 2866POPC   C1A72358  27.724  17.912   9.282 -0.2087  0.3395 -0.1075
 2866POPC   D2A72359  27.608  18.369   9.244  0.1088 -0.0910 -0.0726
 2866POPC   C3A72360  27.554  18.386   8.766  0.2427  0.0762  0.0681
 2866POPC   C4A72361  27.305  18.613   8.457  0.2374 -0.0216 -0.0360
 2866POPC   C1B72362  28.102  17.837   9.022 -0.0162  0.0044 -0.0131
 2866POPC   C2B72363  27.910  18.012   8.642  0.1186 -0.0686  0.1005
 2866POPC   C3B72364  27.788  17.992   8.171  0.3151 -0.2171  0.1232
 2866POPC   C4B72365  27.528  17.922   7.799  0.0903  0.2903 -0.2327
 2867POPC   NC372366  30.786  30.793   8.511 -0.2221 -0.0739  0.1030
 2867POPC   PO472367  30.791  30.664   8.127  0.4144 -0.2914  0.4524
 2867POPC   GL172368  31.062  30.568   7.850  0.0005  0.0462 -0.1694
 2867POPC   GL272369  31.154  30.321   7.809  0.3453 -0.4080  0.0114
 2867POPC   C1A72370  30.831  30.587   7.452 -0.0298  0.0516 -0.2247
 2867POPC   D2A72371  30.813  30.394   7.077 -0.2934 -0.0915  0.0133
 2867POPC   C3A72372  30.960  30.413   6.636  0.2510 -0.0443  0.1421
 2867POPC   C4A72373  30.948  30.547   6.234 -0.0068 -0.0586  0.0515
 2867POPC   C1B72374  31.354  30.448   7.380 -0.0623  0.1608  0.0741
 2867POPC   C2B72375  31.477  30.359   6.905 -0.0171 -0.0630  0.1072
 2867POPC   C3B72376  31.434  30.095   6.554  0.0768 -0.1824 -0.5105
 2867POPC   C4B72377  31.338  29.959   6.113 -0.1477 -0.2633  0.1119
 2868POPC   NC372378  20.173  21.905  15.264  0.0558  0.2284  0.2131
 2868POPC   PO472379  20.309  22.243  15.421 -0.3365 -0.3220 -0.2758
 2868POPC   GL172380  20.541  22.159  15.680  0.0890  0.0850 -0.1236
 2868POPC   GL272381  20.509  22.373  15.856  0.1495 -0.3336 -0.1528
 2868POPC   C1A72382  20.717  21.945  16.028  0.0606 -0.0559  0.0659
 2868POPC   D2A72383  20.940  21.945  16.407  0.4008  0.0316  0.2088
 2868POPC   C3A72384  20.570  22.018  16.737 -0.1038 -0.1332 -0.1716
 2868POPC   C4A72385  20.376  21.725  17.115  0.0919 -0.0088  0.2207
 2868POPC   C1B72386  20.707  22.375  16.265 -0.3266  0.0594 -0.3399
 2868POPC   C2B72387  20.767  22.531  16.721 -0.1372 -0.0164 -0.2201
 2868POPC   C3B72388  21.075  22.588  17.052  0.1841  0.1002  0.2874
 2868POPC   C4B72389  21.090  22.506  17.525  0.1598 -0.2882  0.3619
 2869POPC   NC372390  15.498  23.945   9.494  0.1193 -0.1477 -0.1052
 2869POPC   PO472391  15.230  23.758   9.695  0.2975 -0.1081 -0.4221
 2869POPC   GL172392  14.982  23.610   9.487 -0.0880  0.5014  0.2731
 2869POPC   GL272393  14.912  23.814   9.271 -0.1298 -0.1793  0.2565
 2869POPC   C1A72394  14.908  23.256   9.147 -0.0228 -0.0223  0.1915
 2869POPC   D2A72395  14.843  23.187   8.691  0.0232 -0.1913 -0.2384
 2869POPC   C3A72396  14.689  23.612   8.517  0.0161  0.3346 -0.4017
 2869POPC   C4A72397  14.388  23.709   8.247  0.2463  0.1392 -0.0561
 2869POPC   C1B72398  14.732  23.968   8.931  0.0406 -0.2044  0.0761
 2869POPC   C2B72399  14.319  23.893   8.727 -0.1000  0.2753  0.2264
 2869POPC   C3B72400  13.936  23.880   8.486  0.2630  0.1713  0.2810
 2869POPC   C4B72401  13.890  23.989   8.035 -0.0725  0.0921 -0.1734
 2870POPC   NC372402  31.866  22.495   9.553  0.2573 -0.0150  0.2288
 2870POPC   PO472403  32.135  22.267   9.726  0.0129 -0.1875  0.1585
 2870POPC   GL172404  32.184  22.097   9.324  0.0209  0.1263 -0.0955
 2870POPC   GL272405  31.934  22.077   9.231  0.0652 -0.2900 -0.1457
 2870POPC   C1A72406  32.256  22.011   8.816 -0.1006  0.1636  0.1298
 2870POPC   D2A72407  32.285  21.653   8.510 -0.3459 -0.1170  0.1291
 2870POPC   C3A72408  32.033  21.631   8.143 -0.1448  0.0978  0.1219
 2870POPC   C4A72409  32.186  21.672   7.707  0.1708  0.1963 -0.2248
 2870POPC   C1B72410  31.536  21.880   9.000 -0.1768  0.4828  0.2104
 2870POPC   C2B72411  31.128  21.664   8.882  0.0794  0.0292 -0.0856
 2870POPC   C3B72412  30.725  21.900   8.738 -0.2417  0.1295  0.1590
 2870POPC   C4B72413  30.425  22.145   8.603 -0.1380 -0.4148 -0.1418
 2871POPC   NC372414  25.719   0.580   9.817 -0.0649  0.0272 -0.1604
 2871POPC   PO472415  25.337   0.489   9.927 -0.0096  0.0761  0.2282
 2871POPC   GL172416  25.215   0.870   9.730  0.0779 -0.0489  0.0132
 2871POPC   GL272417  25.285   0.970   9.981  0.1205 -0.2613 -0.1344
 2871POPC   C1A72418  24.869   1.225   9.710 -0.1959  0.1031 -0.2291
 2871POPC   D2A72419  24.583   1.430   9.523  0.1304  0.2814 -0.0274
 2871POPC   C3A72420  24.572   1.858   9.588  0.0207  0.2712  0.1558
 2871POPC   C4A72421  24.412   2.283   9.489  0.0794 -0.0012 -0.0554
 2871POPC   C1B72422  25.357   1.255   9.598 -0.0247  0.1660 -0.1202
 2871POPC   C2B72423  25.364   1.554   9.272  0.3705 -0.2562  0.0998
 2871POPC   C3B72424  25.487   1.868   8.945 -0.1636 -0.2249  0.0731
 2871POPC   C4B72425  25.533   2.139   8.549 -0.4814 -0.1208 -0.1698
 2872POPC   NC372426  22.758  32.361   9.027 -0.1666 -0.2776 -0.1527
 2872POPC   PO472427  22.405  32.396   8.868 -0.3170 -0.2640 -0.0507
 2872POPC   GL172428  22.604  32.625   8.680 -0.0493 -0.3420 -0.0701
 2872POPC   GL272429  22.893  32.646   8.651 -0.0418 -0.1626  0.0481
 2872POPC   C1A72430  22.630  32.867   8.268 -0.0420  0.1935 -0.2230
 2872POPC   D2A72431  22.895  33.155   8.101 -0.2066  0.1714  0.0325
 2872POPC   C3A72432  23.294  33.339   7.896 -0.2682  0.1248 -0.1852
 2872POPC   C4A72433  23.757  33.499   7.937  0.1258  0.1008 -0.0799
 2872POPC   C1B72434  23.025  33.076   8.629 -0.2080  0.2210  0.1065
 2872POPC   C2B72435  22.925  33.526   8.448  0.2151  0.0367 -0.3615
 2872POPC   C3B72436  23.160  33.772   8.185 -0.0612 -0.1870  0.2646
 2872POPC   C4B72437  23.429  33.833   7.827  0.1295 -0.1003  0.0337
 2873POPC   NC372438  18.194  19.022   9.019 -0.0538 -0.0784  0.0389
 2873POPC   PO472439  18.494  19.212   8.912 -0.4525  0.1020 -0.1031
 2873POPC   GL172440  18.680  19.308   8.506 -0.0682 -0.3043 -0.2165
 2873POPC   GL272441  18.933  19.160   8.531  0.1213 -0.0746  0.3410
 2873POPC   C1A72442  18.709  19.081   8.085  0.2054 -0.3507 -0.2638
 2873POPC   D2A72443  18.522  19.043   7.650 -0.2681 -0.1897  0.1576
 2873POPC   C3A72444  18.638  19.180   7.245 -0.0445  0.1287  0.2798
 2873POPC   C4A72445  18.717  19.416   6.849 -0.0564  0.1214  0.2338
 2873POPC   C1B72446  19.126  19.472   8.269 -0.3109  0.2571  0.0146
 2873POPC   C2B72447  19.152  19.723   7.869 -0.0565  0.2985  0.0368
 2873POPC   C3B72448  19.380  19.804   7.506 -0.0431  0.0338 -0.1095
 2873POPC   C4B72449  19.692  19.937   7.240 -0.2260  0.5403  0.0020
 2874POPC   NC372450  28.721  17.135   9.399  0.0282 -0.0867 -0.1568
 2874POPC   PO472451  28.358  17.012   9.326  0.0666 -0.1152 -0.4190
 2874POPC   GL172452  28.324  17.066   8.950 -0.1110 -0.0268 -0.0397
 2874POPC   GL272453  28.214  16.845   8.760 -0.0104  0.0075  0.2563
 2874POPC   C1A72454  28.415  17.456   8.682 -0.1287  0.3187 -0.1921
 2874POPC   D2A72455  28.419  17.909   8.499  0.0361  0.4132 -0.1158
 2874POPC   C3A72456  28.261  18.240   8.222 -0.0679 -0.2393  0.3245
 2874POPC   C4A72457  28.271  18.650   7.941  0.0044 -0.1074  0.1327
 2874POPC   C1B72458  28.127  17.071   8.371  0.0929 -0.0931 -0.1625
 2874POPC   C2B72459  28.053  17.273   7.924 -0.2213  0.2754 -0.0668
 2874POPC   C3B72460  28.152  17.445   7.453 -0.2706  0.2307 -0.2536
 2874POPC   C4B72461  27.986  17.463   7.048  0.1044 -0.1959 -0.2285
 2875POPC   NC372462  30.581  19.217  13.226 -0.0715 -0.1568 -0.2128
 2875POPC   PO472463  30.287  19.171  13.464 -0.0817  0.0496  0.3999
 2875POPC   GL172464  30.004  19.415  13.470 -0.1018  0.2285 -0.0864
 2875POPC   GL272465  30.037  19.726  13.515 -0.2215  0.1829 -0.0768
 2875POPC   C1A72466  29.548  19.370  13.431  0.0133 -0.0890 -0.0704
 2875POPC   D2A72467  29.233  19.679  13.235  0.0298  0.1165 -0.3144
 2875POPC   C3A72468  28.838  19.644  13.523 -0.1736 -0.2964  0.1072
 2875POPC   C4A72469  28.492  19.926  13.708  0.1653  0.2179  0.1681
 2875POPC   C1B72470  29.603  19.897  13.493 -0.3821  0.0972  0.2492
 2875POPC   C2B72471  29.185  20.043  13.588  0.1567 -0.3516  0.0152
 2875POPC   C3B72472  28.849  20.311  13.625  0.1588 -0.2921  0.1002
 2875POPC   C4B72473  28.426  20.416  13.687 -0.0096 -0.0852  0.0991
 2876POPC   NC372474  22.380  23.894  13.258 -0.0156 -0.0716  0.0941
 2876POPC   PO472475  22.099  23.755  13.491  0.1635  0.0535  0.0559
 2876POPC   GL172476  22.503  23.666  13.668  0.0418  0.1592  0.3963
 2876POPC   GL272477  22.510  23.756  13.964 -0.1035 -0.0104 -0.0064
 2876POPC   C1A72478  22.887  23.842  13.520  0.0586 -0.3655 -0.0631
 2876POPC   D2A72479  23.289  23.805  13.323  0.0456 -0.0506  0.0637
 2876POPC   C3A72480  23.580  24.115  13.551  0.0578  0.0212 -0.0005
 2876POPC   C4A72481  23.911  24.117  13.842  0.0768 -0.1648 -0.0263
 2876POPC   C1B72482  22.948  23.638  13.964 -0.0961  0.0509 -0.2394
 2876POPC   C2B72483  23.353  23.733  13.766 -0.1011  0.2635  0.0438
 2876POPC   C3B72484  23.796  23.605  13.777  0.1911 -0.0162 -0.1720
 2876POPC   C4B72485  24.109  23.731  14.123  0.3000 -0.1034 -0.1068
 2877POPC   NC372486  19.582  25.282   9.312  0.2542 -0.1438 -0.0305
 2877POPC   PO472487  19.917  25.414   9.179  0.1372  0.0108 -0.2809
 2877POPC   GL172488  19.785  25.246   8.847 -0.2522 -0.1139 -0.1495
 2877POPC   GL272489  20.047  25.418   8.707  0.1446  0.0466 -0.1152
 2877POPC   C1A72490  19.929  24.998   8.472  0.0374 -0.3088  0.0820
 2877POPC   D2A72491  19.881  25.020   8.004 -0.0516 -0.0579  0.0035
 2877POPC   C3A72492  19.891  24.825   7.543  0.3859  0.1730 -0.0690
 2877POPC   C4A72493  19.947  24.708   7.101  0.2087  0.0551  0.0935
 2877POPC   C1B72494  20.332  25.266   8.362  0.1017  0.0200 -0.3048
 2877POPC   C2B72495  20.718  24.980   8.346  0.0332 -0.1336 -0.1472
 2877POPC   C3B72496  20.868  24.762   8.037 -0.2081  0.2268  0.3768
 2877POPC   C4B72497  21.209  24.494   8.017  0.1211  0.1124  0.3425
 2878POPC   NC372498  21.392  25.840  10.049  0.1292 -0.1478  0.1291
 2878POPC   PO472499  21.072  26.021   9.871 -0.0592  0.2208  0.0531
 2878POPC   GL172500  20.998  25.649   9.723 -0.0319  0.0306 -0.0691
 2878POPC   GL272501  21.105  25.429   9.838 -0.0096 -0.0796  0.1173
 2878POPC   C1A72502  20.830  25.535   9.335 -0.0086 -0.0894  0.0077
 2878POPC   D2A72503  20.979  25.265   9.003 -0.1244 -0.0668  0.2742
 2878POPC   C3A72504  21.261  25.059   8.744  0.2270 -0.2121  0.1812
 2878POPC   C4A72505  21.272  24.752   8.437 -0.1201 -0.0846  0.0143
 2878POPC   C1B72506  21.342  25.300   9.451  0.0556  0.0292 -0.0857
 2878POPC   C2B72507  21.641  25.258   9.122 -0.0776 -0.3689  0.1370
 2878POPC   C3B72508  22.081  25.023   9.056  0.2225  0.2267  0.0877
 2878POPC   C4B72509  22.096  24.636   8.830 -0.0348 -0.0940  0.2121
 2879POPC   NC372510  26.157  17.725  11.933  0.0792  0.0547 -0.0665
 2879POPC   PO472511  26.394  17.777  11.605 -0.1084  0.1604 -0.2805
 2879POPC   GL172512  26.460  18.166  11.727 -0.0676 -0.0126  0.0802
 2879POPC   GL272513  26.756  18.261  11.673  0.0201 -0.0590 -0.0236
 2879POPC   C1A72514  26.347  18.611  11.533 -0.0936  0.3139 -0.0059
 2879POPC   D2A72515  26.511  19.002  11.365  0.4107 -0.0632 -0.0509
 2879POPC   C3A72516  26.485  19.459  11.396  0.0491 -0.1666 -0.0611
 2879POPC   C4A72517  26.466  19.920  11.309  0.1898  0.1224 -0.1927
 2879POPC   C1B72518  26.848  18.706  11.628  0.3668  0.1915 -0.1996
 2879POPC   C2B72519  26.956  19.133  11.454  0.0236  0.0011 -0.2797
 2879POPC   C3B72520  26.831  19.339  11.023  0.0817  0.5488 -0.1023
 2879POPC   C4B72521  26.594  19.694  10.858 -0.0413 -0.2014 -0.0530
 2880POPC   NC372522  30.747  19.741  14.205  0.0990 -0.1244 -0.0843
 2880POPC   PO472523  30.604  19.379  14.331  0.1866 -0.0680 -0.1382
 2880POPC   GL172524  30.487  19.517  14.653 -0.4231 -0.3207 -0.0628
 2880POPC   GL272525  30.682  19.772  14.748 -0.0433 -0.3389 -0.0490
 2880POPC   C1A72526  30.220  19.773  14.939 -0.1654  0.1404 -0.0961
 2880POPC   D2A72527  30.138  20.161  15.142 -0.1627  0.1357 -0.1188
 2880POPC   C3A72528  29.734  20.214  15.413  0.4414  0.1442  0.1225
 2880POPC   C4A72529  29.619  20.061  15.844  0.0570 -0.1808 -0.0768
 2880POPC   C1B72530  30.500  20.083  14.503 -0.2917 -0.1472 -0.2331
 2880POPC   C2B72531  30.109  20.280  14.598 -0.0001  0.0824  0.2516
 2880POPC   C3B72532  29.717  20.380  14.869  0.1694 -0.1820 -0.0264
 2880POPC   C4B72533  29.312  20.213  14.909  0.3427 -0.2917  0.3169
 2881POPC   NC372534  20.987  16.931   9.246  0.0563  0.0165  0.2975
 2881POPC   PO472535  20.584  16.970   9.172  0.1772 -0.0638  0.1315
 2881POPC   GL172536  20.427  17.060   8.804  0.5233 -0.2865 -0.2454
 2881POPC   GL272537  20.346  16.875   8.565  0.2282  0.0945  0.0251
 2881POPC   C1A72538  20.600  17.319   8.487 -0.0874  0.0562  0.0339
 2881POPC   D2A72539  20.597  17.266   8.049  0.0048  0.0897 -0.0006
 2881POPC   C3A72540  21.054  17.275   7.872 -0.3100 -0.1542 -0.0080
 2881POPC   C4A72541  21.476  17.463   7.737 -0.1411 -0.1781 -0.1009
 2881POPC   C1B72542  20.310  16.715   8.136  0.0438 -0.1364  0.0252
 2881POPC   C2B72543  20.326  16.639   7.691 -0.0772  0.0617  0.1631
 2881POPC   C3B72544  20.271  16.498   7.259  0.1516 -0.2753  0.0002
 2881POPC   C4B72545  20.262  16.384   6.817 -0.2704 -0.1126  0.0501
 2882POPC   NC372546  22.154  30.392   8.375 -0.2269 -0.0717 -0.3314
 2882POPC   PO472547  22.506  30.294   8.505 -0.3203 -0.0286  0.2005
 2882POPC   GL172548  22.831  30.226   8.186 -0.3139  0.0660 -0.3132
 2882POPC   GL272549  22.636  30.121   7.972  0.1846 -0.1078  0.3444
 2882POPC   C1A72550  23.161  30.193   7.816  0.3790  0.1183  0.0905
 2882POPC   D2A72551  23.341  30.326   7.477  0.1224  0.2037 -0.2692
 2882POPC   C3A72552  23.080  30.263   7.122  0.2200 -0.1977 -0.3896
 2882POPC   C4A72553  23.192  30.025   6.695  0.2134 -0.1156  0.0140
 2882POPC   C1B72554  22.731  30.068   7.492 -0.1541  0.0754 -0.0297
 2882POPC   C2B72555  22.610  30.136   7.034  0.1242 -0.4266  0.0719
 2882POPC   C3B72556  22.813  30.342   6.612 -0.3517  0.2333 -0.1480
 2882POPC   C4B72557  22.747  30.611   6.209 -0.1990 -0.2825  0.0363
 2883POPC   NC372558  22.264  25.988  11.421  0.1650 -0.0850  0.1853
 2883POPC   PO472559  22.249  26.187  11.073  0.1669  0.1840  0.2549
 2883POPC   GL172560  22.395  25.979  10.780 -0.1324  0.0101 -0.0266
 2883POPC   GL272561  22.634  25.830  10.985  0.1272 -0.4016  0.1824
 2883POPC   C1A72562  22.593  25.722  10.483  0.1528  0.1365  0.0714
 2883POPC   D2A72563  22.542  25.313  10.319  0.0160 -0.1241 -0.2386
 2883POPC   C3A72564  22.879  25.144  10.050  0.0785 -0.2058 -0.1819
 2883POPC   C4A72565  23.220  24.945   9.862 -0.2599 -0.1898 -0.0070
 2883POPC   C1B72566  22.892  25.437  10.840  0.1691 -0.3463  0.2404
 2883POPC   C2B72567  22.951  25.062  10.587 -0.1545 -0.3420  0.1992
 2883POPC   C3B72568  23.253  24.728  10.477 -0.2707 -0.0089 -0.0447
 2883POPC   C4B72569  23.484  24.519  10.154  0.1567  0.1157  0.0642
 2884POPC   NC372570  32.525  27.333   8.758  0.0652 -0.0726 -0.1349
 2884POPC   PO472571  32.577  26.998   8.922 -0.1897  0.0398  0.1274
 2884POPC   GL172572  32.556  26.888   8.662 -0.0348 -0.2051  0.0183
 2884POPC   GL272573  32.252  26.878   8.536  0.2637  0.0046  0.2277
 2884POPC   C1A72574  32.739  26.847   8.254 -0.1513 -0.0499 -0.2629
 2884POPC   D2A72575  32.691  26.888   7.755 -0.0913  0.0291 -0.0237
 2884POPC   C3A72576  32.451  26.970   7.381  0.0910 -0.3208 -0.1197
 2884POPC   C4A72577  32.264  27.074   6.931  0.5017 -0.0204  0.0533
 2884POPC   C1B72578  32.292  26.674   8.117  0.3793  0.1808 -0.0618
 2884POPC   C2B72579  32.338  26.543   7.632 -0.0770  0.3045 -0.3133
 2884POPC   C3B72580  32.335  26.348   7.258 -0.0065  0.1105  0.0507
 2884POPC   C4B72581  32.265  26.188   6.851  0.0839 -0.0794  0.1707
 2885POPC   NC372582  16.166  23.456   9.470 -0.2937 -0.1499  0.0637
 2885POPC   PO472583  15.901  23.722   9.300  0.1392  0.0689  0.2700
 2885POPC   GL172584  15.863  23.622   8.880 -0.2066  0.0991  0.0598
 2885POPC   GL272585  16.083  23.406   8.797 -0.0461  0.1583 -0.2988
 2885POPC   C1A72586  15.679  23.725   8.512  0.2703 -0.3200  0.0619
 2885POPC   D2A72587  15.686  23.936   8.053 -0.1893 -0.0119  0.0945
 2885POPC   C3A72588  15.404  24.071   7.761  0.0437 -0.2186 -0.1519
 2885POPC   C4A72589  15.014  24.009   7.505 -0.3957  0.0525  0.1522
 2885POPC   C1B72590  15.769  23.173   8.597 -0.1025  0.2661  0.0964
 2885POPC   C2B72591  15.650  23.245   8.130 -0.2629 -0.0177 -0.0150
 2885POPC   C3B72592  15.281  23.032   7.950 -0.0812 -0.1101  0.1766
 2885POPC   C4B72593  14.888  23.006   7.608 -0.0688 -0.4380  0.0170
 2886POPC   NC372594  20.674  27.925   8.630 -0.1853 -0.0638  0.1407
 2886POPC   PO472595  20.424  27.783   8.308  0.0579 -0.1344 -0.0469
 2886POPC   GL172596  20.655  27.734   8.034  0.0028  0.2990  0.6748
 2886POPC   GL272597  20.422  27.587   7.888  0.0200  0.3461  0.1680
 2886POPC   C1A72598  21.001  27.580   7.842  0.1626  0.1437 -0.2012
 2886POPC   D2A72599  21.356  27.575   7.531 -0.2266  0.1251 -0.1945
 2886POPC   C3A72600  21.544  27.149   7.665  0.2380  0.1603  0.0481
 2886POPC   C4A72601  21.504  26.762   7.359  0.2472 -0.2277 -0.0788
 2886POPC   C1B72602  20.673  27.424   7.468  0.0482 -0.0252 -0.0360
 2886POPC   C2B72603  20.552  27.431   6.985  0.1080  0.0145  0.0711
 2886POPC   C3B72604  20.357  27.702   6.676  0.2027 -0.0383 -0.1571
 2886POPC   C4B72605  19.998  28.000   6.635 -0.2110  0.1169  0.0464
 2887POPC   NC372606  20.319  25.182   9.417 -0.0013  0.2860  0.0985
 2887POPC   PO472607  19.951  25.011   9.591 -0.1469 -0.3498 -0.0219
 2887POPC   GL172608  19.837  24.941   9.206  0.1097 -0.0412 -0.0444
 2887POPC   GL272609  20.109  24.882   9.124 -0.1240 -0.0038 -0.0646
 2887POPC   C1A72610  19.828  24.640   8.804  0.1396  0.3718  0.0491
 2887POPC   D2A72611  19.869  24.330   8.478 -0.2677  0.3275 -0.0836
 2887POPC   C3A72612  19.979  24.471   8.024 -0.2049  0.0788 -0.0101
 2887POPC   C4A72613  20.175  24.417   7.654 -0.1543 -0.1941 -0.1414
 2887POPC   C1B72614  20.358  24.893   8.742 -0.2745  0.1428  0.0111
 2887POPC   C2B72615  20.300  24.673   8.357 -0.0325 -0.0306  0.0024
 2887POPC   C3B72616  20.511  24.392   8.071 -0.0611 -0.1468 -0.1186
 2887POPC   C4B72617  20.707  24.425   7.662 -0.4480  0.0630  0.0876
 2888POPC   NC372618  27.247  16.606   9.785 -0.2333  0.0723 -0.5517
 2888POPC   PO472619  27.232  16.741   9.440 -0.0022 -0.3392 -0.0523
 2888POPC   GL172620  27.184  17.129   9.308 -0.2513  0.0474  0.0394
 2888POPC   GL272621  26.905  17.186   9.204 -0.2115 -0.1295  0.0198
 2888POPC   C1A72622  27.495  17.445   9.099 -0.0392  0.0269  0.1938
 2888POPC   D2A72623  27.460  17.857   8.860 -0.1616 -0.1253  0.1750
 2888POPC   C3A72624  27.394  18.043   8.431  0.0792  0.0545 -0.1608
 2888POPC   C4A72625  27.382  18.319   8.028  0.0452  0.0042  0.0185
 2888POPC   C1B72626  26.992  17.571   8.984 -0.2314 -0.2392  0.0938
 2888POPC   C2B72627  26.969  17.920   8.690 -0.0600 -0.2499  0.3726
 2888POPC   C3B72628  26.857  18.263   8.362 -0.2855  0.1470  0.0751
 2888POPC   C4B72629  26.862  18.459   7.952 -0.1655  0.1792 -0.2858
 2889POPC   NC372630  25.586  32.687   9.913 -0.2159  0.0853  0.1198
 2889POPC   PO472631  25.298  32.838   9.750  0.1752 -0.5102 -0.2940
 2889POPC   GL172632  25.331  32.955   9.378 -0.1205  0.1898  0.0635
 2889POPC   GL272633  25.571  33.151   9.364  0.1481  0.1972 -0.3023
 2889POPC   C1A72634  25.159  33.192   9.003  0.2924 -0.0296  0.1486
 2889POPC   D2A72635  25.082  33.550   8.650 -0.2318  0.0708 -0.5120
 2889POPC   C3A72636  25.246  33.655   8.232 -0.2858 -0.3245  0.2319
 2889POPC   C4A72637  25.507  33.718   7.859 -0.1338  0.0736 -0.0903
 2889POPC   C1B72638  25.630  33.336   8.924  0.0372 -0.0600  0.1884
 2889POPC   C2B72639  25.686  33.648   8.637  0.2987  0.2997 -0.2458
 2889POPC   C3B72640  25.677  33.953   8.285 -0.1916 -0.3238 -0.2763
 2889POPC   C4B72641  25.730  34.143   7.854 -0.0688  0.1450 -0.3432
 2890POPC   NC372642  29.692  29.511   8.735  0.0353  0.1305 -0.0460
 2890POPC   PO472643  29.810  29.889   8.708 -0.2731  0.1135  0.3388
 2890POPC   GL172644  29.794  29.967   8.292 -0.0616  0.1228 -0.0311
 2890POPC   GL272645  29.821  29.686   8.213  0.5060 -0.1359  0.0005
 2890POPC   C1A72646  29.613  30.118   7.920  0.1700  0.1497 -0.1215
 2890POPC   D2A72647  29.530  30.037   7.466  0.1717 -0.0793 -0.0485
 2890POPC   C3A72648  29.489  30.124   7.024 -0.1099  0.3752  0.2717
 2890POPC   C4A72649  29.391  30.019   6.552  0.1284 -0.3255  0.1168
 2890POPC   C1B72650  29.600  29.533   7.806 -0.1730 -0.2359 -0.0018
 2890POPC   C2B72651  29.363  29.473   7.395 -0.1981 -0.1273  0.1580
 2890POPC   C3B72652  29.207  29.602   7.032  0.1310  0.1392 -0.2517
 2890POPC   C4B72653  28.878  29.662   6.787  0.3062  0.2431  0.1467
 2891POPC   NC372654  20.395   1.389   9.211 -0.1937  0.0146 -0.1021
 2891POPC   PO472655  20.565   1.130   9.011 -0.1636 -0.3059 -0.1142
 2891POPC   GL172656  20.486   1.320   8.741  0.0223 -0.1085  0.2870
 2891POPC   GL272657  20.467   1.107   8.523 -0.1058 -0.2070  0.0973
 2891POPC   C1A72658  20.560   1.533   8.290  0.1110 -0.0795 -0.1165
 2891POPC   D2A72659  20.889   1.699   8.005  0.1718 -0.0172  0.1418
 2891POPC   C3A72660  20.884   1.678   7.537 -0.0933 -0.1082 -0.1362
 2891POPC   C4A72661  20.651   1.779   7.139  0.2181  0.1548  0.0561
 2891POPC   C1B72662  20.965   1.255   8.418 -0.0425  0.1002 -0.0539
 2891POPC   C2B72663  21.299   1.366   8.350  0.2697 -0.2597 -0.0803
 2891POPC   C3B72664  21.604   1.670   8.152  0.1247  0.0997  0.0986
 2891POPC   C4B72665  21.992   1.838   7.971 -0.5140 -0.0034 -0.2973
 2892POPC   NC372666  27.678  18.113  10.259 -0.4358 -0.1225  0.1553
 2892POPC   PO472667  27.444  17.822  10.124  0.0403  0.1406 -0.1303
 2892POPC   GL172668  27.193  18.023   9.937 -0.0647 -0.0868  0.1039
 2892POPC   GL272669  27.212  18.304  10.084  0.0235 -0.2337  0.0474
 2892POPC   C1A72670  27.243  18.342   9.587 -0.0277 -0.0260  0.0887
 2892POPC   D2A72671  26.954  18.563   9.340 -0.0442 -0.1283  0.0093
 2892POPC   C3A72672  26.973  18.972   9.483 -0.0650 -0.0644  0.0680
 2892POPC   C4A72673  27.188  19.335   9.633 -0.0823  0.1343  0.2245
 2892POPC   C1B72674  27.118  18.694   9.935 -0.2836  0.2004  0.2822
 2892POPC   C2B72675  26.925  19.048   9.959 -0.1618  0.2582 -0.3144
 2892POPC   C3B72676  26.724  19.471   9.967  0.3506 -0.1739  0.2254
 2892POPC   C4B72677  26.579  19.927   9.942  0.0151  0.1237 -0.1564
 2893POPC   NC372678  17.331  26.079   8.788  0.1730 -0.3134 -0.0003
 2893POPC   PO472679  17.670  26.083   8.976  0.1928 -0.0673 -0.2233
 2893POPC   GL172680  17.693  25.969   8.601 -0.0322  0.0061 -0.2879
 2893POPC   GL272681  17.739  25.746   8.591 -0.1177  0.2299 -0.2333
 2893POPC   C1A72682  17.768  25.921   8.124 -0.1749  0.1209  0.2835
 2893POPC   D2A72683  17.625  25.656   7.812  0.1229 -0.3858 -0.0333
 2893POPC   C3A72684  17.251  25.688   7.500  0.1759  0.1103 -0.0984
 2893POPC   C4A72685  17.073  25.706   7.094  0.0861 -0.0130  0.0630
 2893POPC   C1B72686  18.138  25.650   8.338  0.0207  0.2604  0.1813
 2893POPC   C2B72687  18.109  25.572   7.910 -0.1770 -0.0606  0.3393
 2893POPC   C3B72688  17.972  25.590   7.488  0.0175 -0.0689  0.2030
 2893POPC   C4B72689  17.605  25.408   7.213 -0.1565  0.1386 -0.1886
 2894POPC   NC372690  26.396  16.917  14.074  0.2737  0.2217 -0.0109
 2894POPC   PO472691  26.548  17.181  13.895 -0.0276 -0.0931 -0.1481
 2894POPC   GL172692  26.313  17.460  14.129  0.1352 -0.1909  0.0064
 2894POPC   GL272693  26.271  17.324  14.380  0.0021  0.0091  0.0227
 2894POPC   C1A72694  26.159  17.873  14.300  0.0722 -0.0852 -0.1249
 2894POPC   D2A72695  25.850  18.106  14.420  0.2153 -0.1971 -0.2342
 2894POPC   C3A72696  26.118  18.345  14.674 -0.0931  0.0330 -0.0139
 2894POPC   C4A72697  26.244  18.690  15.015  0.0375 -0.0986  0.0732
 2894POPC   C1B72698  26.398  17.632  14.695 -0.1969 -0.0398 -0.4654
 2894POPC   C2B72699  26.398  18.038  14.983  0.0330  0.0426  0.0513
 2894POPC   C3B72700  26.387  18.268  15.378 -0.0638 -0.0344 -0.0767
 2894POPC   C4B72701  26.465  18.687  15.539  0.0865  0.1988  0.0681
 2895POPC   NC372702  20.009  27.546   8.212  0.1946  0.1192  0.4480
 2895POPC   PO472703  20.026  27.314   8.516  0.0853 -0.2382  0.1489
 2895POPC   GL172704  20.198  27.063   8.280  0.1560 -0.0453 -0.1856
 2895POPC   GL272705  20.495  27.143   8.218  0.0909  0.1977 -0.3107
 2895POPC   C1A72706  20.243  27.050   7.820 -0.3558 -0.5300  0.1010
 2895POPC   D2A72707  20.353  26.986   7.438  0.2261 -0.1664 -0.0030
 2895POPC   C3A72708  20.563  26.965   7.011  0.2049  0.2160 -0.2035
 2895POPC   C4A72709  20.917  26.997   6.781  0.4163  0.0534 -0.1723
 2895POPC   C1B72710  20.721  27.080   7.810  0.1290 -0.0566 -0.1281
 2895POPC   C2B72711  21.028  27.091   7.452  0.2759  0.0347  0.0307
 2895POPC   C3B72712  21.043  26.756   7.194  0.0199 -0.0482  0.1998
 2895POPC   C4B72713  21.189  26.351   6.978 -0.0110 -0.4276 -0.0354
 2896POPC   NC372714   0.991  20.429   9.006 -0.1846  0.1738  0.2757
 2896POPC   PO472715   0.625  20.488   9.016  0.2685 -0.1207 -0.0535
 2896POPC   GL172716   0.406  20.409   8.676  0.2609 -0.1642 -0.0914
 2896POPC   GL272717   0.187  20.555   8.728 -0.1248 -0.0521 -0.0244
 2896POPC   C1A72718   0.490  20.220   8.238 -0.1068 -0.0653 -0.0283
 2896POPC   D2A72719   0.515  20.062   7.784  0.0181  0.2086  0.1255
 2896POPC   C3A72720   0.757  20.185   7.409 -0.0708 -0.1679 -0.0265
 2896POPC   C4A72721   1.073  20.186   7.081 -0.2789  0.0293 -0.0707
 2896POPC   C1B72722   0.248  20.629   8.303  0.1908 -0.3503 -0.1407
 2896POPC   C2B72723   0.119  20.549   7.855 -0.0952 -0.0303  0.3152
 2896POPC   C3B72724  -0.019  20.207   7.558 -0.0237 -0.1582  0.0568
 2896POPC   C4B72725  -0.307  19.997   7.289  0.1441  0.0845 -0.1679
 2897POPC   NC372726  19.978  26.245   8.998 -0.1867  0.0281 -0.1992
 2897POPC   PO472727  19.893  25.860   8.934 -0.0014 -0.0114 -0.0811
 2897POPC   GL172728  20.291  25.749   8.831 -0.0097 -0.2315 -0.1638
 2897POPC   GL272729  20.361  25.737   8.577 -0.0227  0.0048  0.0007
 2897POPC   C1A72730  20.518  25.332   8.855 -0.0744  0.1074 -0.1307
 2897POPC   D2A72731  20.621  24.946   9.130  0.1470  0.2283  0.1376
 2897POPC   C3A72732  20.854  24.650   8.936  0.0638  0.2403  0.1979
 2897POPC   C4A72733  20.852  24.490   8.505 -0.2556  0.1194 -0.2465
 2897POPC   C1B72734  20.290  25.710   8.130  0.1149 -0.2976 -0.3229
 2897POPC   C2B72735  20.403  25.654   7.694  0.1068 -0.0271  0.2130
 2897POPC   C3B72736  20.332  25.233   7.532 -0.0804  0.1202  0.2012
 2897POPC   C4B72737  20.409  24.779   7.371 -0.0608 -0.0523  0.1576
 2898POPC   NC372738  28.311  18.363  10.805  0.1699 -0.0184 -0.2643
 2898POPC   PO472739  27.991  18.332  10.628 -0.0619 -0.2779  0.1719
 2898POPC   GL172740  27.976  18.718  10.642 -0.0469 -0.0763  0.1305
 2898POPC   GL272741  28.278  18.749  10.500 -0.1369 -0.0814  0.1887
 2898POPC   C1A72742  27.699  19.060  10.603  0.0332 -0.0900 -0.0098
 2898POPC   D2A72743  27.523  19.473  10.445 -0.0599 -0.0933 -0.2729
 2898POPC   C3A72744  27.188  19.634  10.127  0.1617 -0.0243  0.4836
 2898POPC   C4A72745  27.114  20.045  10.010  0.4665 -0.5430 -0.1177
 2898POPC   C1B72746  27.935  18.867  10.194  0.0970 -0.0475 -0.1027
 2898POPC   C2B72747  27.863  19.038   9.754  0.1396  0.0579 -0.3062
 2898POPC   C3B72748  27.703  19.436   9.611 -0.1017 -0.0432 -0.4219
 2898POPC   C4B72749  27.430  19.797   9.599  0.1951  0.0389  0.1630
 2899POPC   NC372750  22.044  28.365   8.841 -0.0073  0.1722 -0.0979
 2899POPC   PO472751  21.725  28.165   8.745 -0.0080 -0.0951 -0.2140
 2899POPC   GL172752  21.840  28.060   8.354  0.0125 -0.0652  0.4205
 2899POPC   GL272753  21.559  28.012   8.280  0.1755  0.1075 -0.2589
 2899POPC   C1A72754  21.935  28.284   7.950 -0.1570 -0.1320  0.1899
 2899POPC   D2A72755  21.947  27.988   7.519  0.1163 -0.0064 -0.0265
 2899POPC   C3A72756  21.813  27.688   7.187 -0.1550  0.1794 -0.0992
 2899POPC   C4A72757  21.803  27.214   7.032  0.2541 -0.0680  0.0897
 2899POPC   C1B72758  21.693  27.806   7.877  0.3552  0.1429 -0.0933
 2899POPC   C2B72759  22.083  27.518   7.725  0.0539 -0.0150 -0.1805
 2899POPC   C3B72760  22.465  27.315   7.951  0.1431  0.0448 -0.0449
 2899POPC   C4B72761  22.744  27.384   8.390  0.0330  0.0276  0.3194
 2900POPC   NC372762  22.004  20.250  10.499 -0.1045 -0.3475 -0.2064
 2900POPC   PO472763  22.094  19.866  10.498  0.1073 -0.1202 -0.1898
 2900POPC   GL172764  22.329  19.875  10.239 -0.2178 -0.1417 -0.4689
 2900POPC   GL272765  22.369  20.154  10.093 -0.1646  0.1749  0.1785
 2900POPC   C1A72766  22.578  19.627   9.940  0.1937  0.0254  0.0578
 2900POPC   D2A72767  22.812  19.431   9.626 -0.2174  0.0996  0.1466
 2900POPC   C3A72768  23.271  19.259   9.507 -0.1380 -0.0274  0.1111
 2900POPC   C4A72769  23.283  18.884   9.202 -0.0372 -0.0833  0.2339
 2900POPC   C1B72770  22.750  20.462   9.951 -0.2710  0.1694 -0.2054
 2900POPC   C2B72771  23.212  20.460   9.916 -0.1998 -0.1745 -0.0280
 2900POPC   C3B72772  23.666  20.562   9.748  0.1331 -0.0040  0.1396
 2900POPC   C4B72773  24.104  20.717   9.572  0.0603 -0.2770  0.0115
 2901POPC   NC372774  22.072  19.752  13.879 -0.0176 -0.1326  0.2298
 2901POPC   PO472775  22.189  20.009  13.604 -0.4235 -0.1884  0.1316
 2901POPC   GL172776  22.605  20.069  13.742 -0.3201 -0.0483  0.1616
 2901POPC   GL272777  22.597  19.989  13.976  0.0902 -0.2341  0.0304
 2901POPC   C1A72778  23.062  20.102  13.730  0.2525 -0.0637 -0.0965
 2901POPC   D2A72779  23.366  19.977  14.075 -0.0698 -0.0348  0.2582
 2901POPC   C3A72780  23.627  20.308  14.287  0.0228  0.1616 -0.0157
 2901POPC   C4A72781  23.973  20.492  14.529 -0.2262 -0.2117 -0.1189
 2901POPC   C1B72782  22.935  20.289  14.105  0.3815 -0.0814 -0.2873
 2901POPC   C2B72783  23.214  20.619  14.359  0.0237  0.1577  0.1856
 2901POPC   C3B72784  23.196  20.923  14.728 -0.0559  0.0689 -0.3093
 2901POPC   C4B72785  22.869  20.957  15.069 -0.0320 -0.0375  0.2696
 2902POPC   NC372786  19.969  18.531   8.804  0.2671  0.2569 -0.1537
 2902POPC   PO472787  20.063  18.196   8.935  0.0007 -0.0036  0.1498
 2902POPC   GL172788  20.270  18.191   8.637  0.1569  0.4048  0.2539
 2902POPC   GL272789  20.531  18.220   8.623 -0.1644 -0.0337  0.0205
 2902POPC   C1A72790  20.256  18.535   8.323 -0.2156 -0.0802 -0.0243
 2902POPC   D2A72791  20.236  18.601   7.855  0.1539  0.2220  0.0597
 2902POPC   C3A72792  20.542  18.942   7.760  0.1750  0.1793  0.2947
 2902POPC   C4A72793  20.844  19.229   7.701  0.0160 -0.3770 -0.1015
 2902POPC   C1B72794  20.574  18.160   8.168 -0.0763  0.0869  0.1433
 2902POPC   C2B72795  20.749  18.224   7.731  0.2258 -0.0321  0.3752
 2902POPC   C3B72796  20.515  18.426   7.376 -0.1083 -0.0493  0.1150
 2902POPC   C4B72797  20.120  18.644   7.294  0.0493  0.4643 -0.0569
 2903POPC   NC372798  32.171  31.272   7.693  0.0918  0.1415  0.1947
 2903POPC   PO472799  32.226  31.624   7.847 -0.3074 -0.0068  0.0063
 2903POPC   GL172800  32.172  31.664   7.420 -0.0175 -0.1034  0.2303
 2903POPC   GL272801  32.466  31.747   7.429  0.0128  0.2418 -0.1140
 2903POPC   C1A72802  32.290  31.570   6.985 -0.1507  0.2105  0.1583
 2903POPC   D2A72803  32.321  31.612   6.546  0.1009 -0.0506  0.0553
 2903POPC   C3A72804  32.285  31.527   6.148  0.0758  0.0060  0.1390
 2903POPC   C4A72805  32.441  31.418   5.728  0.1659 -0.0267 -0.1897
 2903POPC   C1B72806  32.286  32.053   7.076  0.1595  0.1951 -0.1656
 2903POPC   C2B72807  32.414  32.221   6.647  0.2207  0.3729 -0.0988
 2903POPC   C3B72808  32.587  32.522   6.362  0.0785  0.0201  0.3178
 2903POPC   C4B72809  32.656  32.890   6.620 -0.0457 -0.0135  0.1762
 2904POPC   NC372810  20.383  23.544  10.548 -0.0540  0.2238 -0.3462
 2904POPC   PO472811  20.208  23.259  10.302  0.1905  0.0776  0.3383
 2904POPC   GL172812  20.253  23.336   9.825 -0.0599  0.0491  0.1601
 2904POPC   GL272813  20.039  23.416   9.670  0.2423  0.0015  0.0550
 2904POPC   C1A72814  20.523  23.674   9.661 -0.1813 -0.5845  0.1525
 2904POPC   D2A72815  20.903  23.679   9.387 -0.0363  0.3702  0.1572
 2904POPC   C3A72816  21.141  23.759   9.034 -0.0683  0.3673  0.1443
 2904POPC   C4A72817  21.500  23.883   8.692  0.1132 -0.1960 -0.0875
 2904POPC   C1B72818  20.338  23.352   9.328  0.2512  0.0718  0.4101
 2904POPC   C2B72819  20.678  23.367   9.031  0.0851 -0.0509  0.0820
 2904POPC   C3B72820  20.770  23.497   8.599  0.4294 -0.0112 -0.0765
 2904POPC   C4B72821  20.649  23.649   8.168  0.1218 -0.1301  0.2615
 2905POPC   NC372822  19.571  18.033   8.847 -0.0637  0.2458  0.0150
 2905POPC   PO472823  19.335  18.298   8.799  0.0072  0.1610 -0.1146
 2905POPC   GL172824  19.208  18.526   8.325  0.2403 -0.1852 -0.0732
 2905POPC   GL272825  18.971  18.697   8.275 -0.0647  0.2170  0.3544
 2905POPC   C1A72826  19.546  18.694   8.046 -0.2612  0.1016 -0.3008
 2905POPC   D2A72827  19.807  18.555   7.695 -0.0581  0.1548  0.0867
 2905POPC   C3A72828  19.628  18.270   7.367  0.1201  0.0266 -0.0082
 2905POPC   C4A72829  19.530  18.246   6.872 -0.2774  0.0494  0.1519
 2905POPC   C1B72830  18.839  18.670   7.843  0.1152 -0.1281  0.0463
 2905POPC   C2B72831  18.910  18.824   7.421 -0.2592  0.1224  0.0532
 2905POPC   C3B72832  18.934  18.883   6.951 -0.0060 -0.4665 -0.2703
 2905POPC   C4B72833  19.004  19.046   6.528 -0.0770  0.0895 -0.0781
 2906POPC   NC372834  17.854  15.567   7.961  0.0396  0.1458  0.3305
 2906POPC   PO472835  17.543  15.611   8.170  0.0309 -0.1543 -0.0525
 2906POPC   GL172836  17.343  15.584   7.890  0.3004  0.0487 -0.0019
 2906POPC   GL272837  17.459  15.403   7.642  0.0261 -0.2259  0.1601
 2906POPC   C1A72838  17.136  15.866   7.605  0.0014  0.0366 -0.0741
 2906POPC   D2A72839  16.773  16.170   7.570  0.1636  0.0544  0.0668
 2906POPC   C3A72840  16.953  16.371   7.191  0.0532  0.1400 -0.1062
 2906POPC   C4A72841  16.812  16.669   6.862 -0.1351  0.0078  0.1503
 2906POPC   C1B72842  17.647  15.592   7.264 -0.1901  0.0324 -0.4778
 2906POPC   C2B72843  17.634  15.641   6.796  0.0355 -0.0389 -0.2293
 2906POPC   C3B72844  17.451  15.665   6.417  0.3431 -0.0489  0.1055
 2906POPC   C4B72845  17.174  15.565   6.078  0.0031 -0.2430  0.1157
 2907POPC   NC372846  20.966  18.479   9.347  0.0409  0.1574 -0.0370
 2907POPC   PO472847  20.677  18.725   9.258 -0.2509 -0.1939 -0.0856
 2907POPC   GL172848  20.627  18.944   8.889  0.1042  0.2433 -0.2629
 2907POPC   GL272849  20.427  18.730   8.834 -0.1393 -0.0743 -0.1517
 2907POPC   C1A72850  20.687  19.358   8.739  0.0977  0.0960  0.4139
 2907POPC   D2A72851  21.112  19.519   8.425 -0.3689  0.2138 -0.0926
 2907POPC   C3A72852  21.203  19.890   8.143 -0.0498 -0.0889  0.3493
 2907POPC   C4A72853  21.391  20.292   7.935 -0.0233  0.1205  0.0240
 2907POPC   C1B72854  20.700  18.785   8.404 -0.1470 -0.4053 -0.0693
 2907POPC   C2B72855  20.861  18.647   8.008 -0.0245  0.2636  0.4074
 2907POPC   C3B72856  21.088  18.728   7.680 -0.3712  0.0540 -0.0323
 2907POPC   C4B72857  21.051  18.945   7.288  0.0382 -0.1401  0.0077
 2908POPC   NC372858  19.380  32.312   7.778  0.1046 -0.1295  0.2019
 2908POPC   PO472859  19.113  32.211   8.069  0.1775  0.0866  0.1928
 2908POPC   GL172860  18.973  32.032   7.741 -0.1456 -0.3331 -0.0248
 2908POPC   GL272861  19.144  31.797   7.743 -0.2674 -0.1435 -0.1995
 2908POPC   C1A72862  18.682  31.999   7.371  0.1274 -0.3165 -0.0343
 2908POPC   D2A72863  18.680  31.989   6.942  0.3955 -0.2123  0.0676
 2908POPC   C3A72864  18.726  31.796   6.579 -0.0813 -0.0274 -0.2818
 2908POPC   C4A72865  18.730  31.531   6.176 -0.1227 -0.0402  0.0456
 2908POPC   C1B72866  19.166  31.853   7.263 -0.1387 -0.0356  0.0930
 2908POPC   C2B72867  19.233  31.797   6.830  0.2116 -0.1429  0.0919
 2908POPC   C3B72868  19.184  31.636   6.403 -0.1684 -0.2682 -0.0596
 2908POPC   C4B72869  19.253  31.666   5.962 -0.0377  0.1513  0.0001
 2909POPC   NC372870  31.490  22.222  13.984  0.0654 -0.2664 -0.3426
 2909POPC   PO472871  31.529  22.545  14.246  0.2826 -0.1384 -0.0943
 2909POPC   GL172872  31.111  22.457  14.154  0.0453  0.0768  0.1075
 2909POPC   GL272873  31.007  22.669  14.340 -0.1832  0.0754 -0.2601
 2909POPC   C1A72874  30.663  22.296  14.290  0.2661 -0.1451  0.0924
 2909POPC   D2A72875  30.330  21.962  14.303  0.2077  0.3671 -0.0715
 2909POPC   C3A72876  30.066  22.332  14.473  0.0070  0.0708  0.0602
 2909POPC   C4A72877  29.618  22.444  14.344  0.0428  0.2079 -0.2157
 2909POPC   C1B72878  30.575  22.778  14.573  0.0224  0.1103  0.1698
 2909POPC   C2B72879  30.154  22.825  14.611 -0.1050  0.2329 -0.0008
 2909POPC   C3B72880  29.775  22.968  14.918  0.2085 -0.0517 -0.1700
 2909POPC   C4B72881  29.413  22.800  14.995 -0.0865 -0.0286  0.0392
 2910POPC   NC372882  17.368  23.692   8.694  0.0802  0.0321  0.2913
 2910POPC   PO472883  17.587  23.374   8.818 -0.0663 -0.1496 -0.0068
 2910POPC   GL172884  17.503  23.318   8.472 -0.1528 -0.0694  0.0125
 2910POPC   GL272885  17.396  23.092   8.451  0.1628 -0.0751  0.1254
 2910POPC   C1A72886  17.256  23.428   8.102 -0.0719  0.1344 -0.0766
 2910POPC   D2A72887  17.004  23.591   7.833  0.0339  0.1997 -0.1215
 2910POPC   C3A72888  17.114  23.777   7.415 -0.0163  0.3679 -0.0321
 2910POPC   C4A72889  17.145  24.167   7.231  0.0562 -0.3250 -0.0053
 2910POPC   C1B72890  17.433  22.899   8.033  0.4564  0.1375  0.0271
 2910POPC   C2B72891  17.395  22.675   7.574  0.1137 -0.1582  0.0634
 2910POPC   C3B72892  17.080  22.767   7.228  0.2050  0.1613  0.2767
 2910POPC   C4B72893  16.932  22.694   6.804  0.2162  0.1857 -0.1710
 2911POPC   NC372894  28.183  28.391   9.942  0.0665 -0.3539  0.2346
 2911POPC   PO472895  28.299  28.006  10.003 -0.0208  0.1974 -0.1642
 2911POPC   GL172896  28.063  27.699   9.810 -0.1306 -0.2676  0.0178
 2911POPC   GL272897  28.230  27.452   9.802  0.1061  0.1220 -0.1848
 2911POPC   C1A72898  27.869  27.368   9.500 -0.5244 -0.0308  0.0322
 2911POPC   D2A72899  27.824  27.338   9.049  0.0210 -0.3282  0.3837
 2911POPC   C3A72900  27.571  27.288   8.690  0.1078  0.1063 -0.1198
 2911POPC   C4A72901  27.453  27.040   8.301  0.2454  0.2361 -0.0446
 2911POPC   C1B72902  28.161  26.951   9.797 -0.1179  0.1195 -0.3213
 2911POPC   C2B72903  28.037  26.536   9.595 -0.2755 -0.2426 -0.0744
 2911POPC   C3B72904  28.015  26.056   9.592  0.2852 -0.1560 -0.1272
 2911POPC   C4B72905  28.175  25.646   9.628  0.3077  0.1235  0.0825
 2912POPC   NC372906  20.704  17.687   9.558  0.0489 -0.1867  0.2743
 2912POPC   PO472907  20.916  17.378   9.446 -0.0752 -0.0470  0.3243
 2912POPC   GL172908  21.123  17.395   9.134  0.1285  0.3196 -0.2891
 2912POPC   GL272909  20.943  17.494   8.908  0.2113 -0.1181  0.0058
 2912POPC   C1A72910  21.426  17.654   8.887  0.0084 -0.0059 -0.1099
 2912POPC   D2A72911  21.685  17.840   8.529 -0.1600 -0.0913  0.1923
 2912POPC   C3A72912  21.560  18.240   8.324  0.2857  0.1484  0.1634
 2912POPC   C4A72913  21.408  18.622   8.038  0.2597  0.1570 -0.1775
 2912POPC   C1B72914  21.143  17.444   8.462 -0.2066  0.0880  0.1733
 2912POPC   C2B72915  21.382  17.758   8.205 -0.0086  0.4173  0.3092
 2912POPC   C3B72916  21.681  17.912   7.904 -0.0188 -0.0537  0.1232
 2912POPC   C4B72917  21.807  18.181   7.610  0.0995  0.0674 -0.1454
 2913POPC   NC372918  31.780  17.062   8.367 -0.3688  0.2104 -0.2298
 2913POPC   PO472919  32.106  16.860   8.468  0.2201 -0.1234  0.1206
 2913POPC   GL172920  32.105  16.988   8.055  0.3685 -0.0941  0.1125
 2913POPC   GL272921  32.357  16.986   8.023  0.3804 -0.0957 -0.1329
 2913POPC   C1A72922  32.182  17.418   7.898 -0.3545  0.2777  0.5478
 2913POPC   D2A72923  32.092  17.789   8.162 -0.0649 -0.1584 -0.0556
 2913POPC   C3A72924  31.982  18.203   7.989  0.3631  0.1610 -0.1461
 2913POPC   C4A72925  31.659  18.419   7.810  0.0841 -0.2390 -0.2347
 2913POPC   C1B72926  32.451  17.115   7.590 -0.0581  0.0601 -0.0251
 2913POPC   C2B72927  32.229  17.453   7.377 -0.2716 -0.1005 -0.3346
 2913POPC   C3B72928  32.115  17.500   6.944  0.0201 -0.3494  0.0027
 2913POPC   C4B72929  31.993  17.887   6.689  0.1378 -0.1007 -0.0971
 2914POPC   NC372930  19.376  24.762   9.121  0.1537 -0.0842 -0.1768
 2914POPC   PO472931  19.009  24.587   9.058 -0.0961 -0.4506 -0.0788
 2914POPC   GL172932  19.198  24.813   8.719  0.1473  0.1470  0.3362
 2914POPC   GL272933  19.364  24.586   8.641 -0.1367 -0.0361  0.1445
 2914POPC   C1A72934  19.058  24.946   8.258  0.2311  0.0546  0.2202
 2914POPC   D2A72935  19.029  24.937   7.786  0.0966 -0.0093  0.1274
 2914POPC   C3A72936  18.982  24.684   7.429 -0.0144 -0.1131  0.2185
 2914POPC   C4A72937  18.796  24.333   7.264 -0.0629  0.2478 -0.1339
 2914POPC   C1B72938  19.522  24.783   8.257 -0.0283  0.2551 -0.0033
 2914POPC   C2B72939  19.540  24.672   7.844  0.0598 -0.0534  0.0090
 2914POPC   C3B72940  19.678  24.396   7.491  0.5780 -0.0274 -0.1420
 2914POPC   C4B72941  19.896  24.123   7.180 -0.1122  0.0509  0.2309
 2915POPC   NC372942  31.026  31.908   8.257  0.1631 -0.3076 -0.1429
 2915POPC   PO472943  30.935  32.300   8.263  0.0719  0.2450  0.2782
 2915POPC   GL172944  30.857  32.467   7.885  0.0422  0.2712 -0.0397
 2915POPC   GL272945  31.085  32.497   7.796  0.2936  0.1802 -0.0599
 2915POPC   C1A72946  30.650  32.624   7.516  0.0951 -0.0986  0.1782
 2915POPC   D2A72947  30.701  32.843   7.076  0.0428 -0.0634  0.0334
 2915POPC   C3A72948  31.077  32.589   6.947 -0.0812 -0.1891 -0.1742
 2915POPC   C4A72949  31.008  32.212   6.727 -0.1243  0.2164  0.1978
 2915POPC   C1B72950  31.220  32.682   7.424 -0.0424 -0.2183 -0.0570
 2915POPC   C2B72951  31.589  32.720   7.127  0.0106 -0.3480 -0.2582
 2915POPC   C3B72952  31.535  32.560   6.718  0.1097  0.0450 -0.2391
 2915POPC   C4B72953  31.502  32.216   6.342  0.1553 -0.0383 -0.0488
 2916POPC   NC372954  18.896  24.257   9.480  0.0986 -0.1311 -0.0261
 2916POPC   PO472955  19.215  24.466   9.499  0.2639  0.1227  0.1960
 2916POPC   GL172956  19.439  24.307   9.132  0.0662 -0.0238 -0.1747
 2916POPC   GL272957  19.546  24.108   9.246 -0.0010  0.3237  0.1424
 2916POPC   C1A72958  19.380  24.094   8.733 -0.0527  0.1351  0.0809
 2916POPC   D2A72959  19.331  24.213   8.326 -0.1509 -0.0131  0.0796
 2916POPC   C3A72960  19.460  24.026   7.955 -0.0326  0.0342  0.2752
 2916POPC   C4A72961  19.871  24.001   7.683 -0.0293  0.1164 -0.2836
 2916POPC   C1B72962  19.848  23.992   8.882 -0.0156  0.1980 -0.3135
 2916POPC   C2B72963  19.957  23.689   8.555 -0.1349 -0.0155  0.5712
 2916POPC   C3B72964  19.868  23.504   8.128  0.2010  0.0418 -0.0261
 2916POPC   C4B72965  20.222  23.420   7.869 -0.2586 -0.2006  0.3070
 2917POPC   NC372966  30.964  24.333  11.278  0.0799 -0.1083  0.1424
 2917POPC   PO472967  30.973  24.422  11.622  0.2853  0.0630 -0.2151
 2917POPC   GL172968  30.619  24.421  11.551 -0.1616  0.4154  0.2722
 2917POPC   GL272969  30.404  24.450  11.811  0.3031 -0.5401 -0.1742
 2917POPC   C1A72970  30.399  24.355  11.217 -0.0374 -0.1046 -0.1787
 2917POPC   D2A72971  29.989  24.167  11.100  0.0731  0.0594  0.1389
 2917POPC   C3A72972  29.929  23.846  10.759 -0.0719  0.1337  0.0583
 2917POPC   C4A72973  29.654  23.773  10.485 -0.0565  0.2894 -0.0458
 2917POPC   C1B72974  29.997  24.279  11.661 -0.3236  0.0314 -0.0454
 2917POPC   C2B72975  29.544  24.249  11.821  0.1808  0.0658  0.0695
 2917POPC   C3B72976  29.231  24.032  12.018 -0.0766  0.0784  0.1833
 2917POPC   C4B72977  28.943  23.634  12.122 -0.2050  0.1734 -0.1770
 2918POPC   NC372978  23.378  19.297  11.830 -0.2126 -0.0552  0.1838
 2918POPC   PO472979  23.500  19.059  11.590  0.3120 -0.3051 -0.3982
 2918POPC   GL172980  23.802  19.129  11.636  0.1310 -0.0799 -0.0976
 2918POPC   GL272981  23.884  19.187  11.908  0.1679 -0.0221  0.0445
 2918POPC   C1A72982  24.262  19.256  11.605  0.0796  0.0180  0.1443
 2918POPC   D2A72983  24.588  19.599  11.489 -0.1295  0.0819  0.1574
 2918POPC   C3A72984  24.706  19.898  11.863 -0.1771 -0.1596 -0.1057
 2918POPC   C4A72985  24.879  19.935  12.273 -0.0883 -0.0814 -0.2874
 2918POPC   C1B72986  23.785  19.646  11.804 -0.1221 -0.0913  0.0276
 2918POPC   C2B72987  23.856  20.084  11.605 -0.0404  0.0558 -0.0271
 2918POPC   C3B72988  24.152  20.476  11.500  0.3967 -0.0825  0.1263
 2918POPC   C4B72989  24.545  20.607  11.369 -0.0872  0.5235 -0.1747
 2919POPC   NC372990  20.193  23.747  10.038 -0.1845 -0.0608 -0.0057
 2919POPC   PO472991  20.402  24.027  10.271 -0.0404  0.2578 -0.0944
 2919POPC   GL172992  20.841  23.949  10.143 -0.0859  0.0274  0.1215
 2919POPC   GL272993  20.831  23.705  10.327 -0.1704  0.0236  0.2282
 2919POPC   C1A72994  21.286  23.843  10.161 -0.0126 -0.0439  0.0058
 2919POPC   D2A72995  21.640  23.965   9.920  0.4886 -0.0285 -0.1025
 2919POPC   C3A72996  21.858  23.747   9.672 -0.1115 -0.1430  0.1638
 2919POPC   C4A72997  22.343  23.573   9.627  0.0098  0.1791 -0.1610
 2919POPC   C1B72998  20.993  23.559   9.858 -0.1384 -0.1832 -0.0561
 2919POPC   C2B72999  21.386  23.615   9.620  0.1660 -0.3872 -0.1484
 2919POPC   C3B73000  21.595  23.809   9.224  0.3793  0.0780 -0.1637
 2919POPC   C4B73001  22.044  23.880   9.143  0.1172 -0.1083  0.2842
 2920POPC   NC373002  26.007  18.056  11.545  0.0578  0.1870  0.1661
 2920POPC   PO473003  25.790  17.911  11.232 -0.0780 -0.0180  0.4939
 2920POPC   GL173004  25.938  18.247  11.116 -0.0971 -0.0173  0.3432
 2920POPC   GL273005  25.949  18.285  10.844  0.0063 -0.0586  0.0695
 2920POPC   C1A73006  25.851  18.640  11.355  0.0292  0.1603  0.0326
 2920POPC   D2A73007  26.032  19.004  11.582 -0.1636  0.1396  0.1713
 2920POPC   C3A73008  26.127  19.412  11.771  0.0506  0.1194  0.0999
 2920POPC   C4A73009  26.074  19.918  11.838 -0.1525  0.2800  0.1674
 2920POPC   C1B73010  25.740  18.599  10.648  0.1699 -0.0742  0.1266
 2920POPC   C2B73011  25.725  19.049  10.533 -0.0031  0.1313  0.0881
 2920POPC   C3B73012  25.654  19.534  10.578  0.1430  0.2446  0.0616
 2920POPC   C4B73013  25.787  19.894  10.299  0.1770  0.0554  0.3481
 2921POPC   NC373014  27.437  28.428  10.445  0.1447  0.0191 -0.1020
 2921POPC   PO473015  27.437  28.031  10.489 -0.1574 -0.3118  0.0127
 2921POPC   GL173016  27.271  27.773  10.191 -0.0584 -0.0847  0.1070
 2921POPC   GL273017  27.177  27.700   9.937  0.1480  0.1583 -0.0483
 2921POPC   C1A73018  27.056  27.363  10.259 -0.1793 -0.0806 -0.0324
 2921POPC   D2A73019  26.760  27.165   9.958  0.0040  0.3469 -0.1603
 2921POPC   C3A73020  26.748  26.692   9.977  0.1170  0.0185 -0.3996
 2921POPC   C4A73021  26.829  26.244  10.094 -0.0894  0.1962 -0.0001
 2921POPC   C1B73022  26.931  27.528   9.564  0.1020  0.1345  0.2180
 2921POPC   C2B73023  26.868  27.188   9.325  0.0738  0.2535 -0.2510
 2921POPC   C3B73024  26.999  26.806   9.073  0.0864  0.0164 -0.2277
 2921POPC   C4B73025  26.753  26.518   8.756 -0.3280  0.2430  0.4465
 2922POPC   NC373026  31.835  18.130   9.303  0.0581 -0.2796  0.0724
 2922POPC   PO473027  31.762  18.031   8.895  0.3544 -0.1445  0.2186
 2922POPC   GL173028  31.649  18.251   8.600 -0.0944  0.0652 -0.0254
 2922POPC   GL273029  31.516  18.256   8.418  0.0243  0.3599  0.0195
 2922POPC   C1A73030  31.860  18.610   8.290 -0.1352 -0.2223 -0.1541
 2922POPC   D2A73031  31.903  18.946   7.947 -0.0484  0.0376 -0.1894
 2922POPC   C3A73032  31.770  18.847   7.516  0.1950 -0.3659 -0.1794
 2922POPC   C4A73033  31.994  18.697   7.104 -0.0073  0.2135 -0.0470
 2922POPC   C1B73034  31.372  18.700   8.290 -0.2045  0.0621 -0.3111
 2922POPC   C2B73035  31.376  18.977   7.872  0.1986 -0.2544 -0.5046
 2922POPC   C3B73036  31.292  19.184   7.437  0.0183  0.1063 -0.1882
 2922POPC   C4B73037  31.139  19.268   6.991  0.3067  0.1902 -0.1429
 2923POPC   NC373038  24.248  27.272  10.459  0.2471  0.0907 -0.0015
 2923POPC   PO473039  24.105  27.454  10.163  0.1652 -0.0896 -0.0927
 2923POPC   GL173040  24.082  27.156  10.000  0.3547  0.1921  0.2765
 2923POPC   GL273041  24.294  27.057   9.874  0.2512 -0.1107 -0.1010
 2923POPC   C1A73042  23.847  26.814   9.803  0.0787  0.4221 -0.0305
 2923POPC   D2A73043  23.794  26.361   9.801  0.2297 -0.0382  0.3218
 2923POPC   C3A73044  23.877  25.971   9.613 -0.1020  0.0148  0.3114
 2923POPC   C4A73045  24.023  25.558   9.386  0.0146  0.1294 -0.0995
 2923POPC   C1B73046  24.564  26.745   9.593 -0.3162  0.1323  0.0603
 2923POPC   C2B73047  24.678  26.462   9.237 -0.2951 -0.0592  0.1510
 2923POPC   C3B73048  24.657  26.078   8.968  0.0691 -0.1556 -0.2865
 2923POPC   C4B73049  24.750  25.647   8.979 -0.0618  0.0656 -0.2354
 2924POPC   NC373050  25.631  30.088   9.051 -0.2625 -0.0388 -0.1048
 2924POPC   PO473051  25.266  30.295   9.053 -0.0705  0.1239 -0.0736
 2924POPC   GL173052  25.237  30.353   8.664  0.0327 -0.2255  0.4001
 2924POPC   GL273053  25.014  30.222   8.564 -0.1025  0.0736 -0.0549
 2924POPC   C1A73054  25.446  30.345   8.241  0.2271 -0.0279 -0.0534
 2924POPC   D2A73055  25.462  30.191   7.805 -0.1055  0.3148  0.1967
 2924POPC   C3A73056  25.631  30.472   7.504  0.1618 -0.3613 -0.1825
 2924POPC   C4A73057  25.673  30.655   7.064 -0.2313 -0.1377 -0.1016
 2924POPC   C1B73058  24.867  30.257   8.127  0.1154 -0.1237  0.1812
 2924POPC   C2B73059  24.658  30.121   7.744  0.0208 -0.0894 -0.3094
 2924POPC   C3B73060  24.559  29.977   7.307  0.2984 -0.1386  0.0055
 2924POPC   C4B73061  24.774  29.936   6.942 -0.0719 -0.0817  0.2562
 2925POPC   NC373062  21.895  27.103   9.126 -0.0205  0.3072 -0.0060
 2925POPC   PO473063  22.089  27.425   9.058  0.0143 -0.1904  0.1751
 2925POPC   GL173064  22.092  27.418   8.681 -0.0534 -0.0313  0.0522
 2925POPC   GL273065  21.904  27.465   8.520  0.3578  0.1964 -0.0672
 2925POPC   C1A73066  22.302  27.113   8.377 -0.4142 -0.0463 -0.0793
 2925POPC   D2A73067  22.338  26.783   8.044 -0.0853  0.0431  0.0995
 2925POPC   C3A73068  22.737  26.589   7.875 -0.1386  0.1532 -0.0765
 2925POPC   C4A73069  23.008  26.230   7.893  0.1885 -0.1112  0.2078
 2925POPC   C1B73070  22.269  27.599   8.313 -0.1623 -0.0164 -0.1598
 2925POPC   C2B73071  22.383  27.886   8.022 -0.2778 -0.0103 -0.1398
 2925POPC   C3B73072  22.445  28.191   7.651 -0.0021 -0.0962  0.1040
 2925POPC   C4B73073  22.637  28.283   7.210 -0.1083  0.1377 -0.2533
 2926POPC   NC373074  21.951  21.816  11.807  0.1308  0.0305 -0.0318
 2926POPC   PO473075  21.666  22.048  11.844  0.0803  0.0072  0.3157
 2926POPC   GL173076  21.933  22.396  11.612 -0.1797  0.0182  0.0452
 2926POPC   GL273077  22.019  22.460  11.919  0.1127 -0.0999  0.0514
 2926POPC   C1A73078  22.045  22.337  11.192 -0.1057  0.0532  0.3342
 2926POPC   D2A73079  22.010  22.309  10.778 -0.1555 -0.0170  0.0294
 2926POPC   C3A73080  22.111  22.094  10.391 -0.3282  0.3169 -0.1979
 2926POPC   C4A73081  22.493  21.911  10.138 -0.5357 -0.1403 -0.0461
 2926POPC   C1B73082  22.485  22.538  11.867 -0.1975 -0.4462 -0.0970
 2926POPC   C2B73083  22.855  22.706  11.668 -0.0072 -0.0216 -0.2290
 2926POPC   C3B73084  23.272  22.572  11.702 -0.2112  0.0791 -0.1220
 2926POPC   C4B73085  23.468  22.544  12.075  0.1257  0.1057 -0.2827
 2927POPC   NC373086  28.980  26.294  14.365 -0.3165 -0.1660  0.1998
 2927POPC   PO473087  28.666  26.524  14.273 -0.2978 -0.1400  0.0485
 2927POPC   GL173088  28.501  26.489  14.697 -0.0785 -0.1653  0.1698
 2927POPC   GL273089  28.660  26.205  14.696  0.1212  0.1663 -0.0066
 2927POPC   C1A73090  28.419  26.277  15.111  0.3540  0.1464 -0.0605
 2927POPC   D2A73091  28.397  26.008  15.498  0.0678 -0.1188 -0.1741
 2927POPC   C3A73092  28.052  25.721  15.592 -0.2129  0.0441  0.2245
 2927POPC   C4A73093  27.751  25.493  15.486  0.0825  0.2619 -0.0840
 2927POPC   C1B73094  28.347  25.869  14.646 -0.1088 -0.0419 -0.1223
 2927POPC   C2B73095  28.080  25.470  14.659 -0.3113  0.0131  0.1031
 2927POPC   C3B73096  28.186  25.024  14.792 -0.0501 -0.3885 -0.0127
 2927POPC   C4B73097  27.895  24.742  14.790 -0.0491  0.0860  0.1950
 2928POPC   NC373098  19.958  23.763   9.333 -0.1530  0.0878 -0.3024
 2928POPC   PO473099  19.624  23.583   9.407  0.0850 -0.3227 -0.2565
 2928POPC   GL173100  19.743  23.509   8.953 -0.1848  0.2366 -0.0686
 2928POPC   GL273101  19.434  23.633   8.942 -0.1857  0.0738 -0.1208
 2928POPC   C1A73102  20.132  23.325   8.779  0.1626 -0.1825 -0.2115
 2928POPC   D2A73103  20.313  23.280   8.379 -0.1088 -0.1226  0.2512
 2928POPC   C3A73104  20.091  22.985   8.022 -0.1805 -0.3781 -0.2355
 2928POPC   C4A73105  19.726  22.803   7.996 -0.0844  0.2728  0.1086
 2928POPC   C1B73106  19.421  23.711   8.393  0.0592 -0.0849 -0.0323
 2928POPC   C2B73107  19.270  23.622   7.937 -0.0185  0.1462 -0.1227
 2928POPC   C3B73108  19.156  23.459   7.525 -0.2460  0.2074  0.1026
 2928POPC   C4B73109  18.763  23.375   7.331 -0.0881 -0.4170 -0.0396
 2929POPC   NC373110  28.348  16.920  14.658 -0.1064 -0.0565  0.0498
 2929POPC   PO473111  28.725  16.802  14.782  0.1210  0.2031 -0.1659
 2929POPC   GL173112  28.435  16.905  15.179 -0.2024  0.2574 -0.2162
 2929POPC   GL273113  28.541  16.888  15.459 -0.1393  0.0598 -0.5494
 2929POPC   C1A73114  28.207  17.257  15.336 -0.3448 -0.3105  0.1799
 2929POPC   D2A73115  27.721  17.397  15.154 -0.2161  0.0291 -0.1791
 2929POPC   C3A73116  27.630  17.867  14.973  0.1218 -0.2502 -0.3841
 2929POPC   C4A73117  27.353  18.205  15.008  0.2860 -0.0251  0.0217
 2929POPC   C1B73118  28.504  17.225  15.729  0.0150 -0.1866 -0.3171
 2929POPC   C2B73119  28.318  17.615  15.825 -0.1469  0.0395 -0.2551
 2929POPC   C3B73120  28.212  17.837  16.183  0.4362  0.2061 -0.0678
 2929POPC   C4B73121  27.866  17.921  16.476 -0.2719 -0.2203  0.1772
 2930POPC   NC373122  21.384  17.316  15.210  0.1639 -0.0545  0.2759
 2930POPC   PO473123  21.771  17.405  15.222 -0.1078  0.0796  0.2565
 2930POPC   GL173124  22.051  17.617  15.377  0.2977 -0.0782  0.2741
 2930POPC   GL273125  22.016  17.476  15.640  0.1011  0.1483  0.1792
 2930POPC   C1A73126  22.517  17.701  15.542  0.0441 -0.1407  0.0073
 2930POPC   D2A73127  22.498  17.998  15.926  0.2721 -0.1250 -0.3431
 2930POPC   C3A73128  22.690  17.904  16.366 -0.2272 -0.2037 -0.1946
 2930POPC   C4A73129  23.045  17.766  16.563  0.2275 -0.0646  0.1433
 2930POPC   C1B73130  22.405  17.234  15.564  0.1206  0.1916  0.1379
 2930POPC   C2B73131  22.797  17.324  15.789  0.0049 -0.2282  0.0635
 2930POPC   C3B73132  22.915  17.355  16.236  0.0086  0.2252  0.3508
 2930POPC   C4B73133  22.812  17.345  16.658 -0.0580  0.3311  0.0994
 2931POPC   NC373134  31.128  19.096   9.088  0.2706 -0.0970 -0.2653
 2931POPC   PO473135  31.304  19.222   9.447  0.2424 -0.2242  0.0695
 2931POPC   GL173136  31.475  19.427   9.171  0.1344 -0.0990  0.2297
 2931POPC   GL273137  31.299  19.654   9.131 -0.2231 -0.0932  0.0340
 2931POPC   C1A73138  31.889  19.339   8.903 -0.0590 -0.1842  0.0119
 2931POPC   D2A73139  31.993  19.045   8.541 -0.1697  0.1284 -0.0881
 2931POPC   C3A73140  32.360  19.032   8.182  0.1620 -0.1969  0.2212
 2931POPC   C4A73141  32.666  18.893   7.782  0.1498  0.0100  0.2474
 2931POPC   C1B73142  31.552  19.673   8.747  0.0326  0.0414 -0.0913
 2931POPC   C2B73143  31.769  19.759   8.410 -0.1020 -0.0286 -0.2083
 2931POPC   C3B73144  31.731  19.903   7.928  0.1090 -0.3705 -0.0042
 2931POPC   C4B73145  31.732  20.129   7.537  0.0829 -0.1539 -0.1841
 2932POPC   NC373146  21.988  19.870   9.876 -0.1152  0.0033  0.2004
 2932POPC   PO473147  21.643  19.670   9.768  0.0569  0.0756 -0.0868
 2932POPC   GL173148  21.783  19.784   9.456 -0.0561 -0.2545  0.1617
 2932POPC   GL273149  21.835  19.696   9.161  0.1260  0.1504 -0.1867
 2932POPC   C1A73150  22.144  20.117   9.349  0.0992  0.2856  0.0188
 2932POPC   D2A73151  22.359  20.366   9.654 -0.3645 -0.2226  0.1207
 2932POPC   C3A73152  22.537  20.756   9.517  0.2169  0.1400 -0.1280
 2932POPC   C4A73153  22.507  21.207   9.338  0.4708  0.0481  0.2627
 2932POPC   C1B73154  22.057  19.962   8.863  0.0008  0.0560 -0.0003
 2932POPC   C2B73155  22.124  19.989   8.442 -0.0190 -0.1635  0.3570
 2932POPC   C3B73156  22.050  19.879   7.935  0.0332  0.2681  0.0009
 2932POPC   C4B73157  21.988  19.574   7.559 -0.3021 -0.4025 -0.0334
 2933POPC   NC373158  23.944  28.712   9.537 -0.0314  0.1617 -0.0359
 2933POPC   PO473159  24.237  28.540   9.331  0.0629 -0.0105  0.1612
 2933POPC   GL173160  24.363  28.243   9.145  0.0109 -0.0838 -0.0788
 2933POPC   GL273161  24.120  28.094   9.054 -0.1355  0.1504  0.0666
 2933POPC   C1A73162  24.634  28.067   8.777 -0.0637 -0.1664  0.0908
 2933POPC   D2A73163  24.665  27.920   8.357  0.0494  0.0223  0.0114
 2933POPC   C3A73164  24.431  27.552   8.266  0.0027  0.1292 -0.1126
 2933POPC   C4A73165  24.292  27.131   8.042 -0.1592 -0.4448 -0.0272
 2933POPC   C1B73166  24.089  27.865   8.649  0.0526  0.1899 -0.3294
 2933POPC   C2B73167  24.039  27.449   8.522 -0.2151 -0.0636 -0.1788
 2933POPC   C3B73168  24.040  26.970   8.466  0.0055  0.0642 -0.0695
 2933POPC   C4B73169  24.200  26.566   8.320  0.0718 -0.3130  0.2742
 2934POPC   NC373170  26.530  17.977  12.668 -0.0930 -0.1818 -0.2353
 2934POPC   PO473171  26.445  17.925  12.298  0.2889  0.0195  0.2854
 2934POPC   GL173172  26.417  18.365  12.427  0.3942 -0.0344 -0.3726
 2934POPC   GL273173  26.611  18.432  12.152  0.0098 -0.2293 -0.2487
 2934POPC   C1A73174  26.405  18.836  12.443 -0.3274  0.3454 -0.1070
 2934POPC   D2A73175  26.040  19.057  12.660  0.0956 -0.1239  0.0527
 2934POPC   C3A73176  26.119  19.403  13.014 -0.2477 -0.2966  0.1429
 2934POPC   C4A73177  25.948  19.824  13.202 -0.1037  0.3616  0.0843
 2934POPC   C1B73178  26.833  18.839  12.161 -0.2110 -0.2849 -0.0713
 2934POPC   C2B73179  26.636  19.306  12.225  0.0535 -0.1818 -0.0907
 2934POPC   C3B73180  26.708  19.745  12.312  0.0903 -0.3253  0.2067
 2934POPC   C4B73181  26.549  20.177  12.387  0.0076  0.0374  0.0308
 2935POPC   NC373182  19.902  31.677   8.383  0.0037 -0.5977  0.1813
 2935POPC   PO473183  20.046  32.058   8.296 -0.0645 -0.1554  0.2853
 2935POPC   GL173184  20.254  32.058   7.972  0.6001  0.1018  0.0837
 2935POPC   GL273185  20.441  31.830   8.061  0.1379 -0.2072 -0.1299
 2935POPC   C1A73186  20.373  32.290   7.623 -0.1081 -0.0805  0.0951
 2935POPC   D2A73187  20.437  32.476   7.171  0.2989  0.3071  0.2161
 2935POPC   C3A73188  20.357  32.902   6.974 -0.3439 -0.2562  0.2033
 2935POPC   C4A73189  20.495  33.337   6.778 -0.1124 -0.1733  0.1972
 2935POPC   C1B73190  20.665  31.865   7.674  0.3274 -0.2611 -0.0987
 2935POPC   C2B73191  21.120  31.947   7.604  0.1559  0.0128 -0.2528
 2935POPC   C3B73192  21.373  32.305   7.496 -0.2442 -0.3650  0.0504
 2935POPC   C4B73193  21.406  32.709   7.343  0.0152  0.4382 -0.2390
 2936POPC   NC373194  27.267  17.820  11.019  0.1079  0.1878  0.1736
 2936POPC   PO473195  27.558  18.003  11.267  0.5934  0.1365 -0.1373
 2936POPC   GL173196  27.457  18.307  11.180 -0.2250  0.1365 -0.0862
 2936POPC   GL273197  27.510  18.333  10.904  0.0441 -0.0340 -0.3474
 2936POPC   C1A73198  27.382  18.733  11.438 -0.1535 -0.0322  0.0952
 2936POPC   D2A73199  27.481  19.193  11.318  0.3006 -0.0660  0.1200
 2936POPC   C3A73200  27.298  19.550  11.348 -0.1467 -0.0233 -0.0753
 2936POPC   C4A73201  26.914  19.751  11.337  0.3828  0.1330 -0.0629
 2936POPC   C1B73202  27.531  18.742  10.987 -0.0512 -0.1391  0.5144
 2936POPC   C2B73203  27.216  19.082  10.835  0.3996 -0.1593 -0.2331
 2936POPC   C3B73204  27.027  19.396  10.559  0.0533 -0.0712 -0.3401
 2936POPC   C4B73205  26.793  19.771  10.362  0.1751  0.2570  0.2461
 2937POPC   NC373206  17.854   0.299   8.385  0.0765  0.0180  0.1513
 2937POPC   PO473207  18.116   0.156   8.185 -0.0508 -0.0789  0.0697
 2937POPC   GL173208  18.304   0.067   7.811  0.2483 -0.1345 -0.0802
 2937POPC   GL273209  18.040   0.057   7.688  0.1267 -0.2298  0.3698
 2937POPC   C1A73210  18.547   0.058   7.427  0.0338  0.0592 -0.0852
 2937POPC   D2A73211  18.597   0.183   7.048 -0.1045 -0.2917 -0.0783
 2937POPC   C3A73212  18.653   0.062   6.632 -0.0085 -0.1739  0.0129
 2937POPC   C4A73213  18.953   0.268   6.330 -0.0881  0.0221  0.0626
 2937POPC   C1B73214  18.163   0.506   7.476  0.1377  0.0252 -0.0637
 2937POPC   C2B73215  18.370   0.677   7.044  0.2485  0.1136  0.0910
 2937POPC   C3B73216  18.583   0.599   6.612 -0.0275 -0.0789  0.2425
 2937POPC   C4B73217  18.801   0.741   6.181 -0.1784 -0.0423 -0.0302
 2938POPC   NC373218  26.878   0.351   9.174 -0.1294  0.1175 -0.0657
 2938POPC   PO473219  27.277   0.304   9.089  0.2080  0.2666  0.1402
 2938POPC   GL173220  27.319   0.313   8.678 -0.1381  0.2050 -0.1485
 2938POPC   GL273221  27.514   0.385   8.420  0.1610  0.0513  0.2532
 2938POPC   C1A73222  27.314  -0.061   8.394 -0.0668  0.3738  0.1882
 2938POPC   D2A73223  27.111  -0.042   7.978 -0.0478  0.1164 -0.1022
 2938POPC   C3A73224  27.433  -0.078   7.667 -0.4149  0.1093 -0.0268
 2938POPC   C4A73225  27.717   0.039   7.327 -0.0136 -0.1360  0.1487
 2938POPC   C1B73226  27.502   0.600   8.020  0.1708 -0.0221 -0.3115
 2938POPC   C2B73227  27.199   0.739   7.699 -0.0881 -0.3736 -0.0387
 2938POPC   C3B73228  27.205   0.972   7.321 -0.0391  0.0345 -0.1669
 2938POPC   C4B73229  27.217   1.081   6.830  0.1044 -0.1188 -0.2020
 2939POPC   NC373230  18.382  20.205   8.993  0.0645  0.1106 -0.1414
 2939POPC   PO473231  18.239  20.591   9.026  0.0131  0.2679  0.2466
 2939POPC   GL173232  18.377  20.701   8.682  0.3333  0.0929  0.2943
 2939POPC   GL273233  18.647  20.582   8.710 -0.0546  0.0002 -0.0777
 2939POPC   C1A73234  18.303  20.754   8.221  0.2146 -0.0804 -0.0281
 2939POPC   D2A73235  17.935  20.718   7.898 -0.2010  0.0370  0.2656
 2939POPC   C3A73236  17.737  20.839   7.548  0.0039 -0.3074  0.0126
 2939POPC   C4A73237  17.555  20.446   7.370 -0.1860  0.0700  0.1957
 2939POPC   C1B73238  18.708  20.997   8.469 -0.0430  0.2868 -0.2564
 2939POPC   C2B73239  18.853  21.099   8.084 -0.4166 -0.3418 -0.0876
 2939POPC   C3B73240  18.956  21.362   7.686  0.1715  0.2132 -0.2442
 2939POPC   C4B73241  19.113  21.322   7.228  0.1589 -0.1992 -0.2189
 2940POPC   NC373242  19.942  17.933  15.746  0.0641  0.1459  0.0019
 2940POPC   PO473243  20.131  18.154  15.461 -0.2095  0.0851 -0.0274
 2940POPC   GL173244  20.266  18.398  15.725  0.1699  0.3544 -0.3452
 2940POPC   GL273245  20.369  18.180  15.973 -0.0075 -0.3316  0.0951
 2940POPC   C1A73246  20.221  18.691  16.049  0.2423 -0.0137 -0.1736
 2940POPC   D2A73247  19.967  19.114  16.194 -0.1618 -0.0420  0.0497
 2940POPC   C3A73248  20.099  19.431  16.445  0.2171 -0.2186  0.0980
 2940POPC   C4A73249  20.149  19.554  16.903  0.0178 -0.1993 -0.1511
 2940POPC   C1B73250  20.373  18.324  16.417 -0.1207 -0.1189 -0.1426
 2940POPC   C2B73251  20.481  18.494  16.823  0.0800 -0.1057 -0.2397
 2940POPC   C3B73252  20.789  18.849  17.016  0.2297  0.3178 -0.1899
 2940POPC   C4B73253  20.995  19.239  16.896  0.0975 -0.3047 -0.2124
 2941POPC   NC373254  16.224  17.986  15.236 -0.2597  0.0261  0.1655
 2941POPC   PO473255  16.176  18.166  15.600 -0.1588  0.2006  0.1647
 2941POPC   GL173256  16.262  18.430  15.878 -0.0026  0.0155 -0.2627
 2941POPC   GL273257  16.473  18.305  16.038  0.2495  0.0292  0.1429
 2941POPC   C1A73258  16.208  18.595  16.350 -0.2727  0.0873  0.3408
 2941POPC   D2A73259  16.149  18.580  16.857 -0.1170 -0.1529  0.1620
 2941POPC   C3A73260  15.933  18.929  17.157 -0.0574  0.2801  0.2190
 2941POPC   C4A73261  15.668  19.267  17.216  0.2025 -0.1193 -0.0155
 2941POPC   C1B73262  16.738  18.377  16.414  0.2776  0.3219 -0.1339
 2941POPC   C2B73263  16.665  18.477  16.823 -0.0223 -0.1073  0.0877
 2941POPC   C3B73264  16.551  18.480  17.276 -0.2716  0.1140 -0.1313
 2941POPC   C4B73265  16.367  18.883  17.377  0.2174 -0.4240 -0.1271
 2942POPC   NC373266  16.839  18.579   8.809  0.2232 -0.2376 -0.0989
 2942POPC   PO473267  16.605  18.591   8.461  0.0561 -0.1792  0.0043
 2942POPC   GL173268  16.711  18.856   8.164  0.0340 -0.0931 -0.2101
 2942POPC   GL273269  16.962  18.955   8.039 -0.1279 -0.2181  0.1907
 2942POPC   C1A73270  16.577  19.145   7.809  0.1830  0.0242 -0.1025
 2942POPC   D2A73271  16.261  19.234   7.451  0.0103 -0.4657 -0.1077
 2942POPC   C3A73272  16.337  19.486   7.080 -0.0091  0.0313  0.0504
 2942POPC   C4A73273  16.285  19.741   6.662  0.1794  0.2010 -0.1089
 2942POPC   C1B73274  16.886  18.656   7.655  0.1757 -0.4858 -0.2528
 2942POPC   C2B73275  16.877  18.539   7.186  0.1156 -0.1218  0.0683
 2942POPC   C3B73276  16.881  18.530   6.684 -0.0688  0.0579  0.0039
 2942POPC   C4B73277  16.917  18.859   6.379 -0.4019 -0.0243  0.0179
 2943POPC   NC373278  23.765  29.796   8.730 -0.2367  0.1246  0.0332
 2943POPC   PO473279  23.817  30.173   8.851  0.0152  0.0215  0.0882
 2943POPC   GL173280  23.823  30.256   8.451  0.3010  0.0494 -0.4232
 2943POPC   GL273281  23.721  30.042   8.305 -0.2589  0.0160  0.0268
 2943POPC   C1A73282  24.082  30.364   8.074  0.1330  0.3853 -0.0073
 2943POPC   D2A73283  24.186  30.131   7.653 -0.1532  0.0272  0.2126
 2943POPC   C3A73284  23.838  30.190   7.286  0.0888 -0.2782 -0.0639
 2943POPC   C4A73285  23.542  30.412   6.991  0.1749 -0.2629  0.3508
 2943POPC   C1B73286  23.674  30.214   7.874 -0.0942  0.1288  0.0121
 2943POPC   C2B73287  23.725  30.578   7.619  0.0863 -0.1113  0.1256
 2943POPC   C3B73288  23.445  30.774   7.329  0.1346 -0.2265 -0.0725
 2943POPC   C4B73289  23.080  30.759   7.022 -0.0922  0.1477  0.0150
 2944POPC   NC373290  28.552  30.638   8.391  0.1265  0.0412  0.0818
 2944POPC   PO473291  28.358  30.926   8.603 -0.1210  0.0008  0.0669
 2944POPC   GL173292  28.309  30.979   8.180  0.0257  0.1361  0.1044
 2944POPC   GL273293  28.287  31.243   8.063 -0.0107 -0.1750  0.0906
 2944POPC   C1A73294  28.677  30.888   7.865 -0.1029  0.0493  0.2129
 2944POPC   D2A73295  28.988  31.004   7.535 -0.2332  0.0491  0.0820
 2944POPC   C3A73296  28.887  31.139   7.085 -0.3847 -0.0631 -0.0358
 2944POPC   C4A73297  28.664  31.110   6.681  0.2383  0.4399 -0.1879
 2944POPC   C1B73298  28.006  31.047   7.805  0.1476 -0.0128  0.0715
 2944POPC   C2B73299  27.792  31.090   7.438 -0.0879  0.1194 -0.1431
 2944POPC   C3B73300  27.617  30.838   7.076  0.1107 -0.0505 -0.2678
 2944POPC   C4B73301  27.680  30.747   6.571 -0.0977 -0.1640  0.1771
 2945POPC   NC373302  19.924  22.970   9.926 -0.0851  0.0144 -0.0449
 2945POPC   PO473303  20.285  22.856  10.036 -0.2095  0.2113 -0.0139
 2945POPC   GL173304  20.463  22.931   9.731  0.2716 -0.0582  0.1364
 2945POPC   GL273305  20.231  22.822   9.533 -0.3224 -0.0327 -0.1002
 2945POPC   C1A73306  20.793  23.196   9.565  0.0356 -0.1244  0.0791
 2945POPC   D2A73307  21.196  23.219   9.311  0.0121  0.0840 -0.2731
 2945POPC   C3A73308  21.456  23.391   9.035  0.0329  0.0639  0.2294
 2945POPC   C4A73309  21.872  23.545   8.774  0.1810 -0.1844  0.0254
 2945POPC   C1B73310  20.418  22.833   9.160 -0.0887  0.1679  0.1590
 2945POPC   C2B73311  20.580  22.996   8.722  0.1438  0.3393 -0.0187
 2945POPC   C3B73312  20.835  23.047   8.352 -0.3199  0.2813 -0.2301
 2945POPC   C4B73313  21.160  23.038   8.044  0.0866  0.2077 -0.3181
 2946POPC   NC373314  32.312  25.238   9.470  0.1124  0.0099  0.2505
 2946POPC   PO473315  32.096  24.882   9.614  0.2205 -0.3220  0.3128
 2946POPC   GL173316  32.189  24.893   9.173  0.0011 -0.3526 -0.0133
 2946POPC   GL273317  31.956  25.095   9.160  0.1442 -0.1302 -0.1758
 2946POPC   C1A73318  32.223  24.638   8.816  0.0917  0.1400 -0.0365
 2946POPC   D2A73319  32.021  24.260   8.631  0.1452 -0.0383 -0.0704
 2946POPC   C3A73320  32.152  24.006   8.246  0.2159 -0.1177  0.0171
 2946POPC   C4A73321  32.450  24.032   7.893  0.0436  0.0212  0.0050
 2946POPC   C1B73322  31.827  25.256   8.780  0.1423 -0.0460  0.3687
 2946POPC   C2B73323  31.763  25.145   8.295 -0.3474 -0.0752 -0.1283
 2946POPC   C3B73324  31.511  24.795   8.064 -0.0141  0.0058 -0.1057
 2946POPC   C4B73325  31.321  24.501   7.672  0.0457 -0.0654 -0.1227
 2947POPC   NC373326  19.016  28.620   8.586 -0.0075 -0.2267 -0.2025
 2947POPC   PO473327  18.899  28.751   8.247  0.2728 -0.0977  0.5316
 2947POPC   GL173328  18.863  28.481   7.810  0.2131 -0.0749 -0.3913
 2947POPC   GL273329  18.951  28.632   7.633  0.2231  0.2086 -0.3499
 2947POPC   C1A73330  18.733  28.203   7.424 -0.1028 -0.4554 -0.0470
 2947POPC   D2A73331  18.771  27.979   7.042 -0.2492  0.0916 -0.3990
 2947POPC   C3A73332  18.795  28.128   6.570  0.0259  0.3245  0.0989
 2947POPC   C4A73333  18.722  28.115   6.127 -0.3608 -0.0634  0.2739
 2947POPC   C1B73334  18.681  28.679   7.310 -0.1030  0.0804 -0.1342
 2947POPC   C2B73335  18.665  28.552   6.885 -0.1145 -0.1572 -0.0766
 2947POPC   C3B73336  18.351  28.291   6.775  0.1011  0.0372 -0.3062
 2947POPC   C4B73337  18.253  28.000   6.431 -0.1614  0.1657  0.1482
 2948POPC   NC373338  26.213  16.655   9.678 -0.2183  0.1147  0.0588
 2948POPC   PO473339  26.468  16.798   9.953 -0.1060 -0.0067 -0.1155
 2948POPC   GL173340  26.450  17.228   9.687  0.0807 -0.0697 -0.1472
 2948POPC   GL273341  26.285  17.191   9.532  0.0479 -0.4075  0.3186
 2948POPC   C1A73342  26.567  17.543   9.299 -0.0427 -0.0128 -0.0299
 2948POPC   D2A73343  26.661  18.007   9.118 -0.2218  0.1552  0.1871
 2948POPC   C3A73344  26.639  18.309   8.781  0.2453  0.2569  0.1140
 2948POPC   C4A73345  26.808  18.703   8.619  0.0158 -0.0995  0.0704
 2948POPC   C1B73346  26.024  17.282   9.138 -0.3860 -0.1250  0.0577
 2948POPC   C2B73347  25.822  17.426   8.704  0.3253 -0.0301  0.0301
 2948POPC   C3B73348  25.564  17.516   8.345 -0.4363  0.0665  0.0264
 2948POPC   C4B73349  25.180  17.419   8.090 -0.0588  0.0681  0.2220
 2949POPC   NC373350   0.041  17.089   8.075  0.0711 -0.2309  0.2898
 2949POPC   PO473351   0.349  16.896   8.045 -0.0226 -0.0837  0.0394
 2949POPC   GL173352   0.333  16.916   7.614  0.1479 -0.1829  0.1971
 2949POPC   GL273353   0.080  16.893   7.591 -0.2584  0.2860 -0.4114
 2949POPC   C1A73354   0.590  17.131   7.278  0.0495  0.0955 -0.1869
 2949POPC   D2A73355   0.844  17.477   7.103 -0.2746  0.2064  0.2339
 2949POPC   C3A73356   0.712  17.811   6.817  0.1575 -0.0687 -0.0244
 2949POPC   C4A73357   0.660  18.046   6.407 -0.0858 -0.2534  0.3822
 2949POPC   C1B73358  -0.010  17.200   7.272 -0.0127  0.1478 -0.2705
 2949POPC   C2B73359   0.238  17.496   7.060  0.1778  0.2257 -0.1978
 2949POPC   C3B73360   0.522  17.316   6.755  0.2087  0.0573  0.0995
 2949POPC   C4B73361   0.678  17.563   6.387  0.1980  0.0045 -0.0707
 2950POPC   NC373362  20.733  20.073  15.165  0.0617  0.0563  0.1884
 2950POPC   PO473363  20.471  19.768  15.148  0.0094 -0.0741 -0.0217
 2950POPC   GL173364  20.650  19.649  15.504  0.0567  0.0555  0.0723
 2950POPC   GL273365  20.662  19.759  15.779  0.0828  0.2334  0.1572
 2950POPC   C1A73366  21.085  19.874  15.463  0.1372 -0.1086  0.2782
 2950POPC   D2A73367  21.399  20.092  15.735 -0.1359  0.2243  0.0445
 2950POPC   C3A73368  21.530  20.105  16.151  0.0044  0.2072 -0.0212
 2950POPC   C4A73369  21.710  19.998  16.548 -0.1142 -0.1560 -0.4437
 2950POPC   C1B73370  20.756  19.961  16.164  0.0754 -0.1383  0.0837
 2950POPC   C2B73371  21.078  20.276  16.320  0.2255 -0.0165 -0.2928
 2950POPC   C3B73372  21.365  20.677  16.443  0.0946  0.2703  0.0267
 2950POPC   C4B73373  21.758  20.893  16.533 -0.3069  0.1008  0.0298
 2951POPC   NC373374  16.763  21.485   9.459  0.4106  0.0867  0.1180
 2951POPC   PO473375  16.559  21.733   9.269 -0.3876 -0.0455 -0.0952
 2951POPC   GL173376  16.374  21.531   9.034  0.0894  0.1464  0.3363
 2951POPC   GL273377  16.111  21.682   8.976  0.3108 -0.0223  0.0705
 2951POPC   C1A73378  16.407  21.165   8.698  0.4599  0.2616 -0.1026
 2951POPC   D2A73379  16.462  21.172   8.228  0.0242  0.2286 -0.1007
 2951POPC   C3A73380  16.136  21.173   7.888 -0.2022  0.1200  0.1387
 2951POPC   C4A73381  16.043  21.198   7.402  0.1113  0.2405 -0.0875
 2951POPC   C1B73382  16.404  21.624   8.619  0.0022 -0.1424  0.2199
 2951POPC   C2B73383  16.509  21.695   8.171  0.0208  0.1358 -0.3095
 2951POPC   C3B73384  16.556  21.398   7.818  0.0123 -0.0585  0.0942
 2951POPC   C4B73385  16.575  21.320   7.333  0.0915  0.0931 -0.4740
 2952POPC   NC373386  30.233  28.393   9.023  0.1782 -0.0392  0.2558
 2952POPC   PO473387  30.014  28.711   9.020 -0.0434 -0.1505  0.0626
 2952POPC   GL173388  29.830  28.546   8.737  0.0163 -0.0692 -0.2422
 2952POPC   GL273389  29.993  28.579   8.510 -0.0718  0.0545  0.0706
 2952POPC   C1A73390  29.553  28.215   8.641  0.1579  0.2171 -0.1774
 2952POPC   D2A73391  29.474  27.990   8.265  0.2282  0.3830  0.2170
 2952POPC   C3A73392  29.205  28.059   7.839 -0.0740  0.3678 -0.1219
 2952POPC   C4A73393  29.098  27.742   7.502 -0.1923  0.0449  0.0075
 2952POPC   C1B73394  29.801  28.316   8.248 -0.3054 -0.0799  0.0341
 2952POPC   C2B73395  29.748  28.180   7.784 -0.0907  0.2401  0.0465
 2952POPC   C3B73396  29.519  28.024   7.455  0.1018 -0.2137  0.1201
 2952POPC   C4B73397  29.297  28.013   7.032  0.1475  0.1411  0.0733
 2953POPC   NC373398  31.203  31.243   8.025 -0.1050 -0.2252 -0.2114
 2953POPC   PO473399  31.334  31.629   8.021 -0.4324 -0.0724 -0.1285
 2953POPC   GL173400  31.235  31.703   7.761 -0.0707 -0.1286 -0.2288
 2953POPC   GL273401  31.193  32.016   7.703  0.2040  0.0029  0.1294
 2953POPC   C1A73402  31.366  31.550   7.339 -0.1826 -0.1582 -0.1824
 2953POPC   D2A73403  31.348  31.308   6.908 -0.0514 -0.1326  0.3136
 2953POPC   C3A73404  31.402  31.250   6.474  0.2865  0.0831  0.0923
 2953POPC   C4A73405  31.484  31.233   6.026  0.2105 -0.1508 -0.2876
 2953POPC   C1B73406  31.258  32.204   7.228  0.3533 -0.0191  0.1559
 2953POPC   C2B73407  31.408  31.948   6.942  0.1823  0.0825  0.1364
 2953POPC   C3B73408  31.480  31.787   6.560 -0.3238  0.3222  0.0051
 2953POPC   C4B73409  31.844  31.714   6.295 -0.2606  0.3502  0.1682
 2954POPC   NC373410  25.714  17.839  10.689  0.1159 -0.3485  0.3014
 2954POPC   PO473411  26.080  17.906  10.536 -0.1855 -0.0643  0.0641
 2954POPC   GL173412  26.000  18.285  10.423 -0.0296  0.0142  0.2985
 2954POPC   GL273413  25.784  18.247  10.301 -0.0662  0.0720 -0.2247
 2954POPC   C1A73414  26.270  18.605  10.550 -0.0486 -0.0050  0.2689
 2954POPC   D2A73415  26.236  18.987  10.665  0.1699  0.2829 -0.2021
 2954POPC   C3A73416  26.039  19.369  10.816 -0.0408 -0.1534 -0.3088
 2954POPC   C4A73417  26.102  19.861  10.796  0.0301  0.1533  0.0254
 2954POPC   C1B73418  25.819  18.667  10.073 -0.0067  0.2211 -0.0280
 2954POPC   C2B73419  25.844  19.040   9.796  0.1211  0.2017 -0.1563
 2954POPC   C3B73420  25.958  19.444   9.734  0.2183 -0.0470 -0.1394
 2954POPC   C4B73421  26.049  19.908   9.714  0.1709 -0.2447 -0.2941
 2955POPC   NC373422  26.824  30.433   8.545  0.0673  0.1359 -0.0053
 2955POPC   PO473423  27.150  30.391   8.822  0.1639  0.2178 -0.1992
 2955POPC   GL173424  27.321  30.254   8.476  0.0674  0.1661 -0.3325
 2955POPC   GL273425  27.583  30.286   8.422 -0.0132  0.0217  0.0070
 2955POPC   C1A73426  27.083  30.379   8.072 -0.1837 -0.0305 -0.0748
 2955POPC   D2A73427  26.786  30.668   7.923  0.0618  0.1972  0.1531
 2955POPC   C3A73428  26.850  30.565   7.459  0.2598  0.3372  0.0338
 2955POPC   C4A73429  27.197  30.625   7.219 -0.2656  0.1144 -0.5306
 2955POPC   C1B73430  27.489  30.086   8.025  0.1277  0.1758 -0.1420
 2955POPC   C2B73431  27.254  30.260   7.632 -0.0344  0.6054  0.0418
 2955POPC   C3B73432  27.218  30.109   7.202  0.0549  0.0657  0.3062
 2955POPC   C4B73433  27.214  29.896   6.883 -0.0090 -0.0027  0.1824
 2956POPC   NC373434   0.701  16.729   8.339 -0.0906 -0.2195  0.0003
 2956POPC   PO473435   0.732  17.127   8.355  0.2053 -0.1084  0.0705
 2956POPC   GL173436   0.868  17.031   7.979 -0.0783  0.2696 -0.1834
 2956POPC   GL273437   0.790  17.045   7.707  0.0133 -0.2353  0.0147
 2956POPC   C1A73438   1.205  17.276   7.760  0.0346 -0.0998 -0.0802
 2956POPC   D2A73439   1.426  17.319   7.300 -0.2292 -0.2452 -0.1722
 2956POPC   C3A73440   1.692  17.034   7.051  0.2203 -0.1712  0.3007
 2956POPC   C4A73441   2.108  17.195   6.881 -0.3192  0.0294  0.1630
 2956POPC   C1B73442   1.051  16.946   7.376 -0.0023  0.1328 -0.1695
 2956POPC   C2B73443   1.193  16.949   6.991 -0.2702  0.1265  0.3916
 2956POPC   C3B73444   1.361  16.911   6.584  0.0086 -0.0294  0.1244
 2956POPC   C4B73445   1.447  16.824   6.144  0.0773 -0.1862  0.0261
 2957POPC   NC373446  21.287  30.939   8.013 -0.1960 -0.0641 -0.3227
 2957POPC   PO473447  20.943  30.972   8.150  0.1277  0.0374  0.1662
 2957POPC   GL173448  20.826  30.844   7.878 -0.1932  0.1451 -0.1795
 2957POPC   GL273449  20.966  30.786   7.627  0.1174  0.0276  0.0896
 2957POPC   C1A73450  20.519  30.918   7.522 -0.1599 -0.1988  0.2524
 2957POPC   D2A73451  20.295  31.082   7.169  0.1051  0.1022 -0.0630
 2957POPC   C3A73452  19.869  30.934   7.015  0.0382  0.2098 -0.1672
 2957POPC   C4A73453  19.551  30.586   6.970 -0.1573  0.0773  0.2248
 2957POPC   C1B73454  20.913  30.913   7.189 -0.1072 -0.0182  0.0053
 2957POPC   C2B73455  20.968  31.144   6.752 -0.0642 -0.3105  0.1854
 2957POPC   C3B73456  21.163  31.090   6.382  0.2690 -0.0566  0.1733
 2957POPC   C4B73457  21.532  30.854   6.181  0.1161  0.3001 -0.2026
 2958POPC   NC373458  29.925  17.990   8.688 -0.2847 -0.1034  0.2053
 2958POPC   PO473459  29.791  17.642   8.666 -0.1330  0.2369 -0.1137
 2958POPC   GL173460  29.639  17.864   8.311  0.2027 -0.1992 -0.1318
 2958POPC   GL273461  29.318  17.811   8.270 -0.1962  0.0847  0.2186
 2958POPC   C1A73462  29.548  18.320   8.364  0.0517  0.1360 -0.0412
 2958POPC   D2A73463  29.338  18.651   8.511 -0.0047 -0.0639 -0.0696
 2958POPC   C3A73464  29.079  18.678   8.075  0.2942 -0.0701  0.4174
 2958POPC   C4A73465  28.726  18.574   7.744 -0.2404  0.0953 -0.0839
 2958POPC   C1B73466  29.272  18.045   7.871 -0.0931 -0.1505 -0.3871
 2958POPC   C2B73467  29.031  18.195   7.492  0.3467 -0.1282 -0.3777
 2958POPC   C3B73468  28.879  17.975   7.113  0.1732  0.0872 -0.1209
 2958POPC   C4B73469  28.959  17.732   6.781 -0.0490  0.1242 -0.1674
 2959POPC   NC373470  22.134  21.739  12.682 -0.0369  0.0850 -0.3436
 2959POPC   PO473471  21.933  21.801  12.307 -0.0866  0.0231 -0.0722
 2959POPC   GL173472  22.209  21.593  12.255  0.4614  0.0826 -0.0578
 2959POPC   GL273473  22.443  21.635  12.010  0.0325 -0.0658 -0.2698
 2959POPC   C1A73474  22.562  21.342  12.441 -0.2172  0.1886  0.3124
 2959POPC   D2A73475  23.025  21.227  12.394 -0.0607  0.0200  0.0578
 2959POPC   C3A73476  23.362  21.507  12.558  0.0355 -0.1859  0.2842
 2959POPC   C4A73477  23.649  21.786  12.802 -0.0442 -0.1161  0.0121
 2959POPC   C1B73478  22.639  21.950  11.776 -0.0283  0.2199 -0.0881
 2959POPC   C2B73479  22.906  22.277  11.881 -0.1711 -0.2305 -0.1119
 2959POPC   C3B73480  23.016  22.646  12.138  0.3435 -0.1739 -0.1775
 2959POPC   C4B73481  23.102  23.103  12.130  0.0055 -0.2924 -0.0744
 2960POPC   NC373482  18.395  26.504   8.444  0.1980  0.1320 -0.1271
 2960POPC   PO473483  18.546  26.840   8.387  0.2044  0.0777  0.2286
 2960POPC   GL173484  18.392  26.704   8.047  0.2542 -0.0846 -0.1173
 2960POPC   GL273485  18.480  26.809   7.805  0.0860  0.0846  0.1529
 2960POPC   C1A73486  18.082  26.528   7.746 -0.0929 -0.1139 -0.0072
 2960POPC   D2A73487  17.768  26.672   7.427  0.0322  0.2915  0.4457
 2960POPC   C3A73488  17.519  26.559   7.021 -0.1266  0.0393  0.0683
 2960POPC   C4A73489  17.130  26.621   6.795  0.1771  0.0103 -0.1279
 2960POPC   C1B73490  18.336  26.684   7.365  0.0624  0.1244  0.0606
 2960POPC   C2B73491  18.470  26.671   6.921 -0.1603 -0.1254  0.0286
 2960POPC   C3B73492  18.403  26.621   6.442 -0.2948  0.2672  0.0434
 2960POPC   C4B73493  18.059  26.710   6.216 -0.0354 -0.3327 -0.0773
 2961POPC   NC373494  23.232  29.192   8.737 -0.0672  0.0087 -0.1463
 2961POPC   PO473495  23.582  29.311   8.851 -0.0214  0.2193 -0.0664
 2961POPC   GL173496  23.758  29.400   8.478 -0.0998 -0.3921  0.3072
 2961POPC   GL273497  23.516  29.574   8.363  0.2667  0.0269  0.0911
 2961POPC   C1A73498  24.032  29.656   8.215 -0.0935  0.1283  0.1148
 2961POPC   D2A73499  24.077  29.554   7.730 -0.3161  0.0309 -0.3436
 2961POPC   C3A73500  24.065  29.683   7.345 -0.1555 -0.0832 -0.0626
 2961POPC   C4A73501  23.900  29.435   6.994  0.1452 -0.1044 -0.1605
 2961POPC   C1B73502  23.600  29.703   7.902  0.0074 -0.0036 -0.0880
 2961POPC   C2B73503  23.548  29.808   7.446 -0.2212 -0.1234 -0.1274
 2961POPC   C3B73504  23.601  29.859   6.983 -0.1045  0.0553  0.1512
 2961POPC   C4B73505  23.634  29.714   6.551 -0.0005  0.0506 -0.3281
 2962POPC   NC373506  31.060  27.675   8.905  0.0120  0.0860 -0.0384
 2962POPC   PO473507  31.234  28.003   8.716 -0.1263  0.0335 -0.1230
 2962POPC   GL173508  31.004  27.831   8.398  0.0445  0.2635  0.0180
 2962POPC   GL273509  31.226  27.876   8.212 -0.1262 -0.0214  0.3583
 2962POPC   C1A73510  30.650  27.904   8.158  0.1180 -0.0926 -0.1765
 2962POPC   D2A73511  30.498  27.674   7.809  0.1487 -0.1100 -0.3696
 2962POPC   C3A73512  30.579  27.584   7.363  0.2719  0.2569  0.1492
 2962POPC   C4A73513  30.408  27.271   7.066  0.2379 -0.0475  0.2235
 2962POPC   C1B73514  31.391  27.764   7.812 -0.0211  0.1928  0.1762
 2962POPC   C2B73515  31.266  27.629   7.361 -0.1638  0.0031 -0.0056
 2962POPC   C3B73516  30.963  27.593   7.014  0.0406  0.1981 -0.1266
 2962POPC   C4B73517  30.630  27.618   6.748  0.3042 -0.1192 -0.0945
 2963POPC   NC373518  23.129  18.045  13.368  0.3398 -0.3870 -0.3854
 2963POPC   PO473519  22.776  18.211  13.474  0.0980 -0.2286  0.0131
 2963POPC   GL173520  23.059  18.462  13.635 -0.3577 -0.1637  0.0811
 2963POPC   GL273521  23.246  18.512  13.514 -0.2395 -0.2009 -0.0508
 2963POPC   C1A73522  23.316  18.683  13.969 -0.2321 -0.0584 -0.1161
 2963POPC   D2A73523  23.725  18.894  13.945 -0.1497  0.0796  0.1696
 2963POPC   C3A73524  24.043  19.219  14.085 -0.0125  0.0636 -0.1718
 2963POPC   C4A73525  24.129  19.650  13.948 -0.1053 -0.1145 -0.1330
 2963POPC   C1B73526  23.708  18.423  13.527  0.0830  0.0070 -0.0844
 2963POPC   C2B73527  24.074  18.704  13.627  0.1719  0.0688 -0.1952
 2963POPC   C3B73528  24.382  19.060  13.817 -0.0804  0.0126 -0.0817
 2963POPC   C4B73529  24.657  19.337  14.090  0.0369  0.5585 -0.0457
 2964POPC   NC373530  19.817  29.403   7.804 -0.1673 -0.1982  0.3260
 2964POPC   PO473531  19.787  29.790   7.877 -0.2286 -0.3174 -0.2847
 2964POPC   GL173532  19.726  29.779   7.512  0.1969  0.0394 -0.0231
 2964POPC   GL273533  19.941  29.953   7.380 -0.0958 -0.0666 -0.0773
 2964POPC   C1A73534  19.861  29.464   7.284 -0.1439 -0.1576 -0.0494
 2964POPC   D2A73535  19.938  29.115   6.997 -0.1284 -0.3598  0.0080
 2964POPC   C3A73536  19.946  29.250   6.546  0.1159  0.0729 -0.2986
 2964POPC   C4A73537  19.878  29.550   6.202  0.2010  0.0284  0.0665
 2964POPC   C1B73538  19.791  29.808   6.972 -0.2080 -0.0215 -0.3132
 2964POPC   C2B73539  19.572  29.724   6.582 -0.0787  0.0710 -0.3027
 2964POPC   C3B73540  19.412  29.638   6.160 -0.2111  0.0874 -0.4959
 2964POPC   C4B73541  19.287  29.834   5.766 -0.1582 -0.0665  0.1208
 2965POPC   NC373542  27.887  30.777   8.469 -0.2002 -0.0612  0.1025
 2965POPC   PO473543  28.081  30.473   8.634 -0.1501  0.1746 -0.0015
 2965POPC   GL173544  28.217  30.357   8.178 -0.0277 -0.2807 -0.1964
 2965POPC   GL273545  28.168  30.633   8.004 -0.0553 -0.2880  0.0114
 2965POPC   C1A73546  28.317  30.050   7.866  0.1934 -0.2312  0.4250
 2965POPC   D2A73547  28.604  30.026   7.512  0.3298 -0.0372  0.0977
 2965POPC   C3A73548  28.447  29.745   7.191 -0.1276 -0.3020 -0.2384
 2965POPC   C4A73549  28.305  29.532   6.818  0.3876  0.0513 -0.0414
 2965POPC   C1B73550  27.849  30.366   7.825  0.1129  0.3519 -0.2749
 2965POPC   C2B73551  27.678  30.238   7.371 -0.0861  0.0290 -0.0769
 2965POPC   C3B73552  27.643  30.165   6.946 -0.0041 -0.0186 -0.3040
 2965POPC   C4B73553  27.510  30.128   6.497  0.0197 -0.2753  0.0855
 2966POPC   NC373554  31.057  23.746  10.824 -0.2401 -0.1534 -0.0942
 2966POPC   PO473555  31.039  23.438  11.039  0.0284  0.2973  0.3065
 2966POPC   GL173556  30.780  23.209  10.822  0.0668 -0.1344  0.1801
 2966POPC   GL273557  30.625  23.442  10.773 -0.1115  0.0571 -0.1944
 2966POPC   C1A73558  30.559  22.873  10.566  0.0686 -0.1958 -0.1048
 2966POPC   D2A73559  30.185  22.586  10.438 -0.6118  0.1966 -0.1504
 2966POPC   C3A73560  29.829  22.564  10.662 -0.0582  0.1636 -0.2475
 2966POPC   C4A73561  29.664  22.229  10.977  0.1039 -0.0832  0.1204
 2966POPC   C1B73562  30.158  23.447  10.610 -0.0716  0.0244  0.3011
 2966POPC   C2B73563  29.721  23.286  10.559 -0.0683 -0.1645 -0.1017
 2966POPC   C3B73564  29.274  23.346  10.637  0.0816 -0.0558 -0.2646
 2966POPC   C4B73565  28.959  23.518  11.011 -0.0059  0.1966 -0.2675
 2967POPC   NC373566  20.304  25.764   9.297 -0.0135 -0.0349  0.2005
 2967POPC   PO473567  20.411  26.128   9.271  0.1300 -0.0302 -0.2083
 2967POPC   GL173568  20.577  26.060   8.975  0.0415 -0.1190 -0.1097
 2967POPC   GL273569  20.444  26.229   8.725  0.0626 -0.1426  0.2508
 2967POPC   C1A73570  20.862  25.724   8.857 -0.0488 -0.2295 -0.0953
 2967POPC   D2A73571  20.815  25.403   8.518 -0.0503 -0.2919 -0.4690
 2967POPC   C3A73572  21.176  25.255   8.283  0.0895  0.1262  0.0785
 2967POPC   C4A73573  21.185  25.163   7.830 -0.1233  0.2350  0.3074
 2967POPC   C1B73574  20.717  25.955   8.422 -0.0573 -0.0342 -0.0483
 2967POPC   C2B73575  20.743  25.652   8.068 -0.0879  0.1531  0.1059
 2967POPC   C3B73576  20.599  25.233   7.938 -0.0223  0.0203 -0.2811
 2967POPC   C4B73577  20.349  24.837   7.899  0.2978  0.0524 -0.0017
 2968POPC   NC373578  21.930  32.338   8.605 -0.1113  0.0765  0.1819
 2968POPC   PO473579  21.518  32.397   8.612  0.2647  0.0476 -0.0177
 2968POPC   GL173580  21.557  32.351   8.235 -0.1458 -0.3213  0.2487
 2968POPC   GL273581  21.302  32.380   8.106 -0.1726 -0.1043 -0.1282
 2968POPC   C1A73582  21.815  32.363   7.851  0.2280  0.0905 -0.3709
 2968POPC   D2A73583  22.035  32.304   7.463 -0.1395 -0.1828 -0.2228
 2968POPC   C3A73584  21.852  32.467   7.085 -0.1741 -0.1110 -0.1471
 2968POPC   C4A73585  21.999  32.590   6.683  0.4348  0.1722  0.1206
 2968POPC   C1B73586  21.288  32.778   7.878 -0.3674  0.1431  0.1049
 2968POPC   C2B73587  21.457  33.147   7.757  0.1606 -0.0470  0.2639
 2968POPC   C3B73588  21.625  33.572   7.519 -0.0488  0.2760  0.0545
 2968POPC   C4B73589  21.882  33.944   7.356 -0.0886  0.2190  0.2668
 2969POPC   NC373590  21.959  24.455  12.089 -0.1533  0.4535 -0.2856
 2969POPC   PO473591  21.851  24.090  12.185  0.0758 -0.2741 -0.4637
 2969POPC   GL173592  22.176  24.041  12.065 -0.0248 -0.0925  0.2221
 2969POPC   GL273593  22.401  24.206  11.917  0.0159 -0.0238  0.1416
 2969POPC   C1A73594  22.515  23.799  12.237 -0.0599  0.0752  0.1624
 2969POPC   D2A73595  22.801  23.509  12.045  0.1701 -0.1774 -0.0750
 2969POPC   C3A73596  23.290  23.532  11.977  0.1364  0.0937 -0.2605
 2969POPC   C4A73597  23.419  23.191  11.772  0.1426 -0.1772  0.2587
 2969POPC   C1B73598  22.785  24.217  12.100 -0.0155 -0.0580  0.1684
 2969POPC   C2B73599  23.193  24.213  11.946  0.3957 -0.2442 -0.0739
 2969POPC   C3B73600  23.605  23.968  11.980 -0.2537  0.2242  0.2189
 2969POPC   C4B73601  24.091  23.956  11.910  0.0239  0.0578 -0.0121
 2970POPC   NC373602  30.912  20.327  12.418 -0.3599  0.2973 -0.1562
 2970POPC   PO473603  31.057  20.613  12.169 -0.1594 -0.0502 -0.0836
 2970POPC   GL173604  30.719  20.574  11.921  0.4127  0.1588 -0.1012
 2970POPC   GL273605  30.747  20.794  11.767 -0.0090 -0.2030 -0.1122
 2970POPC   C1A73606  30.414  20.243  11.902 -0.1911 -0.2736 -0.3110
 2970POPC   D2A73607  30.035  20.023  11.987 -0.1878  0.3489  0.0330
 2970POPC   C3A73608  29.633  20.036  11.869  0.1197  0.1985 -0.0202
 2970POPC   C4A73609  29.233  20.265  11.976 -0.1501  0.1029 -0.0194
 2970POPC   C1B73610  30.421  21.149  11.687 -0.0548  0.4056  0.1091
 2970POPC   C2B73611  29.953  21.170  11.740 -0.1370 -0.0780 -0.2636
 2970POPC   C3B73612  29.542  21.071  11.998  0.0504 -0.0632  0.1713
 2970POPC   C4B73613  29.251  21.281  12.263  0.0405 -0.2515 -0.0772
 2971POPC   NC373614  31.447  21.565  12.290 -0.0598  0.4460 -0.1764
 2971POPC   PO473615  31.354  21.287  12.590  0.0795  0.1671  0.3237
 2971POPC   GL173616  30.947  21.329  12.461 -0.2121 -0.1243  0.0316
 2971POPC   GL273617  30.849  21.549  12.615 -0.0644 -0.0870 -0.0784
 2971POPC   C1A73618  30.595  21.400  12.155  0.0510 -0.1270 -0.1782
 2971POPC   D2A73619  30.269  21.666  11.995 -0.1807  0.3261 -0.1247
 2971POPC   C3A73620  29.965  22.039  12.069 -0.0811  0.1353 -0.1790
 2971POPC   C4A73621  29.545  22.129  12.169 -0.0518  0.0650 -0.0211
 2971POPC   C1B73622  30.403  21.583  12.566  0.0370  0.1606 -0.1386
 2971POPC   C2B73623  30.081  21.909  12.532  0.0889  0.1756  0.0835
 2971POPC   C3B73624  29.821  22.225  12.598  0.0188 -0.0375  0.1968
 2971POPC   C4B73625  29.413  22.434  12.530  0.0996  0.1538  0.0546
 2972POPC   NC373626  20.340  20.610  15.591 -0.0356  0.1800 -0.1422
 2972POPC   PO473627  20.454  20.485  15.232  0.2082  0.0227 -0.2588
 2972POPC   GL173628  20.760  20.465  15.535 -0.0040 -0.3941  0.1425
 2972POPC   GL273629  20.840  20.215  15.720  0.0755 -0.3054 -0.3116
 2972POPC   C1A73630  21.189  20.552  15.673 -0.3699 -0.2354 -0.1374
 2972POPC   D2A73631  21.476  20.898  15.848 -0.1444 -0.0445  0.2027
 2972POPC   C3A73632  21.716  20.652  16.112 -0.1884  0.0945  0.0038
 2972POPC   C4A73633  21.988  20.346  16.248 -0.0949  0.2404 -0.4107
 2972POPC   C1B73634  20.699  20.524  16.005  0.0193  0.0831  0.0638
 2972POPC   C2B73635  20.596  20.477  16.443  0.3154  0.1533  0.0997
 2972POPC   C3B73636  20.713  20.591  16.867 -0.3105 -0.2321  0.0458
 2972POPC   C4B73637  20.621  20.669  17.317  0.0684  0.0284  0.1465
 2973POPC   NC373638  30.836  18.195   9.098  0.1081 -0.0377  0.2296
 2973POPC   PO473639  30.509  18.010   8.973  0.2760  0.0124  0.0624
 2973POPC   GL173640  30.409  18.184   8.568  0.1749 -0.1385 -0.0120
 2973POPC   GL273641  30.620  18.137   8.440  0.1759  0.1264 -0.1313
 2973POPC   C1A73642  30.112  18.228   8.216  0.1899  0.0747  0.0191
 2973POPC   D2A73643  29.823  18.034   7.932 -0.0366  0.2759  0.1538
 2973POPC   C3A73644  29.759  18.167   7.483 -0.1368 -0.0420  0.0967
 2973POPC   C4A73645  29.996  17.979   7.078  0.0209 -0.0202  0.3812
 2973POPC   C1B73646  30.554  18.335   8.020  0.1699  0.0567 -0.0626
 2973POPC   C2B73647  30.620  18.595   7.637  0.2540  0.4343 -0.2744
 2973POPC   C3B73648  30.519  18.832   7.229  0.0822 -0.1487 -0.0038
 2973POPC   C4B73649  30.492  19.182   6.924 -0.4368 -0.3194 -0.2812
 2974POPC   NC373650  21.113  23.408  10.615 -0.2740  0.0451  0.0922
 2974POPC   PO473651  20.777  23.220  10.622  0.1029 -0.4626 -0.0183
 2974POPC   GL173652  20.978  23.030  10.325  0.3311 -0.2551  0.0282
 2974POPC   GL273653  20.876  22.842  10.014  0.0762  0.0016 -0.0271
 2974POPC   C1A73654  21.258  23.113   9.960  0.1607 -0.0746  0.3394
 2974POPC   D2A73655  21.329  22.820   9.545  0.1198  0.2963 -0.1703
 2974POPC   C3A73656  21.617  22.867   9.128 -0.0172 -0.2312  0.0027
 2974POPC   C4A73657  21.788  23.043   8.738 -0.0159  0.5397  0.2605
 2974POPC   C1B73658  20.807  22.690   9.543  0.1556 -0.0766 -0.3977
 2974POPC   C2B73659  21.018  22.675   9.127 -0.1999  0.1670 -0.1989
 2974POPC   C3B73660  21.123  23.031   8.859  0.0600 -0.0021  0.1130
 2974POPC   C4B73661  21.394  23.254   8.548  0.1314 -0.3552  0.0584
 2975POPC   NC373662  30.171  18.676  11.443  0.0876 -0.2530  0.1367
 2975POPC   PO473663  30.237  18.961  11.738 -0.2364  0.0965 -0.1905
 2975POPC   GL173664  30.027  19.385  11.846  0.1343  0.2833 -0.1641
 2975POPC   GL273665  30.148  19.439  12.044  0.0987  0.1784  0.1860
 2975POPC   C1A73666  29.787  19.646  11.535  0.0550  0.3334  0.1193
 2975POPC   D2A73667  29.972  19.737  11.103 -0.2415  0.0951  0.1204
 2975POPC   C3A73668  29.622  19.949  10.997  0.4861  0.2475 -0.1333
 2975POPC   C4A73669  29.213  20.043  10.854  0.3619  0.3404 -0.3132
 2975POPC   C1B73670  29.758  19.552  12.084  0.0521 -0.1174 -0.2084
 2975POPC   C2B73671  29.378  19.600  11.878  0.1904  0.0247  0.1596
 2975POPC   C3B73672  29.154  19.927  11.624  0.0122  0.1348 -0.0108
 2975POPC   C4B73673  28.897  19.949  11.236  0.0552 -0.1410 -0.1585
 2976POPC   NC373674  32.537  23.304   9.696  0.3558 -0.0203  0.0417
 2976POPC   PO473675  32.189  23.422   9.793  0.1592  0.2245  0.0449
 2976POPC   GL173676  32.029  23.396   9.425  0.0220  0.0957 -0.1595
 2976POPC   GL273677  32.098  23.139   9.315 -0.1907  0.0013 -0.3525
 2976POPC   C1A73678  31.721  23.311   9.098  0.2822  0.1247 -0.2657
 2976POPC   D2A73679  31.651  23.301   8.671 -0.0777 -0.1797  0.2281
 2976POPC   C3A73680  31.520  22.996   8.318  0.3403 -0.2347  0.0821
 2976POPC   C4A73681  31.189  22.672   8.230 -0.1483 -0.1419 -0.2073
 2976POPC   C1B73682  31.792  22.846   9.119  0.0640  0.0945 -0.0372
 2976POPC   C2B73683  31.467  22.930   8.822  0.0473  0.2584 -0.3654
 2976POPC   C3B73684  31.208  23.245   8.904  0.2550 -0.2131  0.1661
 2976POPC   C4B73685  30.890  23.498   8.657 -0.0252 -0.1241  0.0110
 2977POPC   NC373686  21.652  31.446   8.372 -0.0785 -0.2230 -0.1630
 2977POPC   PO473687  21.265  31.434   8.284 -0.1457 -0.2065 -0.0182
 2977POPC   GL173688  21.461  31.381   7.895  0.2475  0.1382  0.0548
 2977POPC   GL273689  21.472  31.548   7.649 -0.0822 -0.1060  0.0167
 2977POPC   C1A73690  21.385  31.086   7.528  0.0875 -0.1639  0.0939
 2977POPC   D2A73691  21.387  31.087   7.087  0.0189  0.0946 -0.1504
 2977POPC   C3A73692  21.614  31.086   6.674 -0.2024  0.3417 -0.2097
 2977POPC   C4A73693  21.958  31.270   6.406  0.0280 -0.1699  0.4354
 2977POPC   C1B73694  21.426  31.730   7.243  0.0788 -0.0431  0.2023
 2977POPC   C2B73695  21.400  32.145   7.010  0.2805  0.1958  0.2758
 2977POPC   C3B73696  21.387  32.571   6.831 -0.0299 -0.2105  0.1009
 2977POPC   C4B73697  21.111  32.750   6.444 -0.3427 -0.2535  0.2983
 2978POPC   NC373698  17.692  19.829   9.065 -0.3172 -0.0751 -0.1428
 2978POPC   PO473699  17.911  20.148   9.089  0.1754  0.0117  0.2810
 2978POPC   GL173700  18.037  20.295   8.717  0.0480 -0.0507  0.4336
 2978POPC   GL273701  17.940  20.554   8.660 -0.0224  0.2114  0.1633
 2978POPC   C1A73702  18.107  20.243   8.230 -0.3033  0.1477 -0.1122
 2978POPC   D2A73703  18.376  20.355   7.911  0.1110 -0.0698  0.4394
 2978POPC   C3A73704  18.449  20.542   7.496 -0.2577 -0.0492  0.2686
 2978POPC   C4A73705  18.472  20.698   7.053  0.2521  0.0102  0.3337
 2978POPC   C1B73706  17.615  20.406   8.345  0.2226  0.0421  0.2256
 2978POPC   C2B73707  17.568  20.293   7.924  0.2729  0.1289 -0.0542
 2978POPC   C3B73708  17.356  20.066   7.606  0.2607  0.4144 -0.1299
 2978POPC   C4B73709  17.230  19.663   7.428 -0.2683  0.2012  0.1512
 2979POPC   NC373710  30.030  18.593   9.782  0.2464 -0.2577 -0.1515
 2979POPC   PO473711  29.683  18.371   9.772  0.2569  0.1740  0.0943
 2979POPC   GL173712  29.535  18.685   9.540 -0.3224 -0.0812 -0.2672
 2979POPC   GL273713  29.223  18.592   9.416 -0.0077 -0.1871 -0.0672
 2979POPC   C1A73714  29.300  19.074   9.517  0.3401  0.0175 -0.1194
 2979POPC   D2A73715  29.031  19.469   9.528 -0.1136 -0.0713  0.5478
 2979POPC   C3A73716  28.846  19.695   9.132  0.0403 -0.0764  0.0893
 2979POPC   C4A73717  28.470  19.863   9.051  0.4569  0.0891  0.0913
 2979POPC   C1B73718  28.831  18.882   9.356 -0.0014 -0.0346 -0.1188
 2979POPC   C2B73719  28.579  19.289   9.295  0.4359 -0.4228 -0.4725
 2979POPC   C3B73720  28.218  19.415   9.015 -0.1027 -0.1975  0.0940
 2979POPC   C4B73721  27.874  19.655   8.840 -0.0247  0.0325  0.2160
 2980POPC   NC373722  20.103  22.320   9.913 -0.0475  0.3444  0.2130
 2980POPC   PO473723  19.864  22.501   9.637 -0.1707  0.0219  0.0754
 2980POPC   GL173724  19.921  22.605   9.278 -0.1131  0.0263 -0.1880
 2980POPC   GL273725  20.165  22.404   9.235 -0.0592 -0.2838 -0.1787
 2980POPC   C1A73726  19.718  22.485   8.910 -0.2185  0.0158  0.2102
 2980POPC   D2A73727  19.695  22.051   8.632 -0.0703  0.0761  0.3043
 2980POPC   C3A73728  19.497  22.110   8.214 -0.0624 -0.1200  0.2730
 2980POPC   C4A73729  19.481  22.439   7.858  0.0419 -0.2192 -0.0097
 2980POPC   C1B73730  20.576  22.359   9.041  0.1612 -0.1061 -0.1075
 2980POPC   C2B73731  20.864  22.472   8.693  0.0299  0.1837  0.2452
 2980POPC   C3B73732  21.350  22.492   8.777  0.0690 -0.0968 -0.3314
 2980POPC   C4B73733  21.802  22.532   8.654  0.1212 -0.1492 -0.1947
 2981POPC   NC373734  25.591  28.613  16.167 -0.0535 -0.1612  0.2815
 2981POPC   PO473735  25.935  28.764  16.194 -0.2375  0.3906 -0.0783
 2981POPC   GL173736  26.159  28.593  16.480  0.2324 -0.0103  0.1138
 2981POPC   GL273737  26.344  28.842  16.591 -0.1131 -0.4131  0.1884
 2981POPC   C1A73738  26.282  28.491  16.940  0.1749 -0.2708  0.1700
 2981POPC   D2A73739  26.298  28.475  17.365  0.1832  0.1198 -0.0823
 2981POPC   C3A73740  26.631  28.675  17.647  0.3968  0.4722 -0.2217
 2981POPC   C4A73741  26.867  28.574  18.022  0.2069 -0.0188  0.0783
 2981POPC   C1B73742  26.259  29.010  16.949 -0.0466  0.0492 -0.0847
 2981POPC   C2B73743  26.151  29.086  17.408 -0.1430 -0.1022  0.1653
 2981POPC   C3B73744  26.172  28.846  17.805 -0.0345 -0.4006 -0.3259
 2981POPC   C4B73745  26.183  28.523  18.103 -0.0737  0.0761  0.1908
 2982POPC   NC373746  16.986  16.866   8.104  0.2770 -0.1432  0.1601
 2982POPC   PO473747  17.329  17.038   8.058 -0.4764  0.0649 -0.1255
 2982POPC   GL173748  17.073  17.187   7.714  0.2002 -0.1019 -0.1031
 2982POPC   GL273749  16.714  17.253   7.705 -0.0774  0.0039 -0.1038
 2982POPC   C1A73750  17.027  17.398   7.329  0.0377  0.1441 -0.0634
 2982POPC   D2A73751  17.059  17.453   6.891 -0.4345  0.0009 -0.4291
 2982POPC   C3A73752  17.513  17.456   6.639  0.2629 -0.0324  0.0194
 2982POPC   C4A73753  17.843  17.671   6.427 -0.1439 -0.1368  0.1109
 2982POPC   C1B73754  16.555  17.456   7.295 -0.1181 -0.1865  0.0122
 2982POPC   C2B73755  16.589  17.685   6.914  0.0016 -0.0368  0.0703
 2982POPC   C3B73756  16.733  17.845   6.463 -0.0321 -0.1822 -0.0229
 2982POPC   C4B73757  16.632  17.880   6.016 -0.0996 -0.2184 -0.1761
 2983POPC   NC373758  17.020  19.636   8.727  0.0603 -0.1931  0.2544
 2983POPC   PO473759  17.299  19.922   8.812  0.2381 -0.3172 -0.4382
 2983POPC   GL173760  17.282  20.068   8.375 -0.3548 -0.0117 -0.0520
 2983POPC   GL273761  17.339  19.776   8.315  0.1644 -0.2422  0.0689
 2983POPC   C1A73762  17.070  20.206   7.998  0.2408  0.3281  0.3578
 2983POPC   D2A73763  16.769  20.321   7.712  0.2068  0.1064 -0.0148
 2983POPC   C3A73764  16.432  20.428   7.415  0.2017 -0.2741 -0.0401
 2983POPC   C4A73765  16.257  20.803   7.256 -0.0276  0.0153  0.2376
 2983POPC   C1B73766  17.288  19.683   7.907 -0.0793 -0.2316  0.1652
 2983POPC   C2B73767  17.146  19.282   7.724 -0.1707 -0.1819 -0.3079
 2983POPC   C3B73768  17.109  18.993   7.322  0.0817 -0.1177  0.1045
 2983POPC   C4B73769  17.186  18.868   6.895 -0.1701  0.0505  0.3133
 2984POPC   NC373770  24.600  17.208  13.350 -0.1013  0.1865 -0.0060
 2984POPC   PO473771  24.363  17.469  13.400 -0.1139 -0.0615  0.2279
 2984POPC   GL173772  24.600  17.597  13.580 -0.0171 -0.4443  0.0229
 2984POPC   GL273773  24.525  17.906  13.501 -0.2231  0.3167 -0.1676
 2984POPC   C1A73774  24.944  17.869  13.813  0.0659  0.4380 -0.0892
 2984POPC   D2A73775  25.048  18.307  14.032 -0.0576  0.0785 -0.0745
 2984POPC   C3A73776  25.284  18.344  14.427 -0.0614  0.0639  0.0041
 2984POPC   C4A73777  25.515  18.499  14.738  0.2118 -0.1645  0.2745
 2984POPC   C1B73778  24.684  18.332  13.418  0.1239 -0.0782 -0.0505
 2984POPC   C2B73779  24.935  18.581  13.127  0.1875  0.1398  0.0475
 2984POPC   C3B73780  25.170  18.948  13.270 -0.2915  0.4369 -0.0094
 2984POPC   C4B73781  25.173  19.409  13.395 -0.1299 -0.2293 -0.0497
 2985POPC   NC373782  31.256  25.882   9.140  0.3384 -0.0813 -0.2931
 2985POPC   PO473783  31.613  25.735   9.210  0.1307  0.0663  0.2200
 2985POPC   GL173784  31.522  25.663   8.849  0.1048  0.2424  0.0392
 2985POPC   GL273785  31.285  25.591   8.648  0.0169 -0.0453  0.1308
 2985POPC   C1A73786  31.774  25.653   8.421  0.0227 -0.0669 -0.4526
 2985POPC   D2A73787  32.147  25.551   8.077  0.0298 -0.1011  0.0510
 2985POPC   C3A73788  32.078  25.322   7.681  0.1259 -0.1443  0.0186
 2985POPC   C4A73789  31.941  25.431   7.291 -0.0277 -0.4891  0.0025
 2985POPC   C1B73790  31.318  25.677   8.173 -0.0098  0.0987 -0.1196
 2985POPC   C2B73791  31.172  25.503   7.770 -0.0930 -0.1369  0.1734
 2985POPC   C3B73792  31.101  25.110   7.490 -0.0748  0.1987 -0.0636
 2985POPC   C4B73793  31.014  24.840   7.139 -0.1379 -0.1396  0.3635
 2986POPC   NC373794  31.429  21.181  10.318 -0.0586 -0.0810  0.2257
 2986POPC   PO473795  31.301  21.214   9.957  0.0986 -0.2969 -0.2920
 2986POPC   GL173796  31.067  21.198   9.719 -0.1854 -0.4528 -0.0740
 2986POPC   GL273797  30.935  20.903   9.804 -0.0155 -0.2002 -0.2320
 2986POPC   C1A73798  30.891  21.617   9.566  0.3572  0.0528  0.3390
 2986POPC   D2A73799  30.709  22.039   9.347  0.0108 -0.0610  0.3220
 2986POPC   C3A73800  30.356  22.024   9.042 -0.2834  0.3904  0.0389
 2986POPC   C4A73801  30.027  21.820   8.838 -0.0897  0.0146  0.0212
 2986POPC   C1B73802  30.520  20.720   9.815  0.1023 -0.2203 -0.0500
 2986POPC   C2B73803  30.156  20.508   9.893 -0.1024 -0.0409 -0.0740
 2986POPC   C3B73804  29.752  20.674   9.805 -0.0577 -0.2502  0.0758
 2986POPC   C4B73805  29.342  20.927   9.865 -0.1689 -0.0695  0.1773
 2987POPC   NC373806  18.088  29.526  16.838  0.0762  0.2612 -0.0126
 2987POPC   PO473807  18.449  29.426  16.745  0.0211  0.2050  0.0467
 2987POPC   GL173808  18.484  29.425  17.089 -0.3328  0.1710  0.0055
 2987POPC   GL273809  18.488  29.735  17.224 -0.1529 -0.0782  0.0921
 2987POPC   C1A73810  18.574  29.410  17.562  0.1701  0.0386  0.1489
 2987POPC   D2A73811  18.661  29.616  17.988  0.1690 -0.1493  0.2310
 2987POPC   C3A73812  18.790  29.551  18.425 -0.3625  0.2773  0.1892
 2987POPC   C4A73813  18.692  29.679  18.892  0.0819 -0.3042  0.1159
 2987POPC   C1B73814  18.678  29.948  17.640 -0.1445  0.1800 -0.0610
 2987POPC   C2B73815  18.680  30.078  18.083  0.1417  0.0760 -0.0753
 2987POPC   C3B73816  18.372  30.157  18.467 -0.1165 -0.1468 -0.1125
 2987POPC   C4B73817  18.058  30.111  18.791  0.2068  0.0293 -0.4996
 2988POPC   NC373818  24.637  17.894  12.036  0.0201  0.3318  0.0837
 2988POPC   PO473819  24.878  17.903  12.338  0.4255  0.0525 -0.3779
 2988POPC   GL173820  24.914  18.092  12.694 -0.2679 -0.0171  0.0553
 2988POPC   GL273821  25.110  17.891  12.858 -0.0525  0.3471 -0.1228
 2988POPC   C1A73822  25.223  18.437  12.630 -0.1038  0.0355  0.0562
 2988POPC   D2A73823  25.327  18.849  12.448  0.0513  0.1976 -0.4153
 2988POPC   C3A73824  25.554  19.251  12.583  0.0441 -0.1000  0.0140
 2988POPC   C4A73825  25.814  19.592  12.688  0.0700 -0.1879  0.1350
 2988POPC   C1B73826  24.994  17.934  13.329  0.3060  0.1169 -0.3996
 2988POPC   C2B73827  25.137  18.347  13.590 -0.1782  0.0595  0.1011
 2988POPC   C3B73828  25.021  18.767  13.767  0.2520  0.1959 -0.1279
 2988POPC   C4B73829  25.166  19.122  13.954 -0.1584 -0.2168  0.1090
 2989POPC   NC373830  18.015  30.415   8.259  0.0660  0.2816  0.0034
 2989POPC   PO473831  18.023  30.015   8.257 -0.0897 -0.1349  0.1374
 2989POPC   GL173832  17.850  30.056   7.920  0.1122 -0.3659 -0.1985
 2989POPC   GL273833  17.985  29.835   7.780  0.0703 -0.0271 -0.4097
 2989POPC   C1A73834  17.529  30.257   7.629 -0.0597  0.0302  0.1275
 2989POPC   D2A73835  17.117  30.310   7.493 -0.2938 -0.2766 -0.0129
 2989POPC   C3A73836  17.123  30.386   7.024  0.0624  0.0302 -0.0419
 2989POPC   C4A73837  17.229  30.439   6.542  0.3342 -0.0639 -0.1356
 2989POPC   C1B73838  17.755  29.813   7.435 -0.1565 -0.4989  0.1532
 2989POPC   C2B73839  17.722  29.571   7.025  0.1143 -0.0675  0.1678
 2989POPC   C3B73840  17.610  29.515   6.588  0.1229  0.1570 -0.0040
 2989POPC   C4B73841  17.658  29.146   6.280  0.0880  0.1952  0.0256
 2990POPC   NC373842  21.376  21.269  13.390 -0.0602 -0.0052  0.0723
 2990POPC   PO473843  21.564  20.921  13.416  0.0496  0.3467 -0.2512
 2990POPC   GL173844  21.705  21.078  13.765  0.0909  0.0268  0.0180
 2990POPC   GL273845  21.990  21.072  13.658  0.1990  0.1274 -0.3605
 2990POPC   C1A73846  21.954  21.384  14.029  0.0737 -0.2214 -0.0443
 2990POPC   D2A73847  22.044  21.415  14.486  0.1725 -0.1270 -0.1889
 2990POPC   C3A73848  22.294  21.536  14.864 -0.0856 -0.0466 -0.2068
 2990POPC   C4A73849  22.668  21.492  15.045 -0.2483 -0.0621  0.2281
 2990POPC   C1B73850  22.381  21.062  13.875 -0.1951 -0.0112  0.1094
 2990POPC   C2B73851  22.565  21.242  14.257 -0.2189 -0.0171  0.1101
 2990POPC   C3B73852  22.739  21.316  14.633  0.2480 -0.3254 -0.4045
 2990POPC   C4B73853  23.089  21.603  14.856  0.3171 -0.1125 -0.1527
 2991POPC   NC373854  17.779  18.264   9.036 -0.0362  0.0396 -0.1498
 2991POPC   PO473855  17.747  18.014   8.742 -0.1586 -0.1163 -0.2329
 2991POPC   GL173856  17.822  18.034   8.277  0.1457  0.5783 -0.4076
 2991POPC   GL273857  17.768  17.785   8.078  0.0472 -0.2898  0.1841
 2991POPC   C1A73858  17.904  18.363   7.948 -0.0379  0.0659  0.1168
 2991POPC   D2A73859  17.742  18.593   7.519  0.1907  0.2238  0.1723
 2991POPC   C3A73860  17.693  18.764   7.138  0.0986 -0.1322  0.0418
 2991POPC   C4A73861  17.698  18.982   6.728 -0.2762  0.0845  0.2250
 2991POPC   C1B73862  17.837  17.621   7.647 -0.1321 -0.0484 -0.0880
 2991POPC   C2B73863  18.163  17.609   7.283  0.3062 -0.0934 -0.0079
 2991POPC   C3B73864  18.144  17.721   6.870 -0.1437  0.1810  0.0931
 2991POPC   C4B73865  18.392  17.667   6.505  0.2029 -0.1526 -0.0709
 2992POPC   NC373866  29.863  19.285  12.980 -0.2450 -0.0823  0.1139
 2992POPC   PO473867  30.154  19.547  12.957  0.2415 -0.2818  0.0272
 2992POPC   GL173868  29.868  19.764  12.823 -0.0762  0.0217  0.4040
 2992POPC   GL273869  29.592  19.736  12.929 -0.2528 -0.0687  0.0142
 2992POPC   C1A73870  29.751  20.218  12.866 -0.1770  0.2062 -0.0715
 2992POPC   D2A73871  29.464  20.521  12.751  0.2005 -0.0336 -0.1249
 2992POPC   C3A73872  28.960  20.505  12.692 -0.0854 -0.0688 -0.2330
 2992POPC   C4A73873  28.519  20.656  12.727  0.0675 -0.0036 -0.2766
 2992POPC   C1B73874  29.335  20.128  13.077  0.0441  0.0413  0.1485
 2992POPC   C2B73875  29.115  20.479  13.249 -0.2087 -0.1205  0.2515
 2992POPC   C3B73876  28.937  20.848  13.116  0.1586  0.2616  0.4505
 2992POPC   C4B73877  28.502  21.077  13.044  0.1544 -0.0871 -0.1265
 2993POPC   NC373878  21.335  26.424   9.839 -0.0500 -0.0787  0.1850
 2993POPC   PO473879  21.645  26.351   9.618  0.1936 -0.5915  0.1877
 2993POPC   GL173880  21.839  26.058   9.519 -0.1138 -0.1247 -0.4635
 2993POPC   GL273881  21.983  26.101   9.280  0.0528 -0.1876 -0.1202
 2993POPC   C1A73882  21.905  25.649   9.256  0.1912  0.2526 -0.0873
 2993POPC   D2A73883  22.030  25.422   8.854  0.1100  0.1210 -0.0279
 2993POPC   C3A73884  22.335  25.218   8.636  0.3002  0.0654 -0.0767
 2993POPC   C4A73885  22.580  24.812   8.611 -0.0734 -0.1709 -0.4320
 2993POPC   C1B73886  22.084  25.959   8.839  0.1771 -0.1024  0.1389
 2993POPC   C2B73887  22.296  25.673   8.530  0.0818  0.0518  0.1264
 2993POPC   C3B73888  22.508  25.484   8.200  0.1436  0.0433  0.0562
 2993POPC   C4B73889  22.733  25.222   7.881  0.4041  0.0362 -0.1840
 2994POPC   NC373890  18.732  23.072   8.947 -0.2443 -0.2784 -0.3526
 2994POPC   PO473891  18.369  23.130   9.050  0.0472  0.1700 -0.0085
 2994POPC   GL173892  18.202  23.005   8.686  0.0617 -0.2139 -0.0015
 2994POPC   GL273893  17.929  23.075   8.618  0.1288  0.1716 -0.0847
 2994POPC   C1A73894  18.167  22.730   8.292 -0.0402 -0.1278  0.0786
 2994POPC   D2A73895  18.273  22.381   7.968  0.2215  0.2819 -0.3854
 2994POPC   C3A73896  18.132  22.393   7.478 -0.0687 -0.1204 -0.1808
 2994POPC   C4A73897  18.253  22.442   7.070  0.0450  0.2022  0.0010
 2994POPC   C1B73898  17.881  23.101   8.126 -0.0009 -0.1603 -0.0435
 2994POPC   C2B73899  17.867  23.119   7.673 -0.1414 -0.2984 -0.1010
 2994POPC   C3B73900  17.941  23.448   7.344  0.0741  0.0860  0.1147
 2994POPC   C4B73901  17.611  23.762   7.203 -0.2087  0.0808 -0.1682
 2995POPC   NC373902  23.242  19.046  11.167 -0.0860  0.1969 -0.1382
 2995POPC   PO473903  22.917  19.174  11.390  0.0130  0.2222 -0.2031
 2995POPC   GL173904  23.105  19.524  11.563 -0.2679  0.2659  0.0920
 2995POPC   GL273905  23.340  19.526  11.419  0.1077 -0.0719  0.1241
 2995POPC   C1A73906  23.341  19.882  11.771  0.2721 -0.0513  0.1790
 2995POPC   D2A73907  23.425  20.260  11.910 -0.2127  0.2102  0.1005
 2995POPC   C3A73908  23.847  20.341  11.994  0.1451  0.0768 -0.2164
 2995POPC   C4A73909  24.176  20.650  11.975 -0.1371  0.3167 -0.0806
 2995POPC   C1B73910  23.592  19.812  11.211  0.1306  0.0094 -0.0359
 2995POPC   C2B73911  23.912  20.163  11.083 -0.4295 -0.0568  0.0196
 2995POPC   C3B73912  24.298  20.253  10.888 -0.0749 -0.1008 -0.2555
 2995POPC   C4B73913  24.607  20.575  10.882  0.0319 -0.0894 -0.1671
 2996POPC   NC373914  29.544  26.660  12.580  0.1795 -0.0291  0.0517
 2996POPC   PO473915  29.202  26.851  12.680 -0.0266  0.0456  0.1959
 2996POPC   GL173916  29.188  26.641  12.282 -0.0062 -0.3971 -0.1388
 2996POPC   GL273917  28.927  26.769  12.248  0.0463 -0.2145  0.1874
 2996POPC   C1A73918  29.166  26.210  12.309 -0.0507  0.2032 -0.0766
 2996POPC   D2A73919  29.040  25.718  12.319  0.0156 -0.0042 -0.0163
 2996POPC   C3A73920  28.788  25.465  12.053  0.1584 -0.2862  0.2110
 2996POPC   C4A73921  28.419  25.335  11.774  0.0954  0.1072 -0.0846
 2996POPC   C1B73922  28.955  26.467  11.901 -0.1587  0.1285  0.0005
 2996POPC   C2B73923  28.997  25.971  11.868 -0.0455  0.1263  0.2075
 2996POPC   C3B73924  28.779  25.615  11.578  0.0110 -0.2620 -0.1176
 2996POPC   C4B73925  28.552  25.457  11.219 -0.2147 -0.2064  0.1380
 2997POPC   NC373926  20.368  21.546   9.742  0.0134  0.0017  0.3677
 2997POPC   PO473927  19.979  21.483   9.759  0.1867  0.2761  0.0158
 2997POPC   GL173928  20.051  21.156   9.614 -0.4289 -0.2581  0.0370
 2997POPC   GL273929  20.336  21.071   9.786  0.0861  0.0635 -0.1208
 2997POPC   C1A73930  20.362  21.073   9.238 -0.0962 -0.1130 -0.0381
 2997POPC   D2A73931  20.630  21.080   8.835  0.0938  0.4427  0.0743
 2997POPC   C3A73932  20.633  21.300   8.481 -0.1993 -0.1420 -0.0290
 2997POPC   C4A73933  20.626  21.770   8.391 -0.3661 -0.1061  0.1735
 2997POPC   C1B73934  20.727  21.261   9.590  0.2170  0.0888  0.5866
 2997POPC   C2B73935  20.930  21.371   9.220  0.1133  0.1316  0.1719
 2997POPC   C3B73936  21.056  21.365   8.805 -0.1518 -0.1706 -0.0978
 2997POPC   C4B73937  21.135  21.143   8.390  0.1390  0.1166  0.3118
 2998POPC   NC373938  31.424  20.757   9.627 -0.3552 -0.0860  0.2218
 2998POPC   PO473939  31.795  20.866   9.574 -0.0045 -0.0309 -0.2803
 2998POPC   GL173940  31.669  21.053   9.311  0.1848 -0.1857  0.0088
 2998POPC   GL273941  31.443  20.811   9.128  0.1267  0.2106 -0.0057
 2998POPC   C1A73942  31.495  21.314   9.011  0.0264  0.1236 -0.1208
 2998POPC   D2A73943  31.220  21.207   8.701 -0.0763 -0.0755 -0.0630
 2998POPC   C3A73944  30.789  21.293   8.682 -0.0230 -0.3464  0.0787
 2998POPC   C4A73945  30.417  21.075   8.440  0.1166 -0.2982  0.0005
 2998POPC   C1B73946  31.183  20.673   8.772  0.0241  0.0094 -0.0080
 2998POPC   C2B73947  30.958  20.872   8.422 -0.2473  0.1424 -0.0858
 2998POPC   C3B73948  30.825  21.136   8.107  0.2030 -0.1100 -0.1205
 2998POPC   C4B73949  30.407  21.246   7.923  0.0941 -0.0116  0.0993
 2999POPC   NC373950  18.888  25.604   9.077  0.1017  0.0767 -0.1160
 2999POPC   PO473951  18.699  25.778   8.820 -0.0649  0.2311  0.2682
 2999POPC   GL173952  18.767  25.495   8.492  0.0525 -0.3756  0.1497
 2999POPC   GL273953  18.876  25.269   8.585  0.3419  0.2771 -0.2138
 2999POPC   C1A73954  18.951  25.388   8.058 -0.2368  0.1049 -0.2978
 2999POPC   D2A73955  19.083  25.486   7.615 -0.1943 -0.2738 -0.1523
 2999POPC   C3A73956  19.205  25.295   7.152  0.1893  0.2816  0.1745
 2999POPC   C4A73957  19.233  24.960   6.804 -0.0167  0.2444  0.1670
 2999POPC   C1B73958  18.599  25.102   8.246 -0.0644  0.1256 -0.1520
 2999POPC   C2B73959  18.503  25.177   7.823 -0.0572  0.2065  0.0864
 2999POPC   C3B73960  18.740  25.230   7.432 -0.0706  0.1032  0.0600
 2999POPC   C4B73961  18.750  25.164   6.955 -0.3580 -0.0769 -0.0867
 3000POPC   NC373962  24.659  27.607  10.773  0.0081 -0.0667  0.0417
 3000POPC   PO473963  24.752  27.259  10.605  0.2266 -0.1105 -0.1292
 3000POPC   GL173964  24.833  27.075  10.268  0.0021 -0.3473 -0.1348
 3000POPC   GL273965  25.082  27.160  10.171 -0.0340  0.0367 -0.1572
 3000POPC   C1A73966  24.848  26.738   9.979  0.1179 -0.2008 -0.1247
 3000POPC   D2A73967  24.945  26.406   9.648  0.1341 -0.0416  0.0673
 3000POPC   C3A73968  25.159  26.609   9.292  0.1538 -0.5130  0.1780
 3000POPC   C4A73969  25.001  26.492   8.829 -0.1287 -0.3156  0.0671
 3000POPC   C1B73970  25.313  27.049   9.803 -0.0102  0.1222  0.3145
 3000POPC   C2B73971  25.396  26.570   9.747 -0.3937  0.1802  0.0945
 3000POPC   C3B73972  25.355  26.243   9.450  0.2872  0.0807 -0.0090
 3000POPC   C4B73973  25.606  25.902   9.153 -0.2356 -0.0404 -0.0130
 3001POPC   NC373974  24.644  29.295   9.392  0.0806 -0.1829  0.1374
 3001POPC   PO473975  24.357  29.080   9.224 -0.0504  0.0257 -0.1673
 3001POPC   GL173976  24.259  28.819   8.939  0.3650  0.0708  0.0621
 3001POPC   GL273977  24.112  28.624   8.868 -0.0120 -0.3222 -0.1625
 3001POPC   C1A73978  24.510  28.680   8.544 -0.1251 -0.2064  0.1252
 3001POPC   D2A73979  24.593  28.788   8.108 -0.1687 -0.3728 -0.2843
 3001POPC   C3A73980  24.224  28.738   7.828  0.1209  0.1280 -0.5068
 3001POPC   C4A73981  23.839  28.732   7.638  0.3549  0.1671  0.1534
 3001POPC   C1B73982  24.180  28.318   8.587 -0.0697  0.1494  0.0476
 3001POPC   C2B73983  24.370  28.250   8.158 -0.2842  0.2093  0.0194
 3001POPC   C3B73984  24.448  28.298   7.730  0.1054 -0.0681 -0.1731
 3001POPC   C4B73985  24.266  28.546   7.364  0.2422  0.0643 -0.2296
 3002POPC   NC373986  19.363  19.155   9.342  0.1382  0.1577 -0.1943
 3002POPC   PO473987  19.039  19.125   9.075  0.3217 -0.0008  0.0939
 3002POPC   GL173988  19.307  19.184   8.776 -0.2815 -0.3354 -0.1336
 3002POPC   GL273989  19.340  19.454   8.756  0.1547  0.1677 -0.0521
 3002POPC   C1A73990  19.345  18.996   8.356  0.0146 -0.0298 -0.3134
 3002POPC   D2A73991  19.201  19.029   7.898  0.2135 -0.1330 -0.0865
 3002POPC   C3A73992  19.098  19.294   7.550  0.1012 -0.0655 -0.0053
 3002POPC   C4A73993  19.168  19.282   7.098  0.1525  0.1916 -0.1412
 3002POPC   C1B73994  19.665  19.390   8.397 -0.0543  0.1190 -0.0712
 3002POPC   C2B73995  20.041  19.474   8.151 -0.1056  0.0669 -0.0858
 3002POPC   C3B73996  20.403  19.462   7.870  0.3278  0.1624 -0.0173
 3002POPC   C4B73997  20.577  19.634   7.476 -0.0478  0.3017  0.0897
 3003POPC   NC373998  24.042  31.737   8.722 -0.1680 -0.2471  0.2068
 3003POPC   PO473999  23.692  31.617   8.687  0.0215 -0.2196  0.2463
 3003POPC   GL174000  23.721  31.631   8.267 -0.1744  0.2490 -0.2490
 3003POPC   GL274001  23.516  31.867   8.291  0.0006 -0.1664 -0.0581
 3003POPC   C1A74002  23.695  31.890   7.837 -0.1155 -0.0924  0.0519
 3003POPC   D2A74003  23.608  32.189   7.485 -0.0070  0.0278  0.0058
 3003POPC   C3A74004  23.768  32.612   7.640  0.3047 -0.0191  0.0865
 3003POPC   C4A74005  23.761  33.089   7.642 -0.2344 -0.1983 -0.1882
 3003POPC   C1B74006  23.800  32.232   8.209  0.2813 -0.1483 -0.0827
 3003POPC   C2B74007  24.019  32.579   8.135 -0.0716  0.1076  0.1752
 3003POPC   C3B74008  24.182  32.920   7.852 -0.1599 -0.0165  0.1544
 3003POPC   C4B74009  24.191  33.338   7.573 -0.1340 -0.0862  0.0516
 3004POPC   NC374010  19.558  20.425   9.391  0.0233 -0.0563  0.2408
 3004POPC   PO474011  19.417  20.780   9.403  0.2430 -0.1142  0.0286
 3004POPC   GL174012  19.528  20.684   9.009  0.0828 -0.0063  0.0023
 3004POPC   GL274013  19.263  20.673   8.909 -0.2645  0.2021 -0.0290
 3004POPC   C1A74014  19.905  20.933   8.778  0.1817  0.3953  0.3746
 3004POPC   D2A74015  20.167  21.312   8.758  0.0943  0.0952  0.0158
 3004POPC   C3A74016  20.136  21.604   8.353 -0.0333 -0.0073 -0.1062
 3004POPC   C4A74017  20.332  21.718   7.928  0.2058  0.0831 -0.1953
 3004POPC   C1B74018  19.457  20.721   8.486  0.1649  0.2163  0.1703
 3004POPC   C2B74019  19.373  20.689   8.061  0.3360  0.1573  0.0531
 3004POPC   C3B74020  19.474  20.862   7.634 -0.0254  0.0906 -0.0569
 3004POPC   C4B74021  19.178  20.852   7.237 -0.2084  0.0136  0.0148
 3005POPC   NC374022  26.214  32.528   8.997 -0.0770  0.1047 -0.0323
 3005POPC   PO474023  26.472  32.829   9.069 -0.0052 -0.6656  0.2821
 3005POPC   GL174024  26.308  33.128   8.840  0.0774  0.0455 -0.1458
 3005POPC   GL274025  26.592  33.216   8.761 -0.0672 -0.2522  0.0897
 3005POPC   C1A74026  26.137  33.382   8.521 -0.1136 -0.2111 -0.1018
 3005POPC   D2A74027  25.938  33.527   8.159  0.0022 -0.3461 -0.0305
 3005POPC   C3A74028  26.214  33.902   8.004 -0.2025  0.1747 -0.0620
 3005POPC   C4A74029  26.490  34.211   8.081  0.1009  0.0157 -0.2507
 3005POPC   C1B74030  26.960  33.281   8.473  0.0507  0.1384 -0.3163
 3005POPC   C2B74031  26.943  33.363   8.050 -0.1087  0.2637  0.2852
 3005POPC   C3B74032  26.819  33.152   7.669 -0.1318 -0.1122  0.0950
 3005POPC   C4B74033  26.489  32.822   7.597  0.1362  0.0879  0.1470
 3006POPC   NC374034  27.883  15.750   8.872  0.0422  0.1780 -0.0594
 3006POPC   PO474035  27.772  16.030   9.130 -0.2197  0.2316  0.0695
 3006POPC   GL174036  27.986  16.227   8.828  0.0974 -0.3351  0.1129
 3006POPC   GL274037  27.769  16.471   8.796  0.4124  0.1467  0.1289
 3006POPC   C1A74038  28.130  16.444   8.461 -0.1604 -0.0862  0.1318
 3006POPC   D2A74039  28.345  16.691   8.081  0.1836 -0.3875 -0.1833
 3006POPC   C3A74040  28.096  16.805   7.685  0.1851  0.0156  0.1132
 3006POPC   C4A74041  27.898  16.946   7.292 -0.0328  0.1074  0.2245
 3006POPC   C1B74042  27.715  16.892   8.573  0.0109 -0.0385 -0.0509
 3006POPC   C2B74043  27.646  17.247   8.286  0.2805 -0.1651  0.0302
 3006POPC   C3B74044  27.512  17.380   7.871  0.0448 -0.1298 -0.0096
 3006POPC   C4B74045  27.610  17.488   7.402  0.2003 -0.0770 -0.0940
 3007POPC   NC374046  26.612  31.803   8.745  0.1027  0.1581 -0.0181
 3007POPC   PO474047  26.829  31.824   9.079  0.0112 -0.1012  0.0237
 3007POPC   GL174048  27.080  31.667   8.728 -0.0780 -0.1664 -0.0514
 3007POPC   GL274049  27.180  31.958   8.733  0.2798  0.1766  0.2514
 3007POPC   C1A74050  26.907  31.549   8.311  0.4007 -0.0240  0.3490
 3007POPC   D2A74051  26.665  31.791   7.972  0.3507 -0.0832 -0.1216
 3007POPC   C3A74052  26.488  31.559   7.643  0.3241  0.0460 -0.0960
 3007POPC   C4A74053  26.490  31.524   7.199  0.1204 -0.0844 -0.0720
 3007POPC   C1B74054  27.195  32.097   8.305  0.1494 -0.1057  0.1639
 3007POPC   C2B74055  27.198  32.286   7.892 -0.0719  0.0055 -0.2097
 3007POPC   C3B74056  27.048  32.502   7.473 -0.0755 -0.0286 -0.1095
 3007POPC   C4B74057  26.898  32.888   7.272  0.0429 -0.0573 -0.1038
 3008POPC   NC374058  24.728  30.138   9.003  0.1467 -0.1411 -0.0789
 3008POPC   PO474059  25.034  29.873   9.081  0.0696 -0.2557 -0.0807
 3008POPC   GL174060  25.041  29.796   8.757 -0.1208  0.0810  0.1939
 3008POPC   GL274061  24.724  29.800   8.641 -0.0141  0.2750 -0.0116
 3008POPC   C1A74062  25.095  29.396   8.492 -0.0952 -0.1128  0.0420
 3008POPC   D2A74063  25.046  28.957   8.449 -0.0831  0.1818  0.0115
 3008POPC   C3A74064  25.100  28.738   8.086  0.0248 -0.2565  0.0051
 3008POPC   C4A74065  25.296  28.707   7.695 -0.0714 -0.1860 -0.1474
 3008POPC   C1B74066  24.971  29.765   8.247  0.1135 -0.3462 -0.3291
 3008POPC   C2B74067  25.088  29.858   7.779 -0.0174  0.2409 -0.0573
 3008POPC   C3B74068  25.112  30.181   7.433  0.0210  0.0765 -0.1525
 3008POPC   C4B74069  24.790  30.440   7.230  0.2417  0.1399 -0.1994
 3009POPC   NC374070  22.741  17.493   9.262 -0.2759 -0.0819  0.0052
 3009POPC   PO474071  22.857  17.140   9.421  0.1354  0.3190  0.0495
 3009POPC   GL174072  23.144  17.175   9.069 -0.2390 -0.3117 -0.0138
 3009POPC   GL274073  23.124  17.416   8.918  0.2262  0.2768  0.0872
 3009POPC   C1A74074  23.112  17.071   8.588  0.0512 -0.4896  0.1922
 3009POPC   D2A74075  23.069  16.842   8.146  0.2024  0.1135 -0.0886
 3009POPC   C3A74076  23.132  17.098   7.781  0.0565  0.0369  0.3570
 3009POPC   C4A74077  23.111  17.563   7.756  0.1216 -0.0748 -0.0478
 3009POPC   C1B74078  23.013  17.833   8.703 -0.1057  0.1925  0.1673
 3009POPC   C2B74079  22.983  18.100   8.334 -0.3257  0.0009  0.0537
 3009POPC   C3B74080  23.113  18.121   7.909  0.0162 -0.1161 -0.1524
 3009POPC   C4B74081  23.541  18.287   7.686 -0.4008 -0.2044 -0.3742
 3010POPC   NC374082  28.680  18.340   9.360  0.1321  0.0547  0.1989
 3010POPC   PO474083  28.950  18.107   9.500 -0.1284  0.1928  0.0968
 3010POPC   GL174084  29.023  18.183   9.039  0.2352  0.1245 -0.1137
 3010POPC   GL274085  29.095  18.446   8.988 -0.1940  0.0487  0.3965
 3010POPC   C1A74086  29.026  18.203   8.572  0.1363 -0.2493  0.4339
 3010POPC   D2A74087  28.758  18.330   8.203 -0.2036  0.0927  0.3052
 3010POPC   C3A74088  28.486  18.721   8.336  0.0324 -0.1117  0.2401
 3010POPC   C4A74089  28.268  19.152   8.289  0.0010  0.1971 -0.2690
 3010POPC   C1B74090  28.907  18.760   8.683  0.0607 -0.1535  0.1991
 3010POPC   C2B74091  28.922  19.056   8.351 -0.1867  0.3147  0.0600
 3010POPC   C3B74092  28.738  19.029   7.961  0.2759 -0.2714 -0.0175
 3010POPC   C4B74093  28.336  19.096   7.787  0.2240 -0.0121 -0.1700
 3011POPC   NC374094  21.578  30.183   7.975  0.0259 -0.2626  0.3033
 3011POPC   PO474095  21.746  30.158   8.310  0.1458  0.0230 -0.2428
 3011POPC   GL174096  22.008  30.013   7.960 -0.3847 -0.1725 -0.0894
 3011POPC   GL274097  22.073  30.288   7.845 -0.2802 -0.4342 -0.0776
 3011POPC   C1A74098  22.119  29.877   7.554 -0.0514  0.2724 -0.0991
 3011POPC   D2A74099  22.234  29.853   7.051 -0.0422  0.0055 -0.4606
 3011POPC   C3A74100  21.993  29.713   6.663 -0.0788 -0.0714  0.2120
 3011POPC   C4A74101  22.125  29.691   6.203  0.2119  0.0207  0.1420
 3011POPC   C1B74102  21.786  30.216   7.444  0.2105 -0.0346  0.3220
 3011POPC   C2B74103  21.792  30.004   7.042 -0.0795 -0.1541 -0.2221
 3011POPC   C3B74104  21.712  30.136   6.627 -0.2168 -0.0619  0.0094
 3011POPC   C4B74105  22.044  30.166   6.273  0.4746  0.1071 -0.2361
 3012POPC   NC374106  21.598  22.101  13.287  0.0062 -0.0631  0.1218
 3012POPC   PO474107  21.859  21.787  13.137 -0.2321  0.0652 -0.3100
 3012POPC   GL174108  22.088  22.049  13.414 -0.0720  0.3838 -0.1288
 3012POPC   GL274109  21.971  22.023  13.661  0.2633  0.4257  0.0243
 3012POPC   C1A74110  22.544  21.979  13.519 -0.0622  0.0017 -0.0486
 3012POPC   D2A74111  22.822  21.753  13.300  0.1405 -0.1778  0.5049
 3012POPC   C3A74112  23.147  21.883  13.558 -0.0293  0.0259 -0.1201
 3012POPC   C4A74113  23.497  21.752  13.830  0.1612  0.2522 -0.0525
 3012POPC   C1B74114  22.217  21.733  13.886 -0.1853  0.1931  0.2195
 3012POPC   C2B74115  22.424  21.722  14.281 -0.1849  0.2370 -0.0062
 3012POPC   C3B74116  22.795  21.869  14.518 -0.0748  0.0824 -0.0632
 3012POPC   C4B74117  23.139  22.106  14.720  0.0059  0.1702  0.2754
 3013POPC   NC374118  22.210  25.886  13.016  0.2005 -0.1619  0.2732
 3013POPC   PO474119  22.393  25.907  12.717  0.2238 -0.3399  0.0270
 3013POPC   GL174120  22.407  25.452  12.603  0.3460  0.0532 -0.1363
 3013POPC   GL274121  22.577  25.573  12.411  0.1773 -0.2559 -0.0460
 3013POPC   C1A74122  22.693  25.085  12.384 -0.1064  0.0313  0.0992
 3013POPC   D2A74123  22.735  24.632  12.499  0.1164 -0.2196 -0.0379
 3013POPC   C3A74124  23.110  24.532  12.751  0.0426 -0.1131 -0.2784
 3013POPC   C4A74125  23.501  24.761  12.833 -0.0378 -0.0504 -0.0412
 3013POPC   C1B74126  22.853  25.438  12.084  0.2334  0.3126 -0.2619
 3013POPC   C2B74127  23.080  25.357  11.673 -0.0580 -0.0111 -0.0411
 3013POPC   C3B74128  23.014  25.130  11.253 -0.1650 -0.0399 -0.2673
 3013POPC   C4B74129  23.156  24.732  10.987  0.0203 -0.0756  0.0532
 3014POPC   NC374130  27.006  32.415   8.754 -0.2085  0.1813  0.0235
 3014POPC   PO474131  26.718  32.350   8.986  0.1758 -0.2064 -0.0443
 3014POPC   GL174132  26.570  32.487   8.648 -0.1354 -0.2256  0.1346
 3014POPC   GL274133  26.423  32.742   8.578 -0.2243 -0.1497  0.0271
 3014POPC   C1A74134  26.751  32.412   8.258 -0.0514  0.0996  0.3342
 3014POPC   D2A74135  26.742  32.229   7.818  0.1172 -0.1204  0.0719
 3014POPC   C3A74136  26.749  32.142   7.350  0.0812  0.0736  0.0645
 3014POPC   C4A74137  26.564  32.002   6.941 -0.0673  0.1094  0.3930
 3014POPC   C1B74138  26.485  32.976   8.210 -0.0723 -0.1779  0.1144
 3014POPC   C2B74139  26.444  33.401   8.046  0.0627 -0.1018  0.1320
 3014POPC   C3B74140  26.598  33.676   7.694  0.0835 -0.1190  0.1589
 3014POPC   C4B74141  26.600  34.115   7.553 -0.0509  0.1194  0.3689
 3015POPC   NC374142  26.488  31.249  15.975 -0.0408 -0.2661  0.2164
 3015POPC   PO474143  26.237  31.175  15.651 -0.0067  0.1392  0.2422
 3015POPC   GL174144  26.265  31.555  15.710 -0.0129 -0.2644  0.1000
 3015POPC   GL274145  26.471  31.687  15.704  0.2938 -0.1294 -0.0509
 3015POPC   C1A74146  26.173  31.676  16.156  0.1625  0.0100  0.2910
 3015POPC   D2A74147  26.219  31.559  16.578  0.3464 -0.0652 -0.0727
 3015POPC   C3A74148  26.675  31.593  16.728 -0.1640 -0.0517 -0.1847
 3015POPC   C4A74149  26.777  31.739  17.213  0.0051 -0.0592 -0.1120
 3015POPC   C1B74150  26.431  32.089  15.983  0.2297  0.1136 -0.3581
 3015POPC   C2B74151  26.475  32.422  16.299  0.0181  0.0757 -0.1593
 3015POPC   C3B74152  26.438  32.755  16.686 -0.4752 -0.1276  0.1168
 3015POPC   C4B74153  26.410  33.182  16.898  0.0874  0.3066  0.1046
 3016POPC   NC374154  26.077  30.562   9.013  0.1126 -0.0173  0.2411
 3016POPC   PO474155  26.474  30.524   8.869  0.0438  0.0373  0.1284
 3016POPC   GL174156  26.326  30.403   8.576  0.4325 -0.1828 -0.1228
 3016POPC   GL274157  26.465  30.651   8.357  0.0264 -0.0991 -0.1597
 3016POPC   C1A74158  25.917  30.529   8.369 -0.2680  0.1080  0.0573
 3016POPC   D2A74159  25.675  30.685   8.018  0.0586  0.0885  0.0246
 3016POPC   C3A74160  25.913  30.880   7.699 -0.2847  0.0669 -0.2022
 3016POPC   C4A74161  26.169  31.199   7.424  0.2795 -0.0402 -0.1612
 3016POPC   C1B74162  26.250  30.648   7.981  0.0722  0.1280  0.1925
 3016POPC   C2B74163  26.267  30.614   7.475  0.0417  0.1580 -0.1837
 3016POPC   C3B74164  26.221  30.796   7.032  0.0054  0.0540 -0.1340
 3016POPC   C4B74165  26.480  31.073   6.792  0.1753  0.1336 -0.1776
 3017POPC   NC374166  23.700  18.728  10.261  0.0380 -0.1142  0.0729
 3017POPC   PO474167  23.530  18.382  10.164 -0.0222 -0.0648 -0.1279
 3017POPC   GL174168  23.683  18.309   9.860 -0.0346  0.1890  0.2490
 3017POPC   GL274169  23.603  18.606   9.742 -0.0481 -0.0024 -0.2282
 3017POPC   C1A74170  24.023  18.420   9.534 -0.1057  0.1062 -0.1339
 3017POPC   D2A74171  24.162  18.754   9.230  0.3166  0.1835  0.4598
 3017POPC   C3A74172  24.306  18.664   8.782  0.0627  0.3061  0.0222
 3017POPC   C4A74173  24.558  18.970   8.522 -0.0001 -0.1680  0.2775
 3017POPC   C1B74174  23.719  18.874   9.405 -0.0110  0.1414 -0.0643
 3017POPC   C2B74175  23.675  19.281   9.225  0.0887  0.3142 -0.3164
 3017POPC   C3B74176  23.693  19.522   8.842 -0.2279 -0.0395 -0.1671
 3017POPC   C4B74177  23.488  19.490   8.455 -0.1260 -0.1101  0.1206
 3018POPC   NC374178  20.352  29.529   7.994 -0.3130 -0.0062 -0.0800
 3018POPC   PO474179  20.198  29.148   7.939  0.1161 -0.0209 -0.0253
 3018POPC   GL174180  20.173  29.161   7.536  0.0991  0.0713  0.1864
 3018POPC   GL274181  20.367  28.892   7.545  0.3448  0.0256 -0.0387
 3018POPC   C1A74182  20.461  29.126   7.145  0.0416 -0.2519  0.1133
 3018POPC   D2A74183  20.340  28.978   6.705 -0.3803  0.1133  0.1788
 3018POPC   C3A74184  20.070  28.814   6.320 -0.2045  0.2630 -0.0275
 3018POPC   C4A74185  19.748  28.560   6.090 -0.0042  0.0022  0.0125
 3018POPC   C1B74186  20.521  28.534   7.288 -0.1936 -0.3398  0.2123
 3018POPC   C2B74187  20.731  28.641   6.877  0.1466  0.2849  0.0190
 3018POPC   C3B74188  20.935  28.365   6.571 -0.0092  0.2414 -0.2641
 3018POPC   C4B74189  21.263  28.128   6.407 -0.2081  0.2501  0.0347
 3019POPC   NC374190  17.634  18.909   8.523  0.2522  0.0275 -0.1919
 3019POPC   PO474191  17.324  19.012   8.737 -0.0140 -0.0394  0.1168
 3019POPC   GL174192  17.265  19.224   8.366 -0.1673 -0.1415 -0.0875
 3019POPC   GL274193  17.409  19.153   8.150  0.2227  0.0206  0.1413
 3019POPC   C1A74194  16.961  19.457   8.147 -0.0218 -0.0608 -0.0310
 3019POPC   D2A74195  16.727  19.735   7.836  0.1527  0.3227  0.2301
 3019POPC   C3A74196  16.765  19.797   7.337 -0.0765  0.0187 -0.0742
 3019POPC   C4A74197  16.579  20.041   7.090  0.2122  0.0871  0.0590
 3019POPC   C1B74198  17.672  19.371   7.868 -0.0363  0.1684 -0.1459
 3019POPC   C2B74199  17.701  19.672   7.569 -0.0873 -0.0889  0.2337
 3019POPC   C3B74200  17.851  19.944   7.253 -0.3969 -0.0165  0.3243
 3019POPC   C4B74201  18.003  20.243   7.006 -0.1787 -0.0149 -0.2858
 3020POPC   NC374202  27.331  17.658  11.471 -0.0099 -0.1734 -0.0371
 3020POPC   PO474203  27.146  17.942  11.628  0.0531 -0.2682  0.0310
 3020POPC   GL174204  27.312  18.277  11.567 -0.0059 -0.2261  0.3289
 3020POPC   GL274205  27.492  18.358  11.781 -0.3844 -0.0524  0.1891
 3020POPC   C1A74206  27.028  18.451  11.231  0.0782  0.1272 -0.1349
 3020POPC   D2A74207  26.888  18.826  11.083 -0.0779  0.0989 -0.0643
 3020POPC   C3A74208  26.738  18.927  10.624 -0.1991 -0.1006  0.1002
 3020POPC   C4A74209  26.545  19.246  10.397 -0.0959  0.1709 -0.0391
 3020POPC   C1B74210  27.281  18.711  11.909 -0.0504  0.3024 -0.0620
 3020POPC   C2B74211  27.244  19.214  11.957 -0.3863 -0.4838 -0.0985
 3020POPC   C3B74212  27.147  19.673  12.165 -0.1292 -0.0078  0.5618
 3020POPC   C4B74213  27.409  19.871  12.484  0.0207 -0.2869 -0.0220
 3021POPC   NC374214  18.428  32.575   8.115 -0.1637  0.0742 -0.1826
 3021POPC   PO474215  18.598  32.223   8.066  0.0296  0.2034  0.1059
 3021POPC   GL174216  18.744  32.397   7.803  0.1028 -0.2596 -0.1132
 3021POPC   GL274217  18.490  32.396   7.591 -0.2969  0.1012  0.3688
 3021POPC   C1A74218  19.020  32.406   7.463 -0.1858 -0.3974 -0.1519
 3021POPC   D2A74219  19.132  32.312   7.009  0.2126  0.1041 -0.0489
 3021POPC   C3A74220  19.468  32.263   6.742  0.0452  0.2007 -0.3172
 3021POPC   C4A74221  19.867  32.348   6.490 -0.0567  0.1005 -0.1920
 3021POPC   C1B74222  18.585  32.447   7.109 -0.1076  0.2187 -0.1503
 3021POPC   C2B74223  18.682  32.446   6.675  0.1937  0.0698 -0.3025
 3021POPC   C3B74224  18.529  32.235   6.331 -0.0948 -0.0909  0.0433
 3021POPC   C4B74225  18.373  31.929   6.170 -0.2748 -0.0538 -0.1846
 3022POPC   NC374226  19.103  18.732   8.791  0.1880 -0.2493  0.2743
 3022POPC   PO474227  19.485  18.770   8.963 -0.1489  0.1321  0.3062
 3022POPC   GL174228  19.609  18.657   8.552 -0.0061 -0.3710  0.0768
 3022POPC   GL274229  19.802  18.847   8.473 -0.1017  0.0912 -0.2059
 3022POPC   C1A74230  19.807  18.347   8.272  0.0137 -0.0687  0.3677
 3022POPC   D2A74231  20.071  18.122   7.941  0.3436 -0.2142  0.3004
 3022POPC   C3A74232  20.128  18.173   7.504 -0.1169 -0.1011  0.0108
 3022POPC   C4A74233  20.293  18.058   7.126 -0.0253 -0.0998  0.0202
 3022POPC   C1B74234  19.948  18.940   8.081 -0.2015  0.0155 -0.0394
 3022POPC   C2B74235  20.071  19.155   7.729 -0.1247  0.1211  0.1755
 3022POPC   C3B74236  20.358  19.135   7.365 -0.0378 -0.2603 -0.0297
 3022POPC   C4B74237  20.594  18.835   7.162 -0.2197 -0.0120 -0.0653
 3023POPC   NC374238  20.913  20.952   9.986 -0.1254  0.0580  0.1093
 3023POPC   PO474239  20.692  21.126  10.304  0.0208  0.0579 -0.3035
 3023POPC   GL174240  21.194  21.214  10.269  0.1908  0.2767 -0.2656
 3023POPC   GL274241  21.286  20.948  10.417  0.0945  0.0262  0.0522
 3023POPC   C1A74242  21.651  21.367  10.294  0.1063  0.1710  0.2586
 3023POPC   D2A74243  21.825  21.753  10.191  0.0052  0.1889  0.0016
 3023POPC   C3A74244  22.070  21.968   9.891  0.3170 -0.1168  0.2017
 3023POPC   C4A74245  22.243  22.333   9.637  0.4489 -0.0536  0.0055
 3023POPC   C1B74246  21.487  20.959  10.058 -0.5048 -0.1645  0.1852
 3023POPC   C2B74247  21.639  20.917   9.637  0.1706 -0.1172 -0.3395
 3023POPC   C3B74248  21.562  20.835   9.152  0.0398  0.2066  0.1300
 3023POPC   C4B74249  21.231  20.818   8.864  0.2455  0.0643  0.0438
 3024POPC   NC374250  30.485  29.107   8.971  0.0077 -0.0492  0.3125
 3024POPC   PO474251  30.541  29.197   8.599 -0.3045  0.0381 -0.1983
 3024POPC   GL174252  30.665  29.140   8.214  0.1353 -0.0522 -0.1993
 3024POPC   GL274253  30.414  29.072   8.003  0.1557 -0.1789  0.0775
 3024POPC   C1A74254  30.838  28.969   7.857 -0.2688 -0.1765  0.0134
 3024POPC   D2A74255  30.739  28.951   7.426 -0.0651 -0.0849 -0.3549
 3024POPC   C3A74256  30.295  28.987   7.416 -0.1921 -0.1064 -0.0117
 3024POPC   C4A74257  29.990  28.896   7.021  0.1012  0.1425 -0.3888
 3024POPC   C1B74258  30.460  28.650   7.821 -0.2789  0.1572 -0.1962
 3024POPC   C2B74259  30.460  28.246   7.632 -0.1934  0.0584 -0.0130
 3024POPC   C3B74260  30.409  28.023   7.185  0.0530 -0.1561  0.1717
 3024POPC   C4B74261  30.162  27.722   6.968  0.0462  0.0643 -0.3533
 3025POPC   NC374262  21.680  20.517  14.071 -0.0261  0.1138 -0.2371
 3025POPC   PO474263  21.876  20.614  13.794  0.0591  0.1574 -0.1285
 3025POPC   GL174264  22.157  20.672  13.979 -0.0836 -0.0479  0.0963
 3025POPC   GL274265  22.343  20.546  13.804 -0.1378  0.0080  0.2819
 3025POPC   C1A74266  22.431  20.415  14.274 -0.0748  0.2126 -0.0194
 3025POPC   D2A74267  22.746  20.312  14.633  0.1633 -0.0090  0.1397
 3025POPC   C3A74268  23.231  20.402  14.777  0.3179  0.1031  0.1480
 3025POPC   C4A74269  23.509  20.383  15.175  0.0145 -0.0645  0.1972
 3025POPC   C1B74270  22.706  20.743  14.082  0.2085 -0.2959 -0.1986
 3025POPC   C2B74271  23.020  21.044  14.188 -0.0059 -0.0062 -0.2107
 3025POPC   C3B74272  23.268  21.309  14.453  0.1162 -0.1779  0.1783
 3025POPC   C4B74273  23.687  21.426  14.485 -0.2918 -0.0894 -0.5685
 3026POPC   NC374274  20.711  19.185   9.453 -0.3220  0.1446 -0.0301
 3026POPC   PO474275  21.083  18.935   9.549  0.0900  0.0085 -0.0135
 3026POPC   GL174276  21.223  18.892   9.232  0.0446  0.1061 -0.2158
 3026POPC   GL274277  21.035  19.075   9.070  0.1586  0.3200 -0.0327
 3026POPC   C1A74278  21.496  19.068   8.881 -0.2793  0.0376  0.0352
 3026POPC   D2A74279  21.608  19.126   8.439  0.0288 -0.4076  0.1535
 3026POPC   C3A74280  21.706  19.028   7.991  0.1082 -0.3277 -0.1729
 3026POPC   C4A74281  22.093  19.087   7.762 -0.0609 -0.0917  0.3780
 3026POPC   C1B74282  21.041  18.985   8.677  0.1503 -0.0759  0.0715
 3026POPC   C2B74283  21.125  18.983   8.219 -0.2963 -0.3243  0.0992
 3026POPC   C3B74284  21.286  19.364   7.973  0.3028 -0.0710 -0.0849
 3026POPC   C4B74285  21.555  19.760   7.801  0.2969 -0.2459  0.0097
 3027POPC   NC374286  19.403  26.405   8.629  0.1029  0.0935  0.0644
 3027POPC   PO474287  19.507  26.024   8.673 -0.1734 -0.3235 -0.1498
 3027POPC   GL174288  19.604  25.864   8.380  0.0124  0.0868  0.3495
 3027POPC   GL274289  19.410  25.818   8.151  0.1461  0.2149  0.1402
 3027POPC   C1A74290  19.853  25.974   8.004 -0.0260 -0.2386 -0.0536
 3027POPC   D2A74291  20.121  26.066   7.663 -0.3180 -0.0667 -0.1412
 3027POPC   C3A74292  20.155  25.847   7.280  0.4805 -0.0496  0.1580
 3027POPC   C4A74293  20.477  25.556   7.183  0.0155 -0.3966  0.1009
 3027POPC   C1B74294  19.489  25.780   7.693 -0.2732  0.0857  0.0566
 3027POPC   C2B74295  19.480  25.769   7.226 -0.1849 -0.3874  0.0830
 3027POPC   C3B74296  19.366  25.667   6.780  0.0838 -0.0995  0.0936
 3027POPC   C4B74297  19.002  25.441   6.613  0.0683 -0.0242 -0.0464
 3028POPC   NC374298  18.603  20.906   9.115 -0.3587  0.1706 -0.0653
 3028POPC   PO474299  18.987  20.963   9.239 -0.0942 -0.0644 -0.0080
 3028POPC   GL174300  19.088  21.242   8.839 -0.1932 -0.0464  0.1380
 3028POPC   GL274301  18.752  21.393   8.827 -0.0760 -0.1023  0.0897
 3028POPC   C1A74302  19.302  21.216   8.464  0.2490  0.1145  0.0627
 3028POPC   D2A74303  19.394  21.207   7.995 -0.2084  0.5844 -0.2689
 3028POPC   C3A74304  19.463  21.335   7.573  0.0090  0.0777 -0.1245
 3028POPC   C4A74305  19.654  21.508   7.162  0.0881  0.1698  0.0346
 3028POPC   C1B74306  18.846  21.471   8.376 -0.4822  0.2949  0.0421
 3028POPC   C2B74307  18.781  21.676   8.001 -0.2705  0.0217 -0.0136
 3028POPC   C3B74308  18.838  21.831   7.572 -0.0392  0.1106  0.1272
 3028POPC   C4B74309  18.998  21.898   7.155 -0.3113  0.0728  0.1067
 3029POPC   NC374310  30.620  17.025   9.070  0.2698  0.0708 -0.0481
 3029POPC   PO474311  30.773  17.326   8.912  0.0544 -0.1033 -0.1099
 3029POPC   GL174312  30.446  17.498   8.590  0.0948 -0.2192 -0.3292
 3029POPC   GL274313  30.307  17.740   8.586 -0.0373  0.1637  0.1364
 3029POPC   C1A74314  30.717  17.689   8.251 -0.0808 -0.0924 -0.1254
 3029POPC   D2A74315  30.716  17.685   7.792  0.1428 -0.1820  0.1302
 3029POPC   C3A74316  30.782  18.031   7.473  0.1019  0.3381 -0.2361
 3029POPC   C4A74317  30.896  18.343   7.257 -0.1789 -0.2766  0.1145
 3029POPC   C1B74318  30.234  17.583   8.163  0.2527  0.3789 -0.2052
 3029POPC   C2B74319  30.300  17.889   7.869  0.1522  0.1131 -0.1429
 3029POPC   C3B74320  30.294  18.273   7.589  0.0956  0.0947 -0.3474
 3029POPC   C4B74321  29.996  18.660   7.466  0.1207  0.4008  0.1168
 3030POPC   NC374322  26.469  30.015   8.844 -0.1030 -0.1965  0.2128
 3030POPC   PO474323  26.055  30.074   8.801  0.1616  0.1562  0.1602
 3030POPC   GL174324  25.873  30.076   8.454  0.4246 -0.2517 -0.0564
 3030POPC   GL274325  25.567  30.022   8.570 -0.1030  0.1654 -0.0705
 3030POPC   C1A74326  25.947  30.073   8.033 -0.1170  0.0894  0.3383
 3030POPC   D2A74327  26.036  30.176   7.573 -0.3034  0.1354 -0.0615
 3030POPC   C3A74328  26.088  30.311   7.110 -0.1361  0.1619  0.1387
 3030POPC   C4A74329  25.910  30.256   6.715 -0.0639  0.1257 -0.1272
 3030POPC   C1B74330  25.467  29.821   8.139 -0.2337  0.0875  0.1919
 3030POPC   C2B74331  25.257  29.430   7.997 -0.3125  0.3005 -0.0471
 3030POPC   C3B74332  24.873  29.167   7.789  0.0877 -0.5144  0.0298
 3030POPC   C4B74333  24.714  28.769   7.644 -0.3779  0.0688 -0.2791
 3031POPC   NC374334  21.676  23.162  13.158 -0.1392 -0.1750  0.1087
 3031POPC   PO474335  21.540  23.007  13.506 -0.1145  0.1383 -0.1921
 3031POPC   GL174336  21.907  22.970  13.538  0.2461 -0.2203 -0.1067
 3031POPC   GL274337  22.059  23.226  13.532 -0.3249  0.0537 -0.3114
 3031POPC   C1A74338  22.278  22.762  13.718 -0.0792  0.1245 -0.0496
 3031POPC   D2A74339  22.692  22.773  13.891  0.4097 -0.1381  0.2834
 3031POPC   C3A74340  23.156  22.688  14.025  0.2459 -0.0514  0.1881
 3031POPC   C4A74341  23.539  22.722  13.876 -0.0952 -0.0011 -0.1708
 3031POPC   C1B74342  22.518  23.253  13.772  0.1560 -0.0522  0.2077
 3031POPC   C2B74343  22.910  23.130  14.096 -0.0306 -0.1333  0.4261
 3031POPC   C3B74344  23.044  22.905  14.446  0.0600 -0.1026 -0.3775
 3031POPC   C4B74345  23.220  22.629  14.788  0.1672  0.1510 -0.0179
 3032POPC   NC374346  20.569  31.364   8.138 -0.2254  0.2375  0.0664
 3032POPC   PO474347  20.793  31.665   8.319 -0.0423 -0.2617  0.0310
 3032POPC   GL174348  20.878  31.562   7.877 -0.0568  0.0192 -0.3112
 3032POPC   GL274349  21.005  31.359   7.785 -0.0115 -0.1597 -0.0835
 3032POPC   C1A74350  20.533  31.417   7.617  0.2404  0.3271 -0.0435
 3032POPC   D2A74351  20.563  31.472   7.153 -0.3535 -0.2493 -0.2465
 3032POPC   C3A74352  20.419  31.290   6.723  0.1683  0.0225 -0.0607
 3032POPC   C4A74353  19.977  31.170   6.545 -0.0085  0.0434 -0.1589
 3032POPC   C1B74354  21.032  31.460   7.351  0.0914 -0.0108 -0.3185
 3032POPC   C2B74355  20.964  31.694   6.948  0.1511 -0.3090  0.1004
 3032POPC   C3B74356  20.701  31.651   6.523 -0.0863 -0.0828  0.2231
 3032POPC   C4B74357  20.549  31.999   6.237 -0.1486  0.0957  0.2654
 3033POPC   NC374358  20.034  28.691   7.978 -0.0093  0.0686  0.4389
 3033POPC   PO474359  20.407  28.589   7.960  0.1837  0.1233  0.1486
 3033POPC   GL174360  20.764  28.567   7.665  0.3009 -0.1642 -0.0928
 3033POPC   GL274361  20.799  28.320   7.750  0.0381  0.0959 -0.0684
 3033POPC   C1A74362  21.003  28.421   7.271 -0.0075 -0.0634  0.1894
 3033POPC   D2A74363  21.292  28.329   6.914 -0.1974 -0.1452  0.2775
 3033POPC   C3A74364  21.318  28.647   6.559  0.2872  0.0941  0.1133
 3033POPC   C4A74365  21.629  28.764   6.170  0.0214  0.1303  0.1291
 3033POPC   C1B74366  20.621  28.005   7.468 -0.0244 -0.1067 -0.1610
 3033POPC   C2B74367  20.959  27.767   7.202 -0.0662  0.0849 -0.2885
 3033POPC   C3B74368  21.135  27.428   7.032  0.2810 -0.1426 -0.1824
 3033POPC   C4B74369  21.371  27.025   6.966  0.0067  0.2467 -0.2650
 3034POPC   NC374370  32.340  18.759   9.162 -0.0172 -0.1232  0.1417
 3034POPC   PO474371  31.995  18.574   9.257 -0.0369 -0.2424 -0.1807
 3034POPC   GL174372  31.823  18.589   8.952 -0.2032  0.1999 -0.0281
 3034POPC   GL274373  31.963  18.571   8.761  0.3501 -0.2436  0.2284
 3034POPC   C1A74374  31.547  18.913   8.741  0.2326  0.0103 -0.3886
 3034POPC   D2A74375  31.311  19.297   8.657  0.1535 -0.3153 -0.1651
 3034POPC   C3A74376  30.984  19.577   8.798  0.2833  0.3205 -0.0999
 3034POPC   C4A74377  30.542  19.537   8.983  0.0059 -0.0844  0.1268
 3034POPC   C1B74378  32.328  18.636   8.465 -0.0707  0.2990 -0.1019
 3034POPC   C2B74379  32.234  18.605   7.987 -0.5213 -0.4031 -0.1333
 3034POPC   C3B74380  32.078  18.498   7.590  0.2509 -0.3290  0.3472
 3034POPC   C4B74381  31.768  18.290   7.256 -0.1677  0.0427  0.0803
 3035POPC   NC374382  26.864  17.979  12.064 -0.1992 -0.1228 -0.2714
 3035POPC   PO474383  27.014  17.796  12.404 -0.4216  0.0165 -0.0519
 3035POPC   GL174384  26.956  18.181  12.469 -0.2546 -0.5629 -0.1510
 3035POPC   GL274385  27.077  18.388  12.275  0.1258 -0.0204 -0.0818
 3035POPC   C1A74386  26.771  18.603  12.655  0.3234  0.2930  0.2837
 3035POPC   D2A74387  26.752  19.087  12.714 -0.1114  0.2577 -0.1514
 3035POPC   C3A74388  26.458  19.435  12.634  0.1031  0.1444  0.1759
 3035POPC   C4A74389  26.221  19.865  12.761 -0.0091 -0.0036  0.0106
 3035POPC   C1B74390  27.238  18.796  12.431  0.4591 -0.1906 -0.2724
 3035POPC   C2B74391  27.149  19.267  12.443 -0.1888  0.0609 -0.2379
 3035POPC   C3B74392  26.939  19.601  12.698 -0.0910 -0.2711 -0.3014
 3035POPC   C4B74393  26.710  19.952  12.863 -0.2536 -0.3033 -0.0646
 3036POPC   NC374394  24.342   0.002   9.913  0.1180  0.1380 -0.3789
 3036POPC   PO474395  24.341   0.013   9.548 -0.2132 -0.1278 -0.1195
 3036POPC   GL174396  24.641   0.287   9.312  0.1118 -0.1657  0.5112
 3036POPC   GL274397  24.676   0.168   9.065  0.1057  0.0447  0.4199
 3036POPC   C1A74398  24.747   0.661   9.026 -0.1435  0.4202 -0.2474
 3036POPC   D2A74399  24.749   1.030   8.766 -0.2936  0.0143  0.1425
 3036POPC   C3A74400  24.391   1.228   8.503  0.2119  0.3214 -0.0470
 3036POPC   C4A74401  23.987   1.467   8.496  0.2212 -0.0800  0.2313
 3036POPC   C1B74402  24.769   0.300   8.635 -0.2939 -0.0275  0.2605
 3036POPC   C2B74403  25.020   0.293   8.296  0.0003 -0.1242 -0.2257
 3036POPC   C3B74404  25.358   0.327   8.031  0.1285 -0.0241  0.0714
 3036POPC   C4B74405  25.728   0.410   7.774  0.2252 -0.1327 -0.0422
 3037POPC   NC374406  17.910  17.280   7.987  0.0740 -0.0389 -0.0666
 3037POPC   PO474407  17.825  16.979   8.173  0.1426  0.2659  0.2785
 3037POPC   GL174408  18.136  16.937   7.927  0.3740  0.1790  0.1851
 3037POPC   GL274409  18.110  16.689   7.763 -0.1201 -0.4243  0.0187
 3037POPC   C1A74410  18.101  17.124   7.527 -0.0554 -0.1513  0.0799
 3037POPC   D2A74411  18.305  17.188   7.094 -0.0735  0.1354  0.0146
 3037POPC   C3A74412  18.609  17.499   6.931 -0.2131  0.3049  0.1199
 3037POPC   C4A74413  18.934  17.690   6.659 -0.2522  0.0771 -0.0782
 3037POPC   C1B74414  18.130  16.583   7.360 -0.0984 -0.3752  0.1692
 3037POPC   C2B74415  18.131  16.680   6.923  0.0417 -0.0205  0.1223
 3037POPC   C3B74416  18.189  16.754   6.474  0.0241 -0.0664 -0.1485
 3037POPC   C4B74417  18.434  16.650   6.107 -0.1436  0.2831 -0.2303
 3038POPC   NC374418  31.704  21.222  14.739 -0.1657 -0.4503  0.1660
 3038POPC   PO474419  31.945  21.539  14.672  0.0851  0.1512  0.3806
 3038POPC   GL174420  31.645  21.643  14.938  0.0182  0.3633  0.1241
 3038POPC   GL274421  31.607  21.827  15.170  0.0839 -0.1450  0.0411
 3038POPC   C1A74422  31.201  21.462  15.042  0.1153 -0.2800  0.1069
 3038POPC   D2A74423  30.830  21.349  14.839  0.3407 -0.0347 -0.0351
 3038POPC   C3A74424  30.528  21.131  15.096 -0.1482  0.0982  0.1108
 3038POPC   C4A74425  30.380  21.032  15.577 -0.0324  0.2940 -0.3506
 3038POPC   C1B74426  31.221  21.841  15.398 -0.1668 -0.0244  0.0971
 3038POPC   C2B74427  30.766  21.775  15.491 -0.3900 -0.2658 -0.0390
 3038POPC   C3B74428  30.418  21.500  15.454  0.2767  0.2780  0.0165
 3038POPC   C4B74429  30.089  21.387  15.796 -0.3317  0.0559  0.0019
 3039POPC   NC374430  29.136  31.738  15.389 -0.1128  0.1803  0.2822
 3039POPC   PO474431  28.958  31.828  15.699  0.0337 -0.2265  0.0145
 3039POPC   GL174432  28.971  32.110  15.980 -0.0464 -0.2040  0.3140
 3039POPC   GL274433  29.256  32.046  16.033  0.0851 -0.1964  0.0388
 3039POPC   C1A74434  28.991  32.267  16.412  0.0206  0.1432  0.1340
 3039POPC   D2A74435  28.699  32.281  16.674 -0.0970  0.1706 -0.2425
 3039POPC   C3A74436  28.225  32.413  16.707 -0.1283 -0.0983  0.1094
 3039POPC   C4A74437  28.086  32.818  16.832 -0.0652 -0.2681 -0.0171
 3039POPC   C1B74438  29.431  32.068  16.409  0.0605 -0.2931  0.0490
 3039POPC   C2B74439  29.316  32.260  16.779  0.0118  0.0613  0.0579
 3039POPC   C3B74440  29.011  32.376  17.063 -0.0272  0.1367 -0.1778
 3039POPC   C4B74441  28.956  32.524  17.447  0.1463 -0.1825  0.0150
 3040POPC   NC374442  31.072  20.639  14.377 -0.0874  0.1107  0.1198
 3040POPC   PO474443  31.274  20.524  14.063 -0.2401  0.1442 -0.2897
 3040POPC   GL174444  30.890  20.630  13.952 -0.0056  0.2173 -0.3123
 3040POPC   GL274445  30.750  20.869  14.028  0.0762 -0.3271  0.3212
 3040POPC   C1A74446  30.723  20.766  13.562  0.1406 -0.0872  0.2572
 3040POPC   D2A74447  30.440  21.043  13.337 -0.0582 -0.3160  0.0156
 3040POPC   C3A74448  30.237  21.474  13.521  0.2281  0.0555 -0.0286
 3040POPC   C4A74449  30.029  21.879  13.556  0.0386 -0.1882  0.2881
 3040POPC   C1B74450  30.548  21.145  14.351 -0.0771  0.1282 -0.1219
 3040POPC   C2B74451  30.317  20.996  14.707 -0.1632 -0.3671 -0.1625
 3040POPC   C3B74452  30.057  21.313  14.943  0.1143  0.1222  0.3162
 3040POPC   C4B74453  29.992  21.627  15.206  0.2188  0.3246  0.0371
 3041POPC   NC374454  22.658  17.796  14.019 -0.0329 -0.0961 -0.1786
 3041POPC   PO474455  22.302  17.808  14.138  0.2778  0.1295  0.1222
 3041POPC   GL174456  22.471  18.136  14.426 -0.0565 -0.2869  0.4529
 3041POPC   GL274457  22.703  17.964  14.514 -0.0717  0.1482 -0.0832
 3041POPC   C1A74458  22.729  18.528  14.511 -0.0139  0.0497  0.1505
 3041POPC   D2A74459  22.948  18.908  14.621 -0.0484  0.1689 -0.1388
 3041POPC   C3A74460  22.929  18.965  15.096  0.1524 -0.1507  0.0194
 3041POPC   C4A74461  23.034  18.719  15.455 -0.0851 -0.0875  0.1544
 3041POPC   C1B74462  23.036  18.045  14.851  0.2141 -0.1199 -0.0509
 3041POPC   C2B74463  23.472  18.144  14.990  0.3802 -0.3343  0.3039
 3041POPC   C3B74464  23.806  18.162  15.331  0.1173 -0.1923  0.1504
 3041POPC   C4B74465  23.968  18.456  15.630  0.0694 -0.1368  0.1078
 3042POPC   NC374466  24.903  32.769   9.451  0.0562 -0.0545  0.2036
 3042POPC   PO474467  25.144  32.462   9.456 -0.1910  0.2668  0.0283
 3042POPC   GL174468  24.992  32.490   9.023 -0.2300  0.1836 -0.1340
 3042POPC   GL274469  25.171  32.709   9.016  0.1043  0.4193  0.0383
 3042POPC   C1A74470  25.293  32.302   8.679 -0.2671  0.1218  0.2958
 3042POPC   D2A74471  25.617  32.011   8.408 -0.0760  0.0685  0.1392
 3042POPC   C3A74472  25.439  32.201   7.983  0.2088  0.1315 -0.2774
 3042POPC   C4A74473  25.291  32.326   7.562  0.0827  0.1986 -0.5778
 3042POPC   C1B74474  25.355  32.762   8.634  0.0730 -0.2063 -0.1275
 3042POPC   C2B74475  25.344  32.640   8.188 -0.1776 -0.1200 -0.0400
 3042POPC   C3B74476  25.421  32.742   7.765 -0.1151  0.0872  0.0885
 3042POPC   C4B74477  25.284  33.043   7.397 -0.0098  0.0185  0.1051
 3043POPC   NC374478  31.378  25.236   9.061  0.1465  0.0924 -0.1085
 3043POPC   PO474479  31.358  25.360   9.454  0.0189 -0.2843  0.1107
 3043POPC   GL174480  31.047  25.471   9.420 -0.1979 -0.3317 -0.2332
 3043POPC   GL274481  30.901  25.239   9.348  0.1336  0.0602 -0.0072
 3043POPC   C1A74482  30.928  25.537   8.965 -0.1686 -0.0203  0.0882
 3043POPC   D2A74483  30.803  25.621   8.508 -0.2072  0.1672  0.4003
 3043POPC   C3A74484  30.499  26.004   8.398 -0.0666  0.0557 -0.0678
 3043POPC   C4A74485  30.525  26.415   8.578  0.3023 -0.4320 -0.1546
 3043POPC   C1B74486  30.587  24.918   9.296  0.4046 -0.1462  0.2383
 3043POPC   C2B74487  30.383  24.769   8.938 -0.0428 -0.0026  0.0773
 3043POPC   C3B74488  30.017  24.667   8.694 -0.1218 -0.0750  0.0568
 3043POPC   C4B74489  29.605  24.614   8.580  0.1386  0.1201  0.0983
 3044POPC   NC374490  25.880  17.245   9.820 -0.1458 -0.4016  0.2344
 3044POPC   PO474491  25.566  17.250  10.050 -0.1070  0.0458  0.3225
 3044POPC   GL174492  25.554  17.685   9.938  0.1324  0.4553  0.1232
 3044POPC   GL274493  25.793  17.710  10.144 -0.0380 -0.3485  0.1612
 3044POPC   C1A74494  25.309  17.963   9.675  0.3617 -0.0729  0.1779
 3044POPC   D2A74495  25.425  18.346   9.427 -0.0323  0.0167  0.1534
 3044POPC   C3A74496  25.375  18.815   9.583  0.2108 -0.1022 -0.1824
 3044POPC   C4A74497  25.228  19.242   9.442  0.0603  0.0063 -0.0353
 3044POPC   C1B74498  25.820  18.031   9.747 -0.0071 -0.1550 -0.2733
 3044POPC   C2B74499  25.852  18.176   9.339 -0.2116  0.1920 -0.2227
 3044POPC   C3B74500  25.923  18.364   8.925  0.0735 -0.1209  0.0783
 3044POPC   C4B74501  26.229  18.669   8.740 -0.0235  0.1593 -0.2719
 3045POPC   NC374502  30.009  17.886  14.439 -0.1415 -0.3092 -0.1335
 3045POPC   PO474503  29.680  17.651  14.464  0.1188  0.0409  0.3430
 3045POPC   GL174504  29.439  18.003  14.609 -0.2711 -0.0814  0.0106
 3045POPC   GL274505  29.115  17.931  14.726 -0.0294  0.2150  0.2406
 3045POPC   C1A74506  29.433  18.170  14.996  0.5158  0.0113  0.0413
 3045POPC   D2A74507  29.657  18.253  15.293  0.1736  0.2637 -0.1581
 3045POPC   C3A74508  29.912  18.479  15.656  0.0661 -0.2130 -0.3017
 3045POPC   C4A74509  29.976  18.479  16.114 -0.1753  0.3846  0.0258
 3045POPC   C1B74510  28.922  18.240  15.014 -0.0241 -0.1052 -0.2432
 3045POPC   C2B74511  28.738  18.716  15.092  0.1418 -0.2987 -0.0104
 3045POPC   C3B74512  28.495  19.081  15.295  0.2746  0.0841 -0.0194
 3045POPC   C4B74513  28.317  19.408  15.624 -0.1355 -0.1855 -0.3697
 3046POPC   NC374514  25.347  31.635   9.687 -0.4147 -0.0787  0.1327
 3046POPC   PO474515  25.400  31.717   9.322 -0.0505  0.2660 -0.1387
 3046POPC   GL174516  25.466  32.128   9.254 -0.0390  0.3279 -0.0155
 3046POPC   GL274517  25.211  32.100   9.083 -0.5815 -0.1832  0.0233
 3046POPC   C1A74518  25.694  32.416   8.966 -0.1069  0.0221 -0.0305
 3046POPC   D2A74519  25.783  32.449   8.512  0.1924  0.1559 -0.3132
 3046POPC   C3A74520  25.910  32.427   8.100 -0.2613 -0.0911  0.1839
 3046POPC   C4A74521  26.320  32.580   7.986  0.2891  0.1130  0.1102
 3046POPC   C1B74522  24.839  32.063   8.875 -0.1475  0.0027  0.1272
 3046POPC   C2B74523  24.502  32.076   8.567  0.1149 -0.1038 -0.4225
 3046POPC   C3B74524  24.435  32.194   8.164 -0.0916 -0.3451  0.1169
 3046POPC   C4B74525  24.435  32.475   7.800 -0.2051 -0.2252 -0.2297
 3047POPC   NC374526  17.909  32.466   8.150  0.0744 -0.0609 -0.1206
 3047POPC   PO474527  17.583  32.348   7.996 -0.0107  0.0242 -0.1017
 3047POPC   GL174528  17.684  32.533   7.672  0.1966  0.1811 -0.0537
 3047POPC   GL274529  18.010  32.417   7.652  0.1300 -0.2642  0.0406
 3047POPC   C1A74530  17.714  32.815   7.286  0.1083 -0.1715  0.1757
 3047POPC   D2A74531  18.080  33.045   7.062 -0.2300  0.2053  0.0286
 3047POPC   C3A74532  18.077  33.222   6.646 -0.2051  0.1926  0.2291
 3047POPC   C4A74533  17.939  33.305   6.232 -0.0647  0.2150 -0.3007
 3047POPC   C1B74534  18.132  32.612   7.258  0.0303  0.0215 -0.2983
 3047POPC   C2B74535  18.172  32.621   6.780  0.0377  0.3083 -0.0780
 3047POPC   C3B74536  18.288  32.780   6.346  0.1019 -0.0171 -0.1321
 3047POPC   C4B74537  18.464  33.179   6.169 -0.4999  0.1316 -0.2899
 3048POPC   NC374538  20.690  27.065   9.570 -0.1753  0.1375  0.0147
 3048POPC   PO474539  20.629  26.715   9.428 -0.3245  0.2289 -0.4005
 3048POPC   GL174540  20.665  26.478   9.163 -0.1491  0.1538  0.0483
 3048POPC   GL274541  20.725  26.669   8.954 -0.0016 -0.0981  0.1058
 3048POPC   C1A74542  20.923  26.256   8.796 -0.0782 -0.0885 -0.3054
 3048POPC   D2A74543  21.223  26.062   8.545 -0.1159 -0.2605  0.3799
 3048POPC   C3A74544  21.395  25.720   8.249 -0.0593  0.0532  0.3631
 3048POPC   C4A74545  21.562  25.488   7.877 -0.1198  0.1481  0.2990
 3048POPC   C1B74546  20.681  26.688   8.482  0.1806  0.3529 -0.1070
 3048POPC   C2B74547  20.674  26.639   8.057 -0.1333 -0.0371  0.1522
 3048POPC   C3B74548  20.728  26.603   7.590  0.1726  0.1411 -0.1208
 3048POPC   C4B74549  20.613  26.488   7.138  0.3084  0.0239 -0.1457
 3049POPC   NC374550   0.696  18.555   8.508 -0.4339 -0.1814  0.1740
 3049POPC   PO474551   0.413  18.589   8.769 -0.0966 -0.0660  0.0403
 3049POPC   GL174552   0.239  18.588   8.527 -0.0054  0.1711 -0.0185
 3049POPC   GL274553  -0.014  18.380   8.446  0.1837  0.1920  0.1194
 3049POPC   C1A74554   0.008  18.836   8.245 -0.0125 -0.0578 -0.1215
 3049POPC   D2A74555   0.177  19.222   7.975  0.0610 -0.0348  0.1508
 3049POPC   C3A74556   0.376  19.277   7.517 -0.0918 -0.0917  0.0487
 3049POPC   C4A74557   0.298  19.387   7.112  0.0020 -0.1151  0.0056
 3049POPC   C1B74558  -0.170  18.346   8.073  0.0625  0.1281  0.0130
 3049POPC   C2B74559  -0.294  18.394   7.595 -0.1360  0.0982 -0.0488
 3049POPC   C3B74560  -0.419  18.803   7.330 -0.0151  0.1266 -0.0296
 3049POPC   C4B74561  -0.645  19.203   7.452 -0.1428 -0.1123 -0.0503
 3050POPC   NC374562  23.298  27.948   9.752  0.0217  0.1298  0.0306
 3050POPC   PO474563  23.244  28.223   9.445 -0.0842 -0.3195 -0.1039
 3050POPC   GL174564  23.344  28.217   9.075 -0.0491  0.1228  0.0471
 3050POPC   GL274565  23.202  28.377   8.934  0.2005 -0.2135  0.0491
 3050POPC   C1A74566  23.678  28.223   8.750  0.1840 -0.2381 -0.1350
 3050POPC   D2A74567  23.643  27.961   8.366  0.1877  0.2137  0.0209
 3050POPC   C3A74568  23.932  27.902   8.084 -0.0851  0.1575 -0.1207
 3050POPC   C4A74569  24.318  27.825   7.872 -0.2934  0.0719 -0.2371
 3050POPC   C1B74570  23.171  27.996   8.694 -0.0923  0.1339  0.0042
 3050POPC   C2B74571  23.145  27.671   8.309 -0.1733 -0.0293  0.2146
 3050POPC   C3B74572  23.092  27.416   7.900  0.0174 -0.3212 -0.0318
 3050POPC   C4B74573  22.813  27.190   7.603  0.0369  0.3983  0.3966
 3051POPC   NC374574  28.162  32.172  15.334  0.1651 -0.0205  0.3904
 3051POPC   PO474575  28.026  31.841  15.597  0.1043 -0.2387  0.1159
 3051POPC   GL174576  28.052  32.131  15.870 -0.0833 -0.0440 -0.1201
 3051POPC   GL274577  27.766  32.098  15.936 -0.1975  0.4152  0.3303
 3051POPC   C1A74578  28.015  32.307  16.296  0.2205  0.2407  0.0259
 3051POPC   D2A74579  27.769  32.590  16.512 -0.0904 -0.0606 -0.1059
 3051POPC   C3A74580  27.780  32.482  16.922  0.0725 -0.1438  0.0357
 3051POPC   C4A74581  27.900  32.570  17.348  0.5567 -0.1653  0.2784
 3051POPC   C1B74582  27.439  32.392  16.167 -0.2810  0.0071  0.0010
 3051POPC   C2B74583  27.205  32.770  16.358  0.1463 -0.0954 -0.0452
 3051POPC   C3B74584  26.909  33.002  16.697  0.0442 -0.1237 -0.0450
 3051POPC   C4B74585  26.847  33.096  17.130 -0.3053  0.0507 -0.1617
 3052POPC   NC374586  18.586  31.695   7.812 -0.0833  0.0693 -0.1766
 3052POPC   PO474587  18.883  31.413   7.901 -0.0340  0.0301  0.4473
 3052POPC   GL174588  18.990  31.396   7.534  0.4749  0.1734  0.1734
 3052POPC   GL274589  19.151  31.159   7.436  0.1818  0.1335 -0.2785
 3052POPC   C1A74590  18.684  31.511   7.221 -0.1946  0.0532  0.0721
 3052POPC   D2A74591  18.365  31.630   6.913  0.0732  0.1766  0.4148
 3052POPC   C3A74592  18.417  31.423   6.520  0.0199  0.2870 -0.0659
 3052POPC   C4A74593  18.550  31.041   6.293 -0.0566 -0.0784 -0.0436
 3052POPC   C1B74594  19.249  30.996   7.029  0.0402  0.1471 -0.0118
 3052POPC   C2B74595  19.453  30.972   6.617 -0.2155 -0.1053 -0.0560
 3052POPC   C3B74596  19.560  31.037   6.160 -0.1824 -0.3616 -0.0579
 3052POPC   C4B74597  19.721  31.128   5.739 -0.1314  0.0737 -0.3058
 3053POPC   NC374598  17.612  25.385   8.873 -0.1402  0.0448  0.1411
 3053POPC   PO474599  17.379  25.659   8.943 -0.1062 -0.1158 -0.2394
 3053POPC   GL174600  17.259  25.640   8.599 -0.1900  0.3156  0.2241
 3053POPC   GL274601  17.328  25.704   8.347 -0.0065 -0.1162  0.1322
 3053POPC   C1A74602  17.203  25.230   8.450  0.0878  0.1652 -0.2240
 3053POPC   D2A74603  17.123  24.904   8.057 -0.3686  0.0374  0.1728
 3053POPC   C3A74604  16.902  24.765   7.706  0.1105  0.0510  0.2218
 3053POPC   C4A74605  17.061  24.955   7.304  0.0759  0.3076 -0.1352
 3053POPC   C1B74606  17.218  25.473   8.029 -0.2642 -0.0422  0.1872
 3053POPC   C2B74607  17.382  25.246   7.717  0.0036 -0.2247  0.1178
 3053POPC   C3B74608  17.585  24.957   7.384  0.1221 -0.0778  0.2424
 3053POPC   C4B74609  17.880  24.585   7.273  0.0775  0.1987 -0.0574
 3054POPC   NC374610  21.588  29.727   8.465 -0.0887 -0.1091 -0.1276
 3054POPC   PO474611  21.264  29.595   8.323  0.0939 -0.0912  0.1613
 3054POPC   GL174612  21.369  29.355   8.051  0.1738 -0.3194 -0.2102
 3054POPC   GL274613  21.100  29.370   7.837 -0.0110 -0.1840  0.0778
 3054POPC   C1A74614  21.496  29.137   7.641  0.4501 -0.1174  0.2700
 3054POPC   D2A74615  21.762  28.958   7.312 -0.0929 -0.1631  0.1246
 3054POPC   C3A74616  21.606  29.097   6.907  0.0734 -0.0255  0.0360
 3054POPC   C4A74617  21.683  29.331   6.477 -0.1029  0.2067 -0.0395
 3054POPC   C1B74618  21.067  29.336   7.360 -0.0654 -0.1364 -0.0225
 3054POPC   C2B74619  21.104  29.200   6.856 -0.1079 -0.0358 -0.3973
 3054POPC   C3B74620  21.193  29.122   6.422  0.2205 -0.2559  0.0525
 3054POPC   C4B74621  21.401  29.163   6.043  0.0005  0.0337  0.1423
 3055POPC   NC374622  30.626  28.288   8.709  0.0422  0.0158 -0.1551
 3055POPC   PO474623  30.491  28.652   8.662 -0.0510  0.0295 -0.1986
 3055POPC   GL174624  30.394  28.716   8.301  0.2250 -0.0276  0.0008
 3055POPC   GL274625  30.395  28.394   8.261  0.2971 -0.0887  0.2023
 3055POPC   C1A74626  29.996  28.717   7.994 -0.0482 -0.0679  0.2235
 3055POPC   D2A74627  29.909  28.574   7.561  0.0516 -0.0003  0.2068
 3055POPC   C3A74628  29.444  28.528   7.447 -0.0014  0.2168  0.1782
 3055POPC   C4A74629  29.014  28.284   7.455  0.3190 -0.0693 -0.0305
 3055POPC   C1B74630  30.204  28.039   8.016  0.1705 -0.1711 -0.0963
 3055POPC   C2B74631  30.118  27.875   7.573  0.0620 -0.2677  0.2142
 3055POPC   C3B74632  30.101  27.430   7.412 -0.0656  0.0988  0.1692
 3055POPC   C4B74633  29.849  27.321   7.070 -0.0305  0.0412  0.0375
 3056POPC   NC374634  19.224  29.802   7.825  0.2383  0.1760 -0.0291
 3056POPC   PO474635  18.892  29.553   7.850 -0.2591 -0.0962 -0.0080
 3056POPC   GL174636  19.035  29.517   7.446 -0.2085  0.3299 -0.1767
 3056POPC   GL274637  19.355  29.546   7.376 -0.0722  0.0223  0.2731
 3056POPC   C1A74638  19.084  29.717   7.037  0.1384  0.1665  0.0221
 3056POPC   D2A74639  19.063  29.594   6.610  0.3341 -0.0298  0.2906
 3056POPC   C3A74640  18.833  29.701   6.243  0.0346 -0.1088 -0.1111
 3056POPC   C4A74641  18.823  29.647   5.790  0.0722  0.1745  0.0500
 3056POPC   C1B74642  19.509  29.434   6.942 -0.0682  0.1458 -0.1753
 3056POPC   C2B74643  19.393  29.254   6.568  0.0790  0.1105 -0.0798
 3056POPC   C3B74644  19.058  29.221   6.252 -0.5007  0.1243  0.1476
 3056POPC   C4B74645  18.885  28.908   5.943 -0.2256  0.2108 -0.0479
 3057POPC   NC374646  21.641  19.118   9.847 -0.0317  0.0358  0.2163
 3057POPC   PO474647  21.961  18.962   9.989 -0.0075  0.3399  0.1899
 3057POPC   GL174648  22.141  19.159   9.678  0.0228  0.0914  0.2650
 3057POPC   GL274649  21.990  19.399   9.560  0.0475 -0.1740 -0.2673
 3057POPC   C1A74650  22.438  19.250   9.355  0.2389 -0.2750 -0.1341
 3057POPC   D2A74651  22.846  19.229   9.146 -0.0128 -0.4030  0.2620
 3057POPC   C3A74652  23.128  19.512   8.959 -0.0496 -0.1421  0.0815
 3057POPC   C4A74653  23.273  19.972   8.844 -0.1346  0.0869 -0.0260
 3057POPC   C1B74654  22.291  19.702   9.548  0.1004  0.1223  0.3131
 3057POPC   C2B74655  22.631  19.969   9.566  0.0306  0.1128 -0.1460
 3057POPC   C3B74656  22.931  20.299   9.469  0.1623 -0.2501  0.2672
 3057POPC   C4B74657  23.153  20.715   9.463  0.1400 -0.0551  0.0310
 3058POPC   NC374658  22.409  25.147  11.837  0.0044 -0.1781  0.0096
 3058POPC   PO474659  22.069  25.004  11.813  0.2098  0.3264  0.0773
 3058POPC   GL174660  22.328  24.702  11.870  0.1409  0.0563  0.3011
 3058POPC   GL274661  22.485  24.654  11.592 -0.2121 -0.2527 -0.0270
 3058POPC   C1A74662  22.754  24.681  12.023  0.1751 -0.2649  0.4197
 3058POPC   D2A74663  23.029  25.018  11.992  0.2518  0.0583  0.0549
 3058POPC   C3A74664  23.457  24.867  11.915 -0.1752 -0.0220 -0.0555
 3058POPC   C4A74665  23.563  24.493  11.663  0.1337  0.1444  0.1286
 3058POPC   C1B74666  22.916  24.663  11.496 -0.3492  0.0343 -0.0664
 3058POPC   C2B74667  23.186  24.367  11.377  0.3086 -0.1240  0.1921
 3058POPC   C3B74668  23.551  24.049  11.360 -0.0014 -0.1925 -0.0910
 3058POPC   C4B74669  23.768  23.712  11.629  0.1209  0.3589  0.0888
 3059POPC   NC374670  15.272  24.651   9.017 -0.3051 -0.0193  0.1781
 3059POPC   PO474671  15.586  24.566   9.204  0.0346  0.1432 -0.0289
 3059POPC   GL174672  15.621  24.328   8.887 -0.0030  0.0049  0.1790
 3059POPC   GL274673  15.494  24.073   9.037  0.0914  0.0709 -0.1126
 3059POPC   C1A74674  15.785  24.222   8.497 -0.1694 -0.3633  0.0179
 3059POPC   D2A74675  16.002  24.340   8.139 -0.2715 -0.0276  0.0212
 3059POPC   C3A74676  15.705  24.516   7.730 -0.0553  0.1373  0.0342
 3059POPC   C4A74677  15.338  24.429   7.414 -0.0827 -0.1683 -0.1098
 3059POPC   C1B74678  15.130  24.185   8.774 -0.1187  0.3875  0.2104
 3059POPC   C2B74679  14.884  24.017   8.401  0.1728  0.0317  0.2796
 3059POPC   C3B74680  14.830  23.867   7.974  0.0078  0.0048  0.0795
 3059POPC   C4B74681  14.807  23.594   7.584 -0.0059  0.0326  0.0477
 3060POPC   NC374682  20.908  22.008  10.035 -0.0570  0.0130  0.3697
 3060POPC   PO474683  20.564  21.965   9.893  0.0082  0.0946 -0.1524
 3060POPC   GL174684  20.813  22.010   9.595  0.0224  0.2518 -0.0214
 3060POPC   GL274685  20.690  21.823   9.365  0.2998  0.1094  0.0284
 3060POPC   C1A74686  21.200  21.794   9.525 -0.1129  0.2931 -0.1359
 3060POPC   D2A74687  21.629  21.906   9.391 -0.2764  0.1391  0.1014
 3060POPC   C3A74688  22.049  21.795   9.361  0.0505 -0.3225 -0.2430
 3060POPC   C4A74689  22.426  21.759   9.554 -0.1721 -0.1149  0.0916
 3060POPC   C1B74690  20.937  22.046   9.203  0.2287 -0.0475 -0.1725
 3060POPC   C2B74691  21.379  22.021   9.016  0.0233  0.3690 -0.2211
 3060POPC   C3B74692  21.501  21.659   8.802 -0.1243 -0.3057 -0.0700
 3060POPC   C4B74693  21.576  21.224   8.684  0.3759 -0.1511  0.1079
 3061POPC   NC374694  30.896  19.705  10.414  0.1194  0.3567  0.0263
 3061POPC   PO474695  30.896  19.935  10.710 -0.1424 -0.2131 -0.1247
 3061POPC   GL174696  30.683  20.224  10.494  0.0677 -0.2843 -0.2755
 3061POPC   GL274697  30.568  20.060  10.316  0.3888  0.1018  0.3023
 3061POPC   C1A74698  30.227  20.387  10.422  0.0469 -0.0388 -0.0774
 3061POPC   D2A74699  29.927  20.733  10.238  0.3960  0.1056  0.0820
 3061POPC   C3A74700  29.563  20.958  10.443 -0.1074  0.2550 -0.0832
 3061POPC   C4A74701  29.525  21.392  10.478 -0.2912 -0.2079 -0.3468
 3061POPC   C1B74702  30.284  19.979   9.951  0.4185  0.1061 -0.0915
 3061POPC   C2B74703  29.915  19.751   9.779 -0.0870  0.0923 -0.3483
 3061POPC   C3B74704  29.614  19.827   9.449  0.1841  0.2270 -0.1515
 3061POPC   C4B74705  29.198  19.916   9.387  0.0412  0.1300  0.0513
 3062POPC   NC374706  30.831  26.478  10.273 -0.2106  0.1088 -0.2125
 3062POPC   PO474707  30.931  26.083  10.330 -0.3545  0.1200  0.1529
 3062POPC   GL174708  30.523  26.000  10.410  0.2383 -0.3390  0.1541
 3062POPC   GL274709  30.416  26.144  10.186 -0.2148  0.0981 -0.0303
 3062POPC   C1A74710  30.308  25.644  10.648  0.3352  0.1802  0.0865
 3062POPC   D2A74711  29.874  25.629  10.825 -0.1532 -0.4289  0.0897
 3062POPC   C3A74712  29.498  25.560  10.563 -0.4290 -0.1026 -0.1514
 3062POPC   C4A74713  29.107  25.239  10.568  0.1350 -0.0753 -0.2225
 3062POPC   C1B74714  30.042  25.873  10.257 -0.2029  0.2070 -0.0327
 3062POPC   C2B74715  29.671  25.674  10.068 -0.0245  0.0118  0.1225
 3062POPC   C3B74716  29.271  25.432  10.038 -0.2499 -0.2036  0.1502
 3062POPC   C4B74717  28.980  25.358   9.682 -0.0255 -0.1517  0.1262
 3063POPC   NC374718  17.896  18.441   8.507  0.2299  0.0821 -0.1521
 3063POPC   PO474719  18.163  18.603   8.771 -0.1963 -0.0709 -0.2487
 3063POPC   GL174720  18.127  18.815   8.405  0.0312  0.4664 -0.1657
 3063POPC   GL274721  18.049  19.042   8.280  0.2100 -0.0102 -0.1531
 3063POPC   C1A74722  18.332  18.750   8.014 -0.3585  0.4583 -0.0833
 3063POPC   D2A74723  18.328  18.527   7.618 -0.0910  0.3597  0.3804
 3063POPC   C3A74724  18.220  18.782   7.260 -0.1552  0.0425  0.1871
 3063POPC   C4A74725  18.120  18.613   6.867 -0.2795 -0.1437  0.1884
 3063POPC   C1B74726  18.180  19.255   7.895 -0.3058  0.1524 -0.1427
 3063POPC   C2B74727  18.193  19.583   7.520 -0.0300 -0.3783  0.4028
 3063POPC   C3B74728  18.232  19.740   7.069 -0.4375  0.2600  0.1365
 3063POPC   C4B74729  18.081  19.928   6.679  0.1219 -0.0260 -0.3585
 3064POPC   NC374730  27.325   1.401   9.690 -0.3290  0.1116 -0.1131
 3064POPC   PO474731  27.522   1.069   9.517  0.0275 -0.0323  0.2941
 3064POPC   GL174732  27.356   1.283   9.199  0.1146  0.1985  0.2607
 3064POPC   GL274733  27.598   1.501   9.209 -0.1623 -0.0067  0.2324
 3064POPC   C1A74734  27.271   1.598   8.839 -0.0323  0.0232  0.1820
 3064POPC   D2A74735  27.236   1.894   8.531  0.1927 -0.2843  0.2778
 3064POPC   C3A74736  27.519   2.318   8.557  0.0247  0.2031 -0.0603
 3064POPC   C4A74737  27.752   2.635   8.406 -0.0641 -0.0804 -0.4698
 3064POPC   C1B74738  27.541   1.952   9.331  0.1334 -0.2525 -0.0288
 3064POPC   C2B74739  27.195   2.119   8.999 -0.2186  0.1845  0.0191
 3064POPC   C3B74740  26.992   2.316   8.677  0.2236 -0.0871 -0.3124
 3064POPC   C4B74741  27.116   2.240   8.220 -0.1485 -0.0567 -0.1235
 3065POPC   NC374742  21.787  21.528  13.577 -0.2402  0.0383  0.1996
 3065POPC   PO474743  21.446  21.722  13.563  0.0610 -0.0051  0.0808
 3065POPC   GL174744  21.637  21.743  13.932  0.1373  0.0364  0.0630
 3065POPC   GL274745  21.490  21.563  14.236 -0.1118  0.1431  0.0720
 3065POPC   C1A74746  21.917  21.873  14.267 -0.1344  0.4549 -0.0070
 3065POPC   D2A74747  22.117  22.083  14.626 -0.0785 -0.3989  0.2180
 3065POPC   C3A74748  22.443  21.997  14.990 -0.4025 -0.0100  0.0127
 3065POPC   C4A74749  22.831  21.940  15.189  0.2226  0.0093 -0.2088
 3065POPC   C1B74750  21.604  21.650  14.679  0.3863  0.2823  0.0305
 3065POPC   C2B74751  21.892  21.816  14.950  0.0303  0.0812  0.1850
 3065POPC   C3B74752  22.188  21.728  15.300  0.5011 -0.0648 -0.1715
 3065POPC   C4B74753  22.437  21.821  15.693  0.0723  0.0804 -0.0648
 3066POPC   NC374754  30.389  18.657  14.398  0.2698 -0.0268  0.0492
 3066POPC   PO474755  30.655  18.884  14.533  0.2042 -0.3911  0.1974
 3066POPC   GL174756  30.361  19.089  14.721 -0.1274  0.1480  0.0423
 3066POPC   GL274757  30.087  18.965  14.795  0.1268 -0.2754 -0.0936
 3066POPC   C1A74758  30.283  19.259  15.130 -0.0701  0.0221 -0.0241
 3066POPC   D2A74759  29.930  19.506  15.380  0.2971 -0.2685 -0.3448
 3066POPC   C3A74760  30.029  19.821  15.676 -0.1827  0.0295  0.0295
 3066POPC   C4A74761  30.148  20.227  15.725  0.1865 -0.3261  0.0955
 3066POPC   C1B74762  29.879  19.413  14.702 -0.1852  0.1096 -0.2452
 3066POPC   C2B74763  29.830  19.833  14.551  0.1768  0.1763  0.0980
 3066POPC   C3B74764  29.476  20.049  14.434  0.1565  0.0002 -0.3210
 3066POPC   C4B74765  29.017  20.039  14.540 -0.1436 -0.0714  0.1788
 3067POPC   NC374766  22.429  26.066  15.910  0.2415 -0.1232 -0.0347
 3067POPC   PO474767  22.092  26.036  15.726 -0.0428 -0.3331  0.1131
 3067POPC   GL174768  21.911  25.876  16.020  0.1826  0.0373 -0.0031
 3067POPC   GL274769  21.930  25.573  15.872  0.2641 -0.0419 -0.0586
 3067POPC   C1A74770  22.150  25.806  16.394 -0.1412  0.0175  0.1270
 3067POPC   D2A74771  22.477  26.040  16.632 -0.2478  0.0704  0.0794
 3067POPC   C3A74772  22.202  26.085  17.020 -0.1365  0.1448 -0.1552
 3067POPC   C4A74773  22.308  26.163  17.462 -0.1980 -0.2031 -0.1274
 3067POPC   C1B74774  21.966  25.258  16.225 -0.0366  0.0535  0.0735
 3067POPC   C2B74775  22.241  24.970  16.462 -0.1153 -0.2884 -0.0433
 3067POPC   C3B74776  22.426  24.934  16.839  0.0900 -0.3712  0.2871
 3067POPC   C4B74777  22.766  24.697  16.907 -0.0805 -0.0723  0.4137
 3068POPC   NC374778  30.293  27.501   9.233 -0.1186  0.0623 -0.0404
 3068POPC   PO474779  30.674  27.603   9.272 -0.2704 -0.0445  0.0127
 3068POPC   GL174780  30.591  27.296   8.976 -0.2097 -0.0626  0.0729
 3068POPC   GL274781  30.554  27.058   9.062  0.3492 -0.0935 -0.3127
 3068POPC   C1A74782  30.322  27.145   8.640  0.1296 -0.1033  0.3548
 3068POPC   D2A74783  30.173  27.164   8.168  0.3268 -0.2917  0.1307
 3068POPC   C3A74784  29.986  26.890   7.800 -0.1769 -0.0733 -0.0051
 3068POPC   C4A74785  29.722  26.930   7.463  0.3384 -0.0619 -0.0004
 3068POPC   C1B74786  30.760  26.829   8.726 -0.0064 -0.0356  0.0136
 3068POPC   C2B74787  30.538  26.800   8.246 -0.2646 -0.1099 -0.1885
 3068POPC   C3B74788  30.424  26.725   7.776 -0.2054  0.0860 -0.1117
 3068POPC   C4B74789  30.550  26.413   7.480  0.2554 -0.0699 -0.4030
 3069POPC   NC374790  28.422  31.459   8.501  0.1699 -0.0191  0.2284
 3069POPC   PO474791  28.278  31.403   8.845  0.1417  0.4938 -0.2107
 3069POPC   GL174792  27.984  31.509   8.619 -0.0146  0.1719 -0.4492
 3069POPC   GL274793  27.969  31.299   8.402 -0.2489 -0.0802  0.1407
 3069POPC   C1A74794  27.816  31.833   8.385  0.1510  0.0339  0.0054
 3069POPC   D2A74795  27.625  32.041   8.017  0.2980  0.0786 -0.1228
 3069POPC   C3A74796  27.726  32.488   7.956  0.2750 -0.0334 -0.1629
 3069POPC   C4A74797  28.019  32.755   7.791  0.1165 -0.1060 -0.1296
 3069POPC   C1B74798  27.854  31.554   7.993  0.3590 -0.0641 -0.2782
 3069POPC   C2B74799  27.776  31.772   7.579 -0.0070 -0.3898 -0.0664
 3069POPC   C3B74800  27.727  31.938   7.176  0.1551  0.2614  0.0532
 3069POPC   C4B74801  27.508  32.320   7.004 -0.1249  0.0371 -0.4364
 3070POPC   NC374802  24.053  30.607   8.501  0.3048 -0.0246  0.0332
 3070POPC   PO474803  24.298  30.840   8.681  0.1674  0.0948 -0.2249
 3070POPC   GL174804  24.492  30.997   8.476 -0.0200 -0.3350  0.2475
 3070POPC   GL274805  24.769  30.959   8.331 -0.0196 -0.0321  0.1030
 3070POPC   C1A74806  24.493  31.256   8.014 -0.0456  0.0584 -0.0274
 3070POPC   D2A74807  24.621  31.534   7.665 -0.0501 -0.0777 -0.0529
 3070POPC   C3A74808  24.629  32.002   7.724  0.1063 -0.1340  0.1721
 3070POPC   C4A74809  24.918  32.309   7.919  0.2277 -0.2847 -0.0234
 3070POPC   C1B74810  25.113  30.759   8.188 -0.0403  0.0634 -0.2428
 3070POPC   C2B74811  25.193  30.721   7.701  0.1661 -0.0099  0.1082
 3070POPC   C3B74812  25.189  30.710   7.249 -0.1335 -0.2727 -0.2615
 3070POPC   C4B74813  24.968  30.719   6.848 -0.1335 -0.0611 -0.3554
 3071POPC   NC374814  30.846  20.412  10.011 -0.2802 -0.1177  0.0007
 3071POPC   PO474815  31.153  20.356   9.747  0.2100 -0.0481 -0.0171
 3071POPC   GL174816  30.906  20.487   9.459  0.2579 -0.0351  0.2681
 3071POPC   GL274817  31.011  20.683   9.358 -0.1355 -0.1891 -0.2748
 3071POPC   C1A74818  30.775  20.381   8.995 -0.4315  0.0930 -0.0005
 3071POPC   D2A74819  30.680  20.395   8.546 -0.0298 -0.1084 -0.0867
 3071POPC   C3A74820  30.417  20.287   8.153  0.1568  0.1736  0.1811
 3071POPC   C4A74821  30.127  20.068   7.811 -0.1653 -0.0178  0.2029
 3071POPC   C1B74822  31.022  21.154   9.199  0.0544  0.0460  0.3429
 3071POPC   C2B74823  30.671  21.442   9.118 -0.0254  0.0377 -0.0553
 3071POPC   C3B74824  30.431  21.643   9.385 -0.2220 -0.3606  0.2373
 3071POPC   C4B74825  30.078  21.873   9.426  0.1193 -0.1402  0.0419
 3072POPC   NC374826  31.692  25.326  10.484  0.0833 -0.1944 -0.1546
 3072POPC   PO474827  31.430  25.088  10.684 -0.2376  0.1262 -0.2285
 3072POPC   GL174828  31.123  24.951  10.463  0.0009  0.1381  0.0213
 3072POPC   GL274829  30.914  25.074  10.586 -0.2479  0.1473 -0.0345
 3072POPC   C1A74830  30.738  24.657  10.326  0.2153 -0.2871  0.1763
 3072POPC   D2A74831  30.347  24.484  10.245 -0.0596 -0.0316 -0.0771
 3072POPC   C3A74832  30.281  24.583   9.797  0.0204  0.0179 -0.0307
 3072POPC   C4A74833  30.140  24.564   9.365 -0.0953  0.0511 -0.0802
 3072POPC   C1B74834  30.481  25.141  10.489  0.1321 -0.0042 -0.3374
 3072POPC   C2B74835  30.173  24.931  10.184  0.0201  0.0201  0.2823
 3072POPC   C3B74836  29.869  24.533  10.078  0.3687 -0.0798 -0.1902
 3072POPC   C4B74837  29.549  24.258  10.239 -0.0126 -0.2512  0.0190
 3073POPC   NC374838  29.553  30.819   8.399  0.2724  0.2251  0.1335
 3073POPC   PO474839  29.723  31.173   8.539 -0.0850 -0.0848  0.3975
 3073POPC   GL174840  29.651  31.258   8.135 -0.4939 -0.8296 -0.4081
 3073POPC   GL274841  29.729  31.537   7.968 -0.0705 -0.1698 -0.0144
 3073POPC   C1A74842  29.565  30.894   7.858 -0.1685 -0.1132 -0.3721
 3073POPC   D2A74843  29.468  30.632   7.481 -0.2665  0.1160  0.2533
 3073POPC   C3A74844  29.278  30.752   7.068  0.0054 -0.2347 -0.0832
 3073POPC   C4A74845  29.062  30.863   6.626  0.0379  0.0228 -0.2950
 3073POPC   C1B74846  29.368  31.317   7.693  0.0541  0.0844  0.0369
 3073POPC   C2B74847  29.276  31.388   7.271  0.2317  0.1433 -0.1480
 3073POPC   C3B74848  29.285  31.323   6.813 -0.0310 -0.0147  0.1055
 3073POPC   C4B74849  29.454  31.160   6.401  0.2070  0.1180  0.3294
 3074POPC   NC374850  19.092  17.263   8.661  0.0107 -0.3482  0.2022
 3074POPC   PO474851  19.110  16.880   8.806 -0.0540  0.1367  0.0080
 3074POPC   GL174852  19.284  16.872   8.515  0.1967  0.5732  0.0959
 3074POPC   GL274853  19.065  16.643   8.348  0.2512 -0.0599  0.1755
 3074POPC   C1A74854  19.191  17.074   8.110 -0.0250 -0.0554  0.0018
 3074POPC   D2A74855  19.002  17.328   7.803 -0.2921  0.1017  0.1799
 3074POPC   C3A74856  19.244  17.653   7.641 -0.1752  0.2462 -0.0857
 3074POPC   C4A74857  19.232  18.030   7.443  0.4100  0.2461 -0.1647
 3074POPC   C1B74858  19.032  16.695   7.869 -0.0073  0.1535  0.0360
 3074POPC   C2B74859  19.142  16.739   7.462  0.2774 -0.2404 -0.1718
 3074POPC   C3B74860  19.332  16.905   7.068  0.0736 -0.0936 -0.0303
 3074POPC   C4B74861  19.151  17.211   6.728 -0.0976 -0.3083 -0.2631
 3075POPC   NC374862  25.089  17.216  10.330  0.3279  0.0903  0.1467
 3075POPC   PO474863  24.879  16.972  10.099  0.0296  0.4281 -0.1319
 3075POPC   GL174864  24.818  17.288   9.797 -0.1808  0.1536 -0.1175
 3075POPC   GL274865  24.642  17.531   9.797  0.1878 -0.0983 -0.0006
 3075POPC   C1A74866  25.100  17.418   9.402  0.0383  0.0557 -0.1454
 3075POPC   D2A74867  25.563  17.514   9.434 -0.3585  0.1647 -0.0445
 3075POPC   C3A74868  25.738  17.781   9.061 -0.1180  0.2540 -0.0188
 3075POPC   C4A74869  25.690  18.003   8.648 -0.2002  0.0190  0.0409
 3075POPC   C1B74870  24.826  17.788   9.436  0.1471  0.0143 -0.0537
 3075POPC   C2B74871  25.178  17.989   9.191 -0.1019  0.1752  0.1861
 3075POPC   C3B74872  25.467  18.288   8.962 -0.0560 -0.1718 -0.1308
 3075POPC   C4B74873  25.438  18.462   8.580  0.1527  0.0499  0.0512
 3076POPC   NC374874  18.515  21.834   9.124 -0.2316  0.2649  0.2962
 3076POPC   PO474875  18.441  22.191   9.335 -0.1223 -0.1877 -0.3513
 3076POPC   GL174876  18.554  22.264   8.912 -0.4551  0.2275  0.1651
 3076POPC   GL274877  18.788  22.201   8.895 -0.1337  0.0667  0.2381
 3076POPC   C1A74878  18.533  22.626   8.599 -0.3277 -0.0289  0.4669
 3076POPC   D2A74879  18.624  22.689   8.139  0.2642  0.2239 -0.0283
 3076POPC   C3A74880  19.065  22.697   8.085  0.2992  0.1745  0.0454
 3076POPC   C4A74881  19.447  22.729   8.407  0.1857  0.1923  0.0403
 3076POPC   C1B74882  18.695  21.931   8.576  0.0827  0.1479 -0.0255
 3076POPC   C2B74883  18.420  21.942   8.228 -0.0601  0.0554  0.0061
 3076POPC   C3B74884  18.322  21.900   7.789  0.0318 -0.0319 -0.2286
 3076POPC   C4B74885  18.422  21.500   7.589 -0.0913  0.0693  0.1305
 3077POPC   NC374886  29.250  18.237  10.024 -0.0844 -0.1108 -0.4051
 3077POPC   PO474887  28.959  18.386  10.229 -0.0113  0.0146  0.1577
 3077POPC   GL174888  28.843  18.752  10.195 -0.1596 -0.0913 -0.1025
 3077POPC   GL274889  28.560  18.838  10.092  0.1586  0.0687 -0.6500
 3077POPC   C1A74890  28.923  19.083   9.826  0.0896 -0.2925 -0.2635
 3077POPC   D2A74891  28.648  19.430   9.796 -0.1353  0.0781  0.2144
 3077POPC   C3A74892  28.234  19.515   9.644 -0.2442 -0.1132 -0.0516
 3077POPC   C4A74893  27.990  19.735   9.293  0.0992  0.1961 -0.1449
 3077POPC   C1B74894  28.434  19.016   9.720  0.3531 -0.0484 -0.2915
 3077POPC   C2B74895  28.189  18.904   9.344  0.0742  0.0550 -0.0646
 3077POPC   C3B74896  28.089  18.931   8.889  0.4005 -0.1288  0.1727
 3077POPC   C4B74897  27.838  19.204   8.615 -0.1541 -0.0174 -0.0444
 3078POPC   NC374898  22.012  22.564  12.751  0.0100 -0.0724 -0.0550
 3078POPC   PO474899  22.059  22.276  12.978  0.1562  0.3088 -0.0244
 3078POPC   GL174900  22.390  22.489  13.051 -0.0204  0.0889 -0.0270
 3078POPC   GL274901  22.429  22.399  13.270  0.0720 -0.0531  0.0835
 3078POPC   C1A74902  22.621  22.908  12.884 -0.1043  0.1826 -0.2021
 3078POPC   D2A74903  23.008  23.153  12.983  0.2190  0.1341  0.2541
 3078POPC   C3A74904  23.305  23.365  13.070  0.1064 -0.2028 -0.0212
 3078POPC   C4A74905  23.708  23.562  13.278  0.1269 -0.1226 -0.1544
 3078POPC   C1B74906  22.873  22.339  13.523 -0.0301  0.1040  0.0217
 3078POPC   C2B74907  23.312  22.449  13.508  0.2267 -0.1613  0.3772
 3078POPC   C3B74908  23.770  22.627  13.350  0.0896 -0.2026  0.1780
 3078POPC   C4B74909  23.909  22.888  12.993  0.3051 -0.0751 -0.1323
 3079POPC   NC374910  21.203  32.745   8.394  0.0450 -0.1028  0.0359
 3079POPC   PO474911  20.940  32.463   8.467  0.0246  0.1134  0.0869
 3079POPC   GL174912  20.837  32.541   8.088  0.1156 -0.2076 -0.1838
 3079POPC   GL274913  20.867  32.807   8.047 -0.0204  0.1117 -0.2844
 3079POPC   C1A74914  20.923  32.477   7.643  0.3114 -0.0924 -0.0085
 3079POPC   D2A74915  20.924  32.270   7.184 -0.1196  0.0971  0.2777
 3079POPC   C3A74916  20.757  32.565   6.818 -0.3150  0.3567  0.2430
 3079POPC   C4A74917  20.614  32.914   6.511  0.0791  0.0389  0.1650
 3079POPC   C1B74918  20.999  33.099   7.661  0.0305  0.2621 -0.0091
 3079POPC   C2B74919  21.262  33.238   7.272 -0.0658  0.3286  0.1368
 3079POPC   C3B74920  21.433  33.605   7.070  0.1047  0.0311  0.0199
 3079POPC   C4B74921  21.414  33.968   7.377  0.2040  0.1110 -0.4132
 3080POPC   NC374922  26.967  17.775  10.266 -0.0819  0.1645 -0.1498
 3080POPC   PO474923  27.159  18.056  10.502  0.2690  0.0484  0.3154
 3080POPC   GL174924  26.835  18.310  10.375 -0.2807  0.3233  0.0657
 3080POPC   GL274925  26.652  18.134  10.296  0.1457 -0.2304  0.1495
 3080POPC   C1A74926  26.693  18.675  10.212 -0.1145  0.2526 -0.1272
 3080POPC   D2A74927  26.270  18.807  10.127 -0.0255 -0.0375  0.0387
 3080POPC   C3A74928  26.104  19.220  10.133 -0.0788 -0.0902 -0.0199
 3080POPC   C4A74929  26.247  19.644  10.166 -0.2145  0.0656  0.0379
 3080POPC   C1B74930  26.259  18.329  10.065  0.0790 -0.1807  0.0871
 3080POPC   C2B74931  26.093  18.490   9.681  0.1513  0.0052  0.1044
 3080POPC   C3B74932  25.853  18.734   9.311  0.1266 -0.0757 -0.0433
 3080POPC   C4B74933  25.663  19.087   9.176 -0.2905 -0.0835 -0.1116
 3081POPC   NC374934  30.764  17.932  15.203  0.0462 -0.4004  0.2226
 3081POPC   PO474935  30.739  18.269  15.014 -0.2682 -0.0464 -0.1778
 3081POPC   GL174936  30.698  18.414  15.383  0.1962  0.2470  0.0873
 3081POPC   GL274937  30.699  18.267  15.591  0.2861  0.0561 -0.0003
 3081POPC   C1A74938  30.566  18.907  15.451  0.2995  0.1137  0.1211
 3081POPC   D2A74939  30.459  19.275  15.645  0.0903  0.0660  0.0663
 3081POPC   C3A74940  30.779  19.566  15.809 -0.3657 -0.7017  0.1088
 3081POPC   C4A74941  31.087  19.887  16.050 -0.0275  0.1507 -0.0093
 3081POPC   C1B74942  30.411  18.558  15.701  0.3612  0.0432 -0.0455
 3081POPC   C2B74943  30.204  18.924  15.987  0.0101 -0.1904  0.2415
 3081POPC   C3B74944  29.771  18.950  16.026 -0.3444  0.4758  0.0660
 3081POPC   C4B74945  29.420  19.103  16.310 -0.0115 -0.0365 -0.1469
 3082POPC   NC374946  22.305  24.906  13.509 -0.2317  0.0900 -0.0010
 3082POPC   PO474947  22.578  24.872  13.207  0.1592  0.2677  0.1771
 3082POPC   GL174948  22.857  24.721  13.440 -0.2965  0.2407 -0.1792
 3082POPC   GL274949  22.769  24.650  13.668  0.2381 -0.1638 -0.1183
 3082POPC   C1A74950  23.299  24.802  13.280 -0.0218 -0.2244  0.2524
 3082POPC   D2A74951  23.771  24.891  13.238 -0.1149  0.0157  0.0406
 3082POPC   C3A74952  24.003  24.471  13.265  0.0731 -0.1632  0.0438
 3082POPC   C4A74953  24.120  24.028  13.378 -0.1613 -0.2455 -0.2282
 3082POPC   C1B74954  22.993  24.250  13.807  0.0444 -0.1165 -0.0629
 3082POPC   C2B74955  23.440  24.261  14.047 -0.0492 -0.1285  0.3392
 3082POPC   C3B74956  23.774  24.048  14.322 -0.0193  0.1461 -0.4200
 3082POPC   C4B74957  24.140  23.937  14.588  0.0515  0.0032  0.1525
 3083POPC   NC374958  18.377  21.110  15.843 -0.2607  0.2649  0.1916
 3083POPC   PO474959  18.061  21.191  15.669 -0.1612  0.1352 -0.0563
 3083POPC   GL174960  17.934  21.052  16.086 -0.1018  0.5284 -0.2265
 3083POPC   GL274961  18.022  20.815  16.162  0.1320  0.1935 -0.0417
 3083POPC   C1A74962  17.733  20.958  16.546 -0.0900 -0.1210 -0.2780
 3083POPC   D2A74963  17.363  21.040  16.889 -0.0983  0.1989  0.1004
 3083POPC   C3A74964  17.193  21.293  17.254  0.1168 -0.1333 -0.5092
 3083POPC   C4A74965  17.174  21.664  17.509  0.0589  0.0835 -0.2036
 3083POPC   C1B74966  18.236  20.595  16.500  0.4218 -0.0663 -0.2824
 3083POPC   C2B74967  18.326  20.542  16.970  0.2409  0.2328 -0.2237
 3083POPC   C3B74968  18.491  20.426  17.417 -0.2175 -0.0103 -0.1617
 3083POPC   C4B74969  18.556  20.271  17.848  0.3055  0.1538 -0.0609
 3084POPC   NC374970  31.189  20.971  13.791  0.3749  0.1313 -0.2270
 3084POPC   PO474971  31.195  21.039  14.187 -0.1557  0.2136 -0.2273
 3084POPC   GL174972  31.001  21.085  14.506 -0.0781 -0.6800 -0.2251
 3084POPC   GL274973  31.237  21.022  14.670  0.0294 -0.1170  0.1518
 3084POPC   C1A74974  30.776  20.783  14.783  0.2212 -0.2084 -0.1729
 3084POPC   D2A74975  30.715  20.714  15.236 -0.3126 -0.0118  0.1826
 3084POPC   C3A74976  30.596  20.317  15.492 -0.2448 -0.0485 -0.1238
 3084POPC   C4A74977  30.545  19.990  15.808 -0.3264 -0.0606 -0.0276
 3084POPC   C1B74978  31.128  20.991  15.084 -0.2462 -0.1333  0.0759
 3084POPC   C2B74979  30.923  21.282  15.425  0.2151  0.1560 -0.0500
 3084POPC   C3B74980  31.093  21.537  15.808 -0.1265 -0.2478  0.0023
 3084POPC   C4B74981  31.534  21.420  16.064  0.0704 -0.2417  0.2282
 3085POPC   NC374982  23.571  26.003  13.026  0.1077  0.3141 -0.1590
 3085POPC   PO474983  23.775  26.091  12.665  0.0933 -0.2315  0.2299
 3085POPC   GL174984  24.085  25.838  12.677 -0.3585  0.0990  0.0178
 3085POPC   GL274985  24.287  26.033  12.778 -0.3119 -0.1282  0.1747
 3085POPC   C1A74986  24.079  25.341  12.698  0.1541  0.0055 -0.0755
 3085POPC   D2A74987  24.084  24.883  12.879  0.0686 -0.0017  0.2816
 3085POPC   C3A74988  24.174  24.455  12.768 -0.0081 -0.0147 -0.0783
 3085POPC   C4A74989  24.072  24.112  12.381 -0.0482  0.0236 -0.2758
 3085POPC   C1B74990  24.472  25.655  12.954  0.2168  0.1164  0.1090
 3085POPC   C2B74991  24.880  25.470  13.046  0.3258  0.0862  0.1111
 3085POPC   C3B74992  25.301  25.189  13.076  0.0001 -0.2203  0.0164
 3085POPC   C4B74993  25.309  24.729  13.045 -0.0060 -0.2135 -0.5066
 3086POPC   NC374994  21.624  18.594  14.874  0.2785  0.1801 -0.1433
 3086POPC   PO474995  21.795  18.229  14.917 -0.1067  0.0342 -0.0702
 3086POPC   GL174996  21.719  18.269  15.286  0.0948 -0.1997  0.3509
 3086POPC   GL274997  21.767  18.044  15.467  0.0528  0.0013 -0.3150
 3086POPC   C1A74998  21.557  18.457  15.659  0.1905  0.0295 -0.2966
 3086POPC   D2A74999  21.539  18.340  16.132  0.2491 -0.1514  0.1435
 3086POPC   C3A75000  21.850  18.267  16.457 -0.3755 -0.0326  0.1399
 3086POPC   C4A75001  22.070  18.088  16.800  0.0759 -0.2782 -0.1355
 3086POPC   C1B75002  21.941  17.916  15.942  0.0124 -0.2215  0.4902
 3086POPC   C2B75003  22.202  17.872  16.320 -0.1535 -0.1432  0.4442
 3086POPC   C3B75004  22.377  17.597  16.609 -0.0091  0.0732 -0.1176
 3086POPC   C4B75005  22.323  17.200  16.857  0.2615  0.0784 -0.3217
 3087POPC   NC375006   0.692  25.562   8.752  0.1939  0.2372  0.0629
 3087POPC   PO475007   0.494  25.894   8.947 -0.3195  0.1385 -0.0329
 3087POPC   GL175008   0.251  25.612   8.689 -0.2533  0.0265  0.1639
 3087POPC   GL275009  -0.099  25.555   8.688 -0.1867 -0.0761 -0.2025
 3087POPC   C1A75010   0.238  25.548   8.212 -0.1425 -0.0423 -0.1943
 3087POPC   D2A75011   0.270  25.292   7.826  0.0366  0.1954  0.1247
 3087POPC   C3A75012   0.011  25.421   7.410 -0.0287 -0.1800 -0.2186
 3087POPC   C4A75013  -0.406  25.532   7.324  0.1056 -0.1676 -0.1782
 3087POPC   C1B75014  -0.246  25.369   8.264 -0.1055 -0.3160 -0.3398
 3087POPC   C2B75015  -0.563  25.058   8.079 -0.1605  0.1391 -0.0608
 3087POPC   C3B75016  -0.869  24.850   7.844  0.1371  0.1199 -0.1440
 3087POPC   C4B75017  -1.229  24.863   7.514  0.2011 -0.1734  0.0393
 3088POPC   NC375018  31.930  27.457   8.983  0.1063  0.3116 -0.0629
 3088POPC   PO475019  32.011  27.096   8.902 -0.1294  0.3108  0.0163
 3088POPC   GL175020  31.769  26.967   8.682 -0.2186  0.1169  0.0487
 3088POPC   GL275021  31.628  27.138   8.558 -0.2773 -0.4070  0.2140
 3088POPC   C1A75022  31.381  26.729   8.554 -0.0071  0.3457  0.1820
 3088POPC   D2A75023  31.152  26.498   8.232  0.1536 -0.0021  0.3455
 3088POPC   C3A75024  30.703  26.356   8.068 -0.0526 -0.1367 -0.0242
 3088POPC   C4A75025  30.315  26.167   7.963  0.1230 -0.1104  0.1908
 3088POPC   C1B75026  31.441  26.929   8.102  0.4117 -0.1675  0.3179
 3088POPC   C2B75027  31.322  26.727   7.677 -0.0372 -0.0710 -0.1782
 3088POPC   C3B75028  31.416  26.403   7.473 -0.1014  0.1398 -0.2012
 3088POPC   C4B75029  31.415  25.898   7.405 -0.2365 -0.7055  0.1163
 3089POPC   NC375030  17.411  18.114  15.499 -0.5003  0.0567 -0.1348
 3089POPC   PO475031  17.578  18.438  15.702 -0.1609  0.2816  0.0544
 3089POPC   GL175032  17.606  18.503  16.083 -0.0481 -0.0195 -0.2697
 3089POPC   GL275033  17.480  18.798  16.258 -0.2766  0.1309 -0.0761
 3089POPC   C1A75034  17.591  18.447  16.567  0.0810  0.2491 -0.2997
 3089POPC   D2A75035  17.415  18.486  17.015 -0.2807  0.3176  0.3204
 3089POPC   C3A75036  17.309  18.740  17.371  0.0586 -0.1788  0.1767
 3089POPC   C4A75037  17.205  19.047  17.734 -0.0364  0.1054  0.2638
 3089POPC   C1B75038  17.490  18.941  16.737  0.0054 -0.1622 -0.0420
 3089POPC   C2B75039  17.607  19.061  17.165  0.0229 -0.1789  0.1780
 3089POPC   C3B75040  17.636  19.408  17.468 -0.0013 -0.2991 -0.2464
 3089POPC   C4B75041  17.739  19.818  17.680 -0.5206  0.3210  0.1347
 3090POPC   NC375042  31.641  29.207   8.181 -0.0720  0.2013  0.0553
 3090POPC   PO475043  31.448  29.567   8.262 -0.1036 -0.0302 -0.1338
 3090POPC   GL175044  31.425  29.631   7.896  0.2693 -0.1970  0.0928
 3090POPC   GL275045  31.720  29.556   7.833 -0.2199 -0.1727  0.1685
 3090POPC   C1A75046  31.206  29.676   7.488 -0.0308  0.2505 -0.0162
 3090POPC   D2A75047  31.150  29.965   7.147 -0.0714  0.3719  0.0266
 3090POPC   C3A75048  30.983  29.776   6.744 -0.0441 -0.0269  0.0665
 3090POPC   C4A75049  30.650  29.491   6.502 -0.2041 -0.1605 -0.3068
 3090POPC   C1B75050  31.628  29.483   7.368  0.3332  0.0170 -0.3206
 3090POPC   C2B75051  31.872  29.319   7.015  0.1860  0.0959  0.0816
 3090POPC   C3B75052  31.828  29.145   6.610  0.0395 -0.0072  0.1814
 3090POPC   C4B75053  31.987  29.161   6.200 -0.0649  0.0803  0.0992
 3091POPC   NC375054  25.957  28.923   9.192 -0.1998 -0.0869 -0.1783
 3091POPC   PO475055  25.787  29.250   9.363 -0.2194  0.2235 -0.1001
 3091POPC   GL175056  25.773  29.363   8.961  0.3110 -0.3278 -0.1064
 3091POPC   GL275057  25.920  29.512   8.713  0.1861 -0.5310 -0.3282
 3091POPC   C1A75058  25.889  29.021   8.665  0.2550  0.0301  0.1189
 3091POPC   D2A75059  26.027  28.827   8.288 -0.1493 -0.0703  0.0344
 3091POPC   C3A75060  25.710  28.598   8.031 -0.0502 -0.0677 -0.1207
 3091POPC   C4A75061  25.403  28.292   7.973  0.0647 -0.2721 -0.0254
 3091POPC   C1B75062  25.693  29.464   8.330 -0.0649 -0.0475 -0.0563
 3091POPC   C2B75063  25.882  29.586   7.944 -0.0211 -0.0423 -0.1987
 3091POPC   C3B75064  25.626  29.753   7.532 -0.0023  0.0495  0.1615
 3091POPC   C4B75065  25.541  30.019   7.180 -0.4276  0.0620 -0.2293
 3092POPC   NC375066  21.836  20.413  11.699  0.0700 -0.1662  0.0812
 3092POPC   PO475067  21.951  20.755  11.894 -0.0083 -0.0675  0.0431
 3092POPC   GL175068  22.346  20.909  11.705  0.5267 -0.0020  0.0359
 3092POPC   GL275069  22.214  20.789  11.438  0.0263 -0.0766 -0.0588
 3092POPC   C1A75070  22.642  21.095  11.966 -0.2492  0.0175  0.1221
 3092POPC   D2A75071  22.899  21.448  11.981  0.4240  0.1474 -0.0501
 3092POPC   C3A75072  23.240  21.835  11.938  0.2260  0.2441  0.2616
 3092POPC   C4A75073  23.661  22.029  11.855  0.0991  0.0989 -0.0764
 3092POPC   C1B75074  22.503  20.961  11.188 -0.2281 -0.1152  0.2439
 3092POPC   C2B75075  22.938  20.956  11.199 -0.0836 -0.2293 -0.0769
 3092POPC   C3B75076  23.206  21.364  11.165 -0.0188  0.2277  0.3367
 3092POPC   C4B75077  23.304  21.797  11.053  0.2099 -0.3120 -0.0118
 3093POPC   NC375078  21.590  19.696  10.304 -0.0900  0.0527  0.0670
 3093POPC   PO475079  21.691  20.061  10.226  0.1893  0.0146  0.0572
 3093POPC   GL175080  21.846  20.344   9.904 -0.4752 -0.0567 -0.2041
 3093POPC   GL275081  21.894  20.605  10.124  0.0543  0.0448 -0.2866
 3093POPC   C1A75082  21.796  20.518   9.463  0.0768 -0.3015 -0.0007
 3093POPC   D2A75083  21.969  20.474   9.038  0.0817 -0.2057  0.0884
 3093POPC   C3A75084  22.443  20.261   9.005  0.4798  0.3311  0.2987
 3093POPC   C4A75085  22.857  20.178   8.868 -0.0168  0.0429 -0.1079
 3093POPC   C1B75086  22.066  20.786   9.765  0.2600 -0.0280 -0.1881
 3093POPC   C2B75087  22.066  20.876   9.302  0.1664  0.2347 -0.4611
 3093POPC   C3B75088  21.993  20.953   8.858  0.1485  0.3085  0.0739
 3093POPC   C4B75089  22.106  20.986   8.360  0.3423  0.3188  0.0179
 3094POPC   NC375090  27.865  18.140  12.525 -0.2008  0.3297  0.0859
 3094POPC   PO475091  28.209  18.274  12.548 -0.0069  0.1445 -0.0023
 3094POPC   GL175092  28.063  18.569  12.622 -0.1354 -0.0661 -0.6453
 3094POPC   GL275093  28.153  18.833  12.654  0.2257  0.0517  0.0201
 3094POPC   C1A75094  27.725  18.717  12.900  0.1295  0.1149 -0.0799
 3094POPC   D2A75095  27.550  19.154  12.747 -0.0720  0.2254  0.2283
 3094POPC   C3A75096  27.364  19.545  12.902 -0.2472 -0.0644  0.0098
 3094POPC   C4A75097  27.173  19.998  13.075  0.0644  0.0419 -0.0434
 3094POPC   C1B75098  28.053  19.300  12.559 -0.0018  0.0503  0.1784
 3094POPC   C2B75099  27.964  19.726  12.627  0.0477 -0.1014  0.2011
 3094POPC   C3B75100  27.817  20.174  12.641 -0.0893 -0.0584 -0.3565
 3094POPC   C4B75101  27.993  20.580  12.414  0.1175  0.4465 -0.1468
 3095POPC   NC375102  31.407  18.349   8.961 -0.2340  0.3719 -0.1768
 3095POPC   PO475103  31.125  18.570   9.156 -0.0771  0.2468 -0.2526
 3095POPC   GL175104  30.963  18.606   8.870 -0.0466 -0.3624 -0.0031
 3095POPC   GL275105  30.693  18.519   8.727 -0.1028 -0.1937  0.0308
 3095POPC   C1A75106  30.947  19.012   8.612  0.1048  0.1152 -0.0745
 3095POPC   D2A75107  30.981  19.371   8.291 -0.1057  0.1065 -0.1612
 3095POPC   C3A75108  31.021  19.391   7.853  0.1521 -0.3473 -0.1864
 3095POPC   C4A75109  30.766  19.158   7.571 -0.2190  0.1045  0.1502
 3095POPC   C1B75110  30.453  18.660   8.360  0.0235 -0.5009 -0.1049
 3095POPC   C2B75111  30.186  18.673   7.940 -0.1339 -0.2768  0.1988
 3095POPC   C3B75112  29.722  18.617   7.894 -0.1644 -0.3090  0.1985
 3095POPC   C4B75113  29.363  18.566   7.623 -0.2449 -0.0316 -0.2702
 3096POPC   NC375114  28.457  18.474  12.177  0.0576 -0.1821 -0.0481
 3096POPC   PO475115  28.334  18.293  11.844 -0.0423 -0.2848 -0.0862
 3096POPC   GL175116  28.111  18.615  11.800  0.1064  0.0973  0.1330
 3096POPC   GL275117  27.877  18.649  11.775 -0.0126 -0.0474 -0.1471
 3096POPC   C1A75118  28.060  18.911  11.401 -0.0864  0.0495 -0.0859
 3096POPC   D2A75119  28.043  19.095  10.984 -0.0987  0.0231  0.0492
 3096POPC   C3A75120  27.761  19.457  10.912  0.1016  0.1680 -0.0222
 3096POPC   C4A75121  27.327  19.643  10.873  0.1754  0.4904 -0.0897
 3096POPC   C1B75122  27.674  19.050  11.736  0.0990 -0.0503 -0.0659
 3096POPC   C2B75123  27.572  19.551  11.775 -0.0358  0.2360  0.1600
 3096POPC   C3B75124  27.208  19.891  11.723  0.1147 -0.5533  0.0461
 3096POPC   C4B75125  26.727  20.005  11.766  0.0186 -0.0061  0.0302
 3097POPC   NC375126  27.552  27.668  11.707  0.1274  0.0977  0.2719
 3097POPC   PO475127  27.442  27.380  11.428 -0.1618 -0.0307  0.0336
 3097POPC   GL175128  27.381  27.116  11.441  0.1605  0.2055  0.2968
 3097POPC   GL275129  27.294  26.972  11.214  0.4987  0.2313  0.1960
 3097POPC   C1A75130  27.432  26.731  11.696  0.2921  0.2092 -0.0169
 3097POPC   D2A75131  27.526  26.294  11.734 -0.1435  0.0372  0.1095
 3097POPC   C3A75132  27.566  25.840  11.719 -0.2758 -0.1107  0.0094
 3097POPC   C4A75133  27.939  25.594  11.845  0.4807  0.1335 -0.0057
 3097POPC   C1B75134  27.317  26.677  10.904  0.1344 -0.0116  0.0387
 3097POPC   C2B75135  27.382  26.232  10.878 -0.0285 -0.3285 -0.0695
 3097POPC   C3B75136  27.327  25.795  11.033  0.1811  0.0496 -0.0189
 3097POPC   C4B75137  27.130  25.467  10.803  0.0273 -0.2554 -0.1643
 3098POPC   NC375138  21.933  20.795  11.011  0.1807  0.1219  0.3077
 3098POPC   PO475139  21.522  20.920  10.974 -0.0372  0.0316 -0.1803
 3098POPC   GL175140  21.697  21.241  10.780 -0.2453  0.4193 -0.1245
 3098POPC   GL275141  21.806  21.356  11.038  0.1288  0.2098 -0.1057
 3098POPC   C1A75142  22.044  21.446  10.513  0.0148  0.0757 -0.0752
 3098POPC   D2A75143  22.470  21.594  10.474 -0.0735  0.1835  0.1035
 3098POPC   C3A75144  22.802  21.863  10.707 -0.1351 -0.0861  0.2092
 3098POPC   C4A75145  23.033  22.258  10.736  0.0996  0.0944  0.0472
 3098POPC   C1B75146  22.263  21.353  11.017  0.0862  0.0568  0.0774
 3098POPC   C2B75147  22.724  21.411  10.926  0.0424 -0.0845 -0.2381
 3098POPC   C3B75148  23.103  21.481  10.667 -0.0030 -0.0953  0.1880
 3098POPC   C4B75149  23.382  21.826  10.551  0.5298 -0.2560  0.3746
 3099POPC   NC375150  26.732  16.389  14.836 -0.1654 -0.0218  0.0447
 3099POPC   PO475151  27.008  16.642  14.657 -0.0370  0.0416  0.1221
 3099POPC   GL175152  26.797  16.866  14.876  0.1403  0.1311  0.1016
 3099POPC   GL275153  26.565  16.965  14.680 -0.3575 -0.2765  0.3361
 3099POPC   C1A75154  26.894  17.050  15.304 -0.0600  0.1225  0.0362
 3099POPC   D2A75155  26.882  17.513  15.517 -0.0465 -0.0661  0.1159
 3099POPC   C3A75156  26.529  17.714  15.788 -0.1539  0.0360  0.0044
 3099POPC   C4A75157  26.144  17.708  15.575  0.2323  0.0529  0.2554
 3099POPC   C1B75158  26.542  17.253  15.012  0.0991  0.3754 -0.0231
 3099POPC   C2B75159  26.514  17.629  15.241 -0.2152  0.0399 -0.3158
 3099POPC   C3B75160  26.802  17.990  15.347  0.1456  0.0361  0.0450
 3099POPC   C4B75161  26.882  18.381  15.526  0.0530  0.0676  0.0095
 3100POPC   NC375162  28.998  31.615   8.853  0.2793  0.0348  0.0660
 3100POPC   PO475163  29.183  31.896   8.692 -0.1169 -0.2984  0.1837
 3100POPC   GL175164  29.071  31.744   8.294  0.3449 -0.1177  0.0232
 3100POPC   GL275165  28.923  31.589   8.327  0.0661  0.2744 -0.1563
 3100POPC   C1A75166  28.845  31.888   7.955 -0.2332 -0.0962  0.0187
 3100POPC   D2A75167  28.574  32.062   7.622 -0.0172 -0.0783 -0.1205
 3100POPC   C3A75168  28.560  31.859   7.126 -0.2533  0.1720 -0.0883
 3100POPC   C4A75169  28.734  31.723   6.674 -0.1063 -0.2165  0.0471
 3100POPC   C1B75170  28.752  31.404   7.931 -0.1377  0.1597 -0.0082
 3100POPC   C2B75171  28.737  31.467   7.466  0.2564  0.1852 -0.1491
 3100POPC   C3B75172  28.451  31.390   7.111  0.5534  0.0929  0.3542
 3100POPC   C4B75173  28.156  31.052   6.995  0.0771 -0.2289 -0.0299
 3101POPC   NC375174  21.330  21.741  11.484 -0.1131  0.1334  0.0208
 3101POPC   PO475175  21.598  21.460  11.586 -0.0423  0.0162 -0.0090
 3101POPC   GL175176  22.026  21.491  11.423 -0.3361 -0.1567  0.2182
 3101POPC   GL275177  22.168  21.298  11.522 -0.0814 -0.0789 -0.1261
 3101POPC   C1A75178  22.435  21.727  11.277  0.0412 -0.1832  0.0681
 3101POPC   D2A75179  22.861  21.896  11.207  0.0525 -0.0259  0.0975
 3101POPC   C3A75180  23.192  22.109  11.456 -0.1943  0.0280  0.0799
 3101POPC   C4A75181  23.600  22.353  11.361  0.2043  0.0298 -0.2737
 3101POPC   C1B75182  22.637  21.328  11.522  0.0184  0.0371 -0.1674
 3101POPC   C2B75183  23.037  21.614  11.539 -0.2752  0.0530 -0.1035
 3101POPC   C3B75184  23.489  21.516  11.601 -0.1994 -0.1300 -0.1146
 3101POPC   C4B75185  23.959  21.435  11.600 -0.0317 -0.0167  0.0485
 3102POPC   NC375186  18.500  30.231   8.182  0.2117 -0.0107 -0.0334
 3102POPC   PO475187  18.834  30.077   8.079 -0.0440 -0.1024  0.0238
 3102POPC   GL175188  18.659  29.995   7.836 -0.1382  0.5187 -0.2637
 3102POPC   GL275189  18.423  29.960   7.676  0.1254 -0.0823  0.2421
 3102POPC   C1A75190  18.982  30.113   7.482 -0.2013 -0.1118 -0.0099
 3102POPC   D2A75191  19.363  30.176   7.287 -0.2066 -0.0132  0.0630
 3102POPC   C3A75192  19.366  30.149   6.808  0.0983  0.1768 -0.0379
 3102POPC   C4A75193  19.490  30.513   6.495 -0.2182 -0.0879  0.2048
 3102POPC   C1B75194  18.662  29.825   7.317  0.1282  0.0320  0.1494
 3102POPC   C2B75195  18.723  30.081   6.934  0.1589  0.2816 -0.1575
 3102POPC   C3B75196  18.928  30.143   6.597 -0.0877  0.4195  0.0700
 3102POPC   C4B75197  19.229  30.087   6.226 -0.0583  0.2323  0.1955
 3103POPC   NC375198  20.097  19.703   9.272  0.5297 -0.3838  0.2933
 3103POPC   PO475199  19.692  19.639   9.314 -0.1391 -0.1024 -0.2853
 3103POPC   GL175200  19.680  19.689   8.948 -0.1971 -0.2919 -0.0346
 3103POPC   GL275201  19.545  19.998   8.867  0.3718  0.2076  0.0557
 3103POPC   C1A75202  19.920  19.885   8.551  0.1731 -0.1514 -0.1412
 3103POPC   D2A75203  20.169  20.022   8.161  0.0258  0.0234  0.0564
 3103POPC   C3A75204  20.409  20.044   7.820 -0.0922 -0.1464  0.2975
 3103POPC   C4A75205  20.411  20.262   7.383 -0.0471 -0.0164 -0.0633
 3103POPC   C1B75206  19.420  19.907   8.411 -0.2919  0.2024 -0.0527
 3103POPC   C2B75207  19.603  19.826   8.031 -0.0988 -0.2286 -0.0708
 3103POPC   C3B75208  19.771  19.598   7.683 -0.2801 -0.1037 -0.0576
 3103POPC   C4B75209  20.131  19.798   7.452  0.1580  0.2471  0.2460
 3104POPC   NC375210  31.504  20.071  14.815 -0.3353  0.3241  0.2333
 3104POPC   PO475211  31.789  20.281  14.873 -0.0016  0.1201 -0.3854
 3104POPC   GL175212  31.563  20.345  15.191 -0.1551  0.0169  0.2625
 3104POPC   GL275213  31.556  20.170  15.463  0.1529 -0.1849 -0.1329
 3104POPC   C1A75214  31.096  20.285  15.192 -0.1753 -0.1108 -0.1685
 3104POPC   D2A75215  30.671  20.209  15.023  0.1064  0.1929  0.3356
 3104POPC   C3A75216  30.402  20.538  14.908 -0.1340 -0.1784  0.1971
 3104POPC   C4A75217  30.036  20.792  15.074  0.0911  0.2209  0.1150
 3104POPC   C1B75218  31.146  20.253  15.690  0.2128  0.0904  0.2062
 3104POPC   C2B75219  30.827  20.358  16.095 -0.0443 -0.0712 -0.0257
 3104POPC   C3B75220  30.636  20.576  16.426 -0.0886 -0.0226  0.2389
 3104POPC   C4B75221  30.260  20.575  16.676 -0.1066 -0.2611 -0.3402
 3105POPC   NC375222  26.174  31.468   9.582 -0.1502 -0.1863  0.0545
 3105POPC   PO475223  25.924  31.730   9.327 -0.0653  0.3128  0.0323
 3105POPC   GL175224  25.854  31.983   8.975  0.2419  0.0758 -0.1110
 3105POPC   GL275225  25.718  31.724   8.804 -0.3501  0.1153 -0.0416
 3105POPC   C1A75226  26.134  32.077   8.638 -0.2790  0.1587  0.1335
 3105POPC   D2A75227  26.332  32.154   8.224 -0.0599  0.0916 -0.2408
 3105POPC   C3A75228  26.281  32.049   7.779  0.0888  0.0442  0.2070
 3105POPC   C4A75229  26.262  32.376   7.442  0.0295  0.1133 -0.1335
 3105POPC   C1B75230  25.747  31.446   8.459 -0.4488 -0.0481  0.2998
 3105POPC   C2B75231  25.515  31.531   8.050  0.0335  0.0593 -0.1992
 3105POPC   C3B75232  25.498  31.761   7.674  0.3056 -0.0262 -0.1085
 3105POPC   C4B75233  25.513  32.040   7.248 -0.0544 -0.0491 -0.0210
 3106POPC   NC375234  28.843  30.820  15.798  0.2100  0.1876  0.2706
 3106POPC   PO475235  28.776  31.185  15.910 -0.1131  0.3666  0.3065
 3106POPC   GL175236  28.490  31.147  16.127 -0.2861 -0.2249  0.1543
 3106POPC   GL275237  28.560  31.444  16.361 -0.1124  0.1912 -0.0662
 3106POPC   C1A75238  28.384  30.954  16.559  0.2601  0.0122 -0.5367
 3106POPC   D2A75239  28.209  30.524  16.479 -0.0458 -0.0296 -0.1720
 3106POPC   C3A75240  28.241  30.343  16.897  0.2273  0.1038  0.0638
 3106POPC   C4A75241  28.178  30.441  17.337 -0.0984  0.2234 -0.0568
 3106POPC   C1B75242  28.663  31.352  16.803  0.0075 -0.0465 -0.0411
 3106POPC   C2B75243  28.492  31.474  17.240  0.0679 -0.5185 -0.2502
 3106POPC   C3B75244  28.279  31.838  17.470  0.0246  0.0978  0.1326
 3106POPC   C4B75245  27.943  32.135  17.637 -0.1299 -0.1238 -0.1038
 3107POPC   NC375246  30.503  26.388  10.688 -0.1945  0.2665 -0.0183
 3107POPC   PO475247  30.428  26.718  10.524 -0.2778 -0.2266 -0.0616
 3107POPC   GL175248  30.012  26.668  10.408  0.1353 -0.2684 -0.2440
 3107POPC   GL275249  30.018  26.341  10.498 -0.1751  0.1970 -0.2019
 3107POPC   C1A75250  29.679  26.570  10.765  0.1684 -0.2409 -0.1330
 3107POPC   D2A75251  29.204  26.480  10.604 -0.0953 -0.0607 -0.1322
 3107POPC   C3A75252  28.906  26.174  10.390  0.5558 -0.1770 -0.1123
 3107POPC   C4A75253  28.519  25.914  10.497  0.0196 -0.0595 -0.0833
 3107POPC   C1B75254  29.868  26.320  10.061 -0.0884 -0.0568 -0.0531
 3107POPC   C2B75255  29.466  26.181   9.804  0.2968  0.2051 -0.0386
 3107POPC   C3B75256  29.111  25.870   9.900  0.0512  0.1460 -0.0532
 3107POPC   C4B75257  28.981  25.661  10.333  0.3576  0.0872  0.2528
 3108POPC   NC375258  27.584  30.100   8.919 -0.4707  0.1770  0.0880
 3108POPC   PO475259  27.307  30.038   9.209  0.3559  0.1616 -0.0077
 3108POPC   GL175260  27.096  29.869   8.834 -0.2075  0.0950 -0.2532
 3108POPC   GL275261  27.057  29.543   8.873  0.1563 -0.2799 -0.0049
 3108POPC   C1A75262  26.783  29.942   8.473  0.2571 -0.1753 -0.1902
 3108POPC   D2A75263  26.550  30.212   8.137  0.3498 -0.3643 -0.1315
 3108POPC   C3A75264  26.553  30.245   7.678 -0.3594  0.3407 -0.1023
 3108POPC   C4A75265  26.570  30.107   7.247 -0.1202 -0.0157 -0.3738
 3108POPC   C1B75266  26.888  29.422   8.471 -0.0558  0.1596  0.1357
 3108POPC   C2B75267  26.774  29.307   8.047  0.0830 -0.2050 -0.0354
 3108POPC   C3B75268  26.840  29.271   7.607 -0.3121  0.1660  0.4516
 3108POPC   C4B75269  26.919  29.278   7.163  0.1839 -0.0896 -0.3095
 3109POPC   NC375270  21.057  20.096   9.454  0.0054  0.0581 -0.1116
 3109POPC   PO475271  21.178  19.739   9.446 -0.1694 -0.1561 -0.1029
 3109POPC   GL175272  21.319  19.794   9.126  0.2390 -0.2140 -0.1491
 3109POPC   GL275273  21.201  19.548   8.978  0.0093 -0.1154 -0.1534
 3109POPC   C1A75274  21.634  20.141   9.103 -0.0778  0.1038  0.0485
 3109POPC   D2A75275  21.654  20.320   8.675  0.2148  0.0451  0.0832
 3109POPC   C3A75276  21.634  19.967   8.368  0.3576  0.1982 -0.2682
 3109POPC   C4A75277  21.718  19.541   8.186 -0.0278 -0.0417 -0.3547
 3109POPC   C1B75278  21.621  19.558   8.692  0.0713  0.1868  0.1150
 3109POPC   C2B75279  22.025  19.541   8.593  0.3119 -0.0243  0.0449
 3109POPC   C3B75280  22.249  19.484   8.194 -0.0332 -0.5001  0.3963
 3109POPC   C4B75281  22.702  19.621   8.159 -0.0222  0.1318 -0.0862
 3110POPC   NC375282  22.210  30.844   8.095 -0.0712 -0.1934 -0.0356
 3110POPC   PO475283  21.863  30.982   8.281 -0.2200  0.1568  0.1402
 3110POPC   GL175284  21.803  31.190   8.041 -0.2621 -0.1587 -0.3326
 3110POPC   GL275285  21.848  31.080   7.774  0.1010  0.1074 -0.1711
 3110POPC   C1A75286  21.914  31.642   7.923 -0.2020  0.2048  0.2016
 3110POPC   D2A75287  22.187  31.916   7.717  0.0022  0.0088  0.3966
 3110POPC   C3A75288  22.285  31.856   7.276  0.1012 -0.1853 -0.3206
 3110POPC   C4A75289  22.268  32.092   6.866  0.1918 -0.1039 -0.0771
 3110POPC   C1B75290  21.931  31.351   7.421  0.1616  0.2360 -0.0262
 3110POPC   C2B75291  21.751  31.450   7.011  0.0228  0.1468  0.5732
 3110POPC   C3B75292  21.399  31.523   6.729  0.0357  0.0009 -0.2255
 3110POPC   C4B75293  21.383  31.790   6.372 -0.0240  0.4199  0.2229
 3111POPC   NC375294  32.047  20.272   9.683  0.0596  0.0691 -0.0618
 3111POPC   PO475295  31.712  20.340   9.513  0.0509 -0.0089  0.2376
 3111POPC   GL175296  31.468  20.227   9.156  0.3684 -0.2930 -0.0550
 3111POPC   GL275297  31.245  20.183   9.253  0.1056 -0.0548  0.0691
 3111POPC   C1A75298  31.594  20.375   8.739  0.3728  0.1051 -0.2169
 3111POPC   D2A75299  31.643  20.248   8.327  0.0249  0.3143 -0.1172
 3111POPC   C3A75300  31.512  20.503   7.948 -0.0841 -0.4341  0.1259
 3111POPC   C4A75301  31.357  20.434   7.548  0.2613  0.0228 -0.3897
 3111POPC   C1B75302  31.176  20.044   8.800 -0.0754 -0.0801 -0.0403
 3111POPC   C2B75303  31.265  19.859   8.354 -0.0763  0.0761 -0.0687
 3111POPC   C3B75304  31.426  19.524   8.149 -0.2667 -0.1558 -0.1210
 3111POPC   C4B75305  31.623  19.164   8.327  0.1395  0.0437  0.1413
 3112POPC   NC375306  23.249  17.986   9.890  0.0156 -0.0441 -0.0128
 3112POPC   PO475307  23.572  17.758   9.757  0.0491  0.0818 -0.0856
 3112POPC   GL175308  23.667  17.839   9.422  0.1027  0.3984  0.1787
 3112POPC   GL275309  23.641  18.113   9.429 -0.0258  0.1668 -0.1103
 3112POPC   C1A75310  23.456  17.982   8.997 -0.2487 -0.0634  0.2302
 3112POPC   D2A75311  23.251  18.333   8.703  0.0135  0.1472 -0.1724
 3112POPC   C3A75312  23.333  18.714   8.562 -0.0835  0.4545 -0.2183
 3112POPC   C4A75313  23.380  19.120   8.803 -0.2393 -0.0305 -0.0241
 3112POPC   C1B75314  23.672  18.463   9.130 -0.0489  0.1924  0.0135
 3112POPC   C2B75315  23.737  18.792   8.837 -0.2637  0.1308 -0.4422
 3112POPC   C3B75316  23.904  18.732   8.419 -0.0425 -0.3774  0.3180
 3112POPC   C4B75317  24.204  18.914   8.131  0.2409 -0.2160  0.0595
 3113POPC   NC375318  17.777  27.634   8.498 -0.0324 -0.2129  0.0939
 3113POPC   PO475319  18.117  27.605   8.342 -0.0309  0.0083 -0.2329
 3113POPC   GL175320  18.129  27.476   8.009  0.1932  0.0372 -0.2007
 3113POPC   GL275321  17.890  27.396   7.925 -0.1682 -0.0261 -0.0709
 3113POPC   C1A75322  18.340  27.377   7.612  0.2884  0.3677 -0.0274
 3113POPC   D2A75323  18.263  27.595   7.178 -0.2133  0.0338  0.0645
 3113POPC   C3A75324  18.251  28.019   7.337 -0.0961 -0.0546  0.4543
 3113POPC   C4A75325  18.247  28.472   7.246  0.0953 -0.2719  0.0590
 3113POPC   C1B75326  17.902  27.160   7.539  0.0529  0.0981 -0.0370
 3113POPC   C2B75327  17.978  27.045   7.092  0.2332  0.1251  0.2624
 3113POPC   C3B75328  18.130  27.094   6.608 -0.3236  0.1387  0.1646
 3113POPC   C4B75329  18.133  27.223   6.161 -0.1063  0.0972 -0.1077
 3114POPC   NC375330  22.159  20.001  11.482 -0.1378  0.1259  0.3143
 3114POPC   PO475331  22.255  20.094  11.857 -0.2217 -0.3409 -0.3355
 3114POPC   GL175332  22.537  20.262  11.655 -0.1624 -0.0660  0.0491
 3114POPC   GL275333  22.556  20.308  11.400 -0.0401 -0.0035 -0.1375
 3114POPC   C1A75334  22.679  20.721  11.662 -0.1036 -0.0012  0.2500
 3114POPC   D2A75335  23.020  21.052  11.692 -0.1075 -0.0667 -0.3836
 3114POPC   C3A75336  23.357  21.224  11.928  0.0403 -0.0305  0.3318
 3114POPC   C4A75337  23.705  21.527  12.034 -0.0305 -0.1485 -0.0077
 3114POPC   C1B75338  22.810  20.507  11.067  0.0850 -0.1356 -0.0226
 3114POPC   C2B75339  23.222  20.476  10.932  0.1307 -0.0897 -0.0217
 3114POPC   C3B75340  23.565  20.243  10.691 -0.1458  0.0058 -0.2970
 3114POPC   C4B75341  23.444  19.801  10.768  0.0228 -0.2676 -0.0242
 3115POPC   NC375342  31.006  20.238  13.706 -0.2544  0.1421 -0.2103
 3115POPC   PO475343  30.867  19.845  13.686  0.0246 -0.1500  0.3236
 3115POPC   GL175344  30.445  19.949  13.651  0.0942  0.2634 -0.1390
 3115POPC   GL275345  30.381  19.859  13.889  0.1003  0.1131 -0.2247
 3115POPC   C1A75346  30.048  20.192  13.660  0.0779  0.2062 -0.0005
 3115POPC   D2A75347  29.659  20.383  13.461 -0.1057 -0.0015 -0.0049
 3115POPC   C3A75348  29.621  20.718  13.162 -0.1708 -0.3674  0.1621
 3115POPC   C4A75349  29.368  21.080  13.087 -0.0368 -0.1093 -0.1500
 3115POPC   C1B75350  30.160  20.209  14.120  0.0948 -0.2130  0.0565
 3115POPC   C2B75351  29.772  20.401  14.252  0.0154 -0.1033 -0.2055
 3115POPC   C3B75352  29.377  20.525  14.493 -0.0450  0.1739  0.1707
 3115POPC   C4B75353  28.910  20.510  14.592 -0.1207  0.0086 -0.2672
 3116POPC   NC375354  25.231  17.849  11.503 -0.0967  0.0040  0.3003
 3116POPC   PO475355  25.231  17.839  11.871  0.0764 -0.0774 -0.5202
 3116POPC   GL175356  25.302  18.216  11.907 -0.0257 -0.5212  0.0041
 3116POPC   GL275357  25.122  18.269  12.159 -0.4909 -0.0144 -0.1555
 3116POPC   C1A75358  25.481  18.642  11.961  0.4821  0.3191  0.0447
 3116POPC   D2A75359  25.799  18.827  12.228  0.3275 -0.2435 -0.3234
 3116POPC   C3A75360  26.088  19.220  12.197 -0.0099 -0.2304 -0.1060
 3116POPC   C4A75361  26.152  19.643  12.279 -0.3446  0.0172 -0.0540
 3116POPC   C1B75362  24.975  18.718  12.219  0.2148  0.1014  0.0537
 3116POPC   C2B75363  25.012  19.175  12.326  0.0270 -0.2839  0.0631
 3116POPC   C3B75364  25.249  19.564  12.384  0.0701 -0.0386  0.0527
 3116POPC   C4B75365  25.404  19.931  12.476  0.1103 -0.1841  0.2616
 3117POPC   NC375366  17.018  25.242   9.001 -0.1193 -0.0080 -0.2467
 3117POPC   PO475367  17.250  25.034   9.208  0.2750  0.0346 -0.0513
 3117POPC   GL175368  17.394  24.852   8.911 -0.0851  0.0594 -0.0930
 3117POPC   GL275369  17.159  24.710   8.786 -0.3180 -0.3388  0.1488
 3117POPC   C1A75370  17.459  24.817   8.457  0.0692 -0.1154  0.2421
 3117POPC   D2A75371  17.603  24.751   7.992 -0.4204 -0.1031 -0.2030
 3117POPC   C3A75372  17.395  24.608   7.589  0.0666 -0.1542  0.1085
 3117POPC   C4A75373  17.403  24.581   7.130  0.0773 -0.0756  0.2010
 3117POPC   C1B75374  16.851  24.864   8.484 -0.0912  0.2080  0.0538
 3117POPC   C2B75375  16.617  24.885   8.101  0.3549  0.0534 -0.0778
 3117POPC   C3B75376  16.206  24.778   7.900 -0.0629  0.0589 -0.0451
 3117POPC   C4B75377  15.804  24.992   7.791 -0.0063  0.3561  0.4559
 3118POPC   NC375378  16.497  18.111   8.408  0.0184 -0.1195 -0.4368
 3118POPC   PO475379  16.790  17.852   8.363 -0.0866  0.0218  0.0052
 3118POPC   GL175380  16.706  17.766   8.008  0.2768 -0.2154 -0.0221
 3118POPC   GL275381  16.531  18.016   7.908 -0.3745 -0.1850 -0.2905
 3118POPC   C1A75382  16.862  17.827   7.582  0.0352 -0.0001  0.3231
 3118POPC   D2A75383  16.955  17.871   7.120 -0.0618  0.0176 -0.0400
 3118POPC   C3A75384  17.069  18.118   6.725 -0.0171  0.4836  0.0933
 3118POPC   C4A75385  16.994  18.210   6.219 -0.0910  0.1424  0.0955
 3118POPC   C1B75386  16.613  18.227   7.490  0.0582 -0.2246 -0.2230
 3118POPC   C2B75387  16.361  18.403   7.156 -0.4618  0.0483  0.0742
 3118POPC   C3B75388  16.405  18.624   6.753 -0.2997  0.4175 -0.3138
 3118POPC   C4B75389  16.623  19.033   6.768  0.0233  0.6459  0.3867
 3119POPC   NC375390  18.870  18.259   9.072 -0.0709 -0.2964  0.1978
 3119POPC   PO475391  18.757  18.403   8.720  0.0598  0.6067 -0.1109
 3119POPC   GL175392  18.772  18.313   8.300 -0.2483  0.2140  0.3269
 3119POPC   GL275393  18.474  18.385   8.292  0.0793 -0.3285  0.1915
 3119POPC   C1A75394  19.152  18.297   7.943  0.2968 -0.0185  0.0988
 3119POPC   D2A75395  19.308  18.580   7.567 -0.1046  0.1529  0.0537
 3119POPC   C3A75396  19.582  18.980   7.504  0.0013  0.0090  0.0458
 3119POPC   C4A75397  19.606  19.358   7.268 -0.0481 -0.0203  0.1575
 3119POPC   C1B75398  18.597  18.149   7.929  0.1843  0.0803  0.0182
 3119POPC   C2B75399  18.798  18.235   7.532  0.4440  0.1490 -0.0166
 3119POPC   C3B75400  19.054  18.402   7.178 -0.0540  0.1723  0.0156
 3119POPC   C4B75401  19.371  18.702   7.080  0.1044 -0.0907  0.0248
 3120POPC   NC375402  23.688  32.485   9.094 -0.0832  0.1284  0.0392
 3120POPC   PO475403  23.833  32.661   9.409 -0.3619 -0.0326 -0.1946
 3120POPC   GL175404  24.146  32.609   9.172 -0.0031  0.0100 -0.0361
 3120POPC   GL275405  24.119  32.886   9.056  0.0016  0.3589  0.0773
 3120POPC   C1A75406  24.570  32.529   8.945  0.0709 -0.3690 -0.0862
 3120POPC   D2A75407  24.854  32.544   8.603 -0.0858 -0.2057  0.0906
 3120POPC   C3A75408  24.966  32.127   8.360 -0.3355 -0.0696  0.1856
 3120POPC   C4A75409  25.174  31.756   8.355 -0.0112 -0.3165 -0.1386
 3120POPC   C1B75410  24.278  33.062   8.648 -0.1291 -0.2939  0.2842
 3120POPC   C2B75411  24.489  33.186   8.201 -0.1703 -0.0684 -0.1284
 3120POPC   C3B75412  24.764  33.409   7.917 -0.1103  0.1149  0.0108
 3120POPC   C4B75413  25.159  33.468   7.706  0.2029 -0.2534 -0.2441
 3121POPC   NC375414  21.758  31.034   8.770 -0.1412  0.1008  0.0538
 3121POPC   PO475415  22.126  31.104   8.736  0.1726 -0.0392  0.1935
 3121POPC   GL175416  22.303  31.291   8.359 -0.1633  0.2670 -0.0630
 3121POPC   GL275417  22.121  31.500   8.406 -0.1420 -0.1486  0.0757
 3121POPC   C1A75418  22.333  31.286   7.910  0.2508  0.0636 -0.0594
 3121POPC   D2A75419  22.290  31.032   7.533 -0.0581  0.3336 -0.0239
 3121POPC   C3A75420  22.335  31.244   7.119 -0.0675 -0.0583 -0.0278
 3121POPC   C4A75421  22.431  31.556   6.785  0.1349  0.1268 -0.0693
 3121POPC   C1B75422  22.391  31.719   8.132  0.1225  0.0695  0.0831
 3121POPC   C2B75423  22.665  31.967   7.855 -0.1837 -0.0832  0.0832
 3121POPC   C3B75424  22.725  32.006   7.398  0.1949 -0.1575 -0.0919
 3121POPC   C4B75425  22.834  32.159   6.958 -0.0226  0.0418 -0.0678
 3122POPC   NC375426  27.567  17.319  10.045  0.1854 -0.0820 -0.1397
 3122POPC   PO475427  27.183  17.354  10.050  0.0488  0.3029  0.1446
 3122POPC   GL175428  27.119  17.620   9.767  0.0962  0.2156  0.0646
 3122POPC   GL275429  27.089  17.532   9.519  0.1343  0.0116 -0.0360
 3122POPC   C1A75430  26.821  17.916   9.659 -0.1923  0.3611 -0.1641
 3122POPC   D2A75431  26.753  18.297   9.800  0.0985 -0.1471 -0.3886
 3122POPC   C3A75432  26.574  18.714   9.733  0.0453 -0.1460  0.0749
 3122POPC   C4A75433  26.373  19.160   9.667 -0.1593  0.2432 -0.2748
 3122POPC   C1B75434  27.203  17.927   9.359  0.3248 -0.0402  0.0356
 3122POPC   C2B75435  27.104  18.257   9.004 -0.1791  0.1203 -0.2514
 3122POPC   C3B75436  27.198  18.672   8.917  0.1483  0.0090 -0.2778
 3122POPC   C4B75437  27.302  19.019   8.690 -0.0210  0.0757  0.0728
 3123POPC   NC375438  30.814  17.770   8.708 -0.2663 -0.1894 -0.0403
 3123POPC   PO475439  31.160  17.959   8.819 -0.2057  0.0080  0.0141
 3123POPC   GL175440  31.119  18.021   8.402  0.1951  0.1240  0.1133
 3123POPC   GL275441  31.245  17.750   8.384  0.1410 -0.0341  0.1495
 3123POPC   C1A75442  30.936  18.460   8.296  0.1429  0.3295  0.0552
 3123POPC   D2A75443  30.926  18.913   8.106 -0.0881 -0.3719 -0.1963
 3123POPC   C3A75444  30.559  19.197   7.985  0.0292  0.2891 -0.1067
 3123POPC   C4A75445  30.492  19.529   7.666 -0.1387 -0.2785 -0.1471
 3123POPC   C1B75446  31.021  18.026   7.967 -0.3131  0.1256 -0.0277
 3123POPC   C2B75447  31.104  18.464   7.824 -0.0348  0.0922  0.0772
 3123POPC   C3B75448  31.330  18.581   7.445 -0.0126 -0.0453  0.1970
 3123POPC   C4B75449  31.445  18.643   6.979  0.2881  0.0428  0.0193
 3124POPC   NC375450  27.530  17.637  13.982 -0.1475  0.0720  0.0331
 3124POPC   PO475451  27.565  17.285  14.144 -0.1141  0.0578 -0.0526
 3124POPC   GL175452  27.324  17.589  14.417 -0.3351 -0.1766  0.3331
 3124POPC   GL275453  27.438  17.421  14.687 -0.1143  0.1230  0.1503
 3124POPC   C1A75454  27.162  18.040  14.422 -0.0245  0.0127 -0.1423
 3124POPC   D2A75455  27.028  18.470  14.459 -0.0898  0.0323 -0.1642
 3124POPC   C3A75456  26.605  18.684  14.565 -0.0700  0.1937  0.0387
 3124POPC   C4A75457  26.236  18.982  14.535 -0.0875  0.2577  0.1619
 3124POPC   C1B75458  27.184  17.437  15.085 -0.0612 -0.0970  0.0735
 3124POPC   C2B75459  27.308  17.802  15.338  0.3482  0.3952 -0.1466
 3124POPC   C3B75460  27.371  18.074  15.677  0.1098  0.2475  0.1278
 3124POPC   C4B75461  27.483  18.162  16.122 -0.0580 -0.1516  0.0010
 3125POPC   NC375462  17.663  16.526   8.014  0.0939  0.0030  0.0844
 3125POPC   PO475463  17.980  16.527   8.207  0.0737 -0.0004 -0.0484
 3125POPC   GL175464  18.253  16.350   8.034  0.0169  0.0656 -0.1265
 3125POPC   GL275465  18.527  16.553   7.999  0.2130 -0.2483 -0.0486
 3125POPC   C1A75466  18.304  16.192   7.637  0.1004  0.2079  0.4117
 3125POPC   D2A75467  18.634  16.151   7.326 -0.0789 -0.0774  0.2319
 3125POPC   C3A75468  18.566  16.125   6.899 -0.2484  0.0563 -0.1570
 3125POPC   C4A75469  18.432  16.307   6.454  0.1108 -0.1358 -0.0461
 3125POPC   C1B75470  18.679  16.630   7.529  0.2172  0.1452 -0.0801
 3125POPC   C2B75471  18.638  16.767   7.076  0.2597  0.2864 -0.0915
 3125POPC   C3B75472  18.588  16.980   6.666  0.1182  0.1556 -0.0511
 3125POPC   C4B75473  18.750  17.283   6.385 -0.1091  0.0166  0.0629
 3126POPC   NC375474  25.162  31.626   8.836 -0.0541 -0.5317  0.3799
 3126POPC   PO475475  24.895  31.427   8.980  0.1386 -0.2708  0.0711
 3126POPC   GL175476  24.926  31.351   8.524  0.0358 -0.1026  0.2581
 3126POPC   GL275477  24.729  31.510   8.541 -0.2324 -0.0258 -0.0657
 3126POPC   C1A75478  25.028  31.356   8.039 -0.2690 -0.0546  0.3848
 3126POPC   D2A75479  25.046  31.300   7.571 -0.0532 -0.0590 -0.1825
 3126POPC   C3A75480  24.860  31.082   7.272  0.2614  0.2245  0.0844
 3126POPC   C4A75481  24.507  30.887   6.963  0.0130  0.1937 -0.1617
 3126POPC   C1B75482  24.685  31.729   8.167 -0.0590  0.4356 -0.2887
 3126POPC   C2B75483  25.063  31.824   7.896 -0.0629 -0.4176  0.0033
 3126POPC   C3B75484  25.061  31.823   7.446  0.2424  0.0759  0.3197
 3126POPC   C4B75485  24.949  32.093   7.081  0.3498 -0.0235  0.0688
 3127POPC   NC375486   0.378  18.977   9.125 -0.2071 -0.1874 -0.0495
 3127POPC   PO475487   0.003  18.913   9.133  0.0024  0.1025  0.1465
 3127POPC   GL175488   0.098  18.991   8.760  0.2085 -0.0521 -0.0389
 3127POPC   GL275489   0.418  19.062   8.621  0.1984  0.2516 -0.2071
 3127POPC   C1A75490  -0.062  19.299   8.526 -0.0650 -0.0633 -0.2274
 3127POPC   D2A75491  -0.218  19.607   8.218  0.1228  0.0043 -0.1221
 3127POPC   C3A75492  -0.368  19.378   7.800  0.0668  0.1951 -0.0725
 3127POPC   C4A75493  -0.097  19.399   7.440 -0.1027 -0.1085  0.5981
 3127POPC   C1B75494   0.678  19.061   8.216 -0.2166  0.1425  0.1581
 3127POPC   C2B75495   0.612  18.841   7.793  0.2282 -0.0955  0.2505
 3127POPC   C3B75496   0.540  18.680   7.375  0.0313 -0.3111  0.1994
 3127POPC   C4B75497   0.419  18.788   6.934 -0.0493 -0.1369 -0.2154
 3128POPC   NC375498  25.395  30.720   9.233  0.2938  0.2353 -0.2159
 3128POPC   PO475499  25.698  30.887   9.047  0.1953 -0.0338  0.5780
 3128POPC   GL175500  25.768  30.944   8.639 -0.1857 -0.3566 -0.3963
 3128POPC   GL275501  26.088  30.882   8.656 -0.3324  0.0903  0.2209
 3128POPC   C1A75502  25.468  31.058   8.271 -0.0041 -0.1618  0.0191
 3128POPC   D2A75503  25.472  31.090   7.797  0.2399 -0.0257  0.3415
 3128POPC   C3A75504  25.627  31.092   7.360 -0.3201 -0.0601 -0.3212
 3128POPC   C4A75505  25.771  31.364   7.062 -0.2868  0.1444 -0.1416
 3128POPC   C1B75506  25.981  31.048   8.193 -0.0687 -0.0636 -0.2488
 3128POPC   C2B75507  26.008  31.374   7.901  0.0651  0.1414 -0.0763
 3128POPC   C3B75508  25.968  31.660   7.484  0.2938  0.2841 -0.3657
 3128POPC   C4B75509  26.111  31.903   7.174 -0.0962 -0.1495  0.4784
 3129POPC   NC375510  18.535  28.983   8.500  0.1506  0.3366  0.2452
 3129POPC   PO475511  18.525  28.601   8.561  0.0014  0.1226 -0.0361
 3129POPC   GL175512  18.488  28.567   8.176  0.1276  0.0084  0.2240
 3129POPC   GL275513  18.513  28.776   7.932 -0.2538  0.1566 -0.0960
 3129POPC   C1A75514  18.430  28.365   7.745 -0.0295 -0.0497  0.2099
 3129POPC   D2A75515  18.257  27.943   7.804 -0.0379 -0.0874 -0.2669
 3129POPC   C3A75516  17.953  27.698   7.577 -0.0627  0.0636  0.0536
 3129POPC   C4A75517  17.736  27.474   7.177  0.1321 -0.1089 -0.0487
 3129POPC   C1B75518  18.337  28.847   7.581 -0.0569 -0.0209 -0.3337
 3129POPC   C2B75519  18.159  29.082   7.227 -0.2743  0.2635 -0.1256
 3129POPC   C3B75520  18.055  29.285   6.835  0.0094  0.0333  0.1795
 3129POPC   C4B75521  18.105  29.639   6.587  0.0385 -0.1128  0.0431
 3130POPC   NC375522  30.213   0.582   7.998 -0.0258  0.3182  0.2883
 3130POPC   PO475523  30.249   0.256   8.149  0.2191 -0.1437 -0.1406
 3130POPC   GL175524  30.251   0.006   7.792 -0.0614 -0.0853 -0.1419
 3130POPC   GL275525  30.012   0.141   7.743  0.0398 -0.2891  0.3253
 3130POPC   C1A75526  30.229   0.052   7.315 -0.2041  0.2320  0.1920
 3130POPC   D2A75527  30.196   0.181   6.864  0.0199  0.2003  0.1135
 3130POPC   C3A75528  30.594   0.300   6.663  0.1861 -0.0957 -0.3157
 3130POPC   C4A75529  30.864   0.211   6.290  0.1230 -0.1315 -0.0675
 3130POPC   C1B75530  30.057   0.515   7.402  0.1381 -0.2702 -0.0317
 3130POPC   C2B75531  30.042   0.725   6.998 -0.0279 -0.0403 -0.0122
 3130POPC   C3B75532  29.948   0.934   6.574  0.6512 -0.1579 -0.0529
 3130POPC   C4B75533  30.067   1.305   6.321  0.3523 -0.0352  0.0904
 3131POPC   NC375534  26.467  31.085   9.015  0.2223  0.0845  0.1261
 3131POPC   PO475535  26.489  31.417   9.107  0.1104 -0.2835 -0.1255
 3131POPC   GL175536  26.215  31.476   8.761  0.0296  0.0439  0.0030
 3131POPC   GL275537  26.466  31.324   8.565  0.1065 -0.0992 -0.1838
 3131POPC   C1A75538  26.154  31.627   8.335 -0.2292 -0.1894  0.1722
 3131POPC   D2A75539  25.903  31.857   8.006 -0.0493 -0.0719  0.0369
 3131POPC   C3A75540  25.830  32.189   7.676 -0.3686  0.0918  0.0687
 3131POPC   C4A75541  25.706  32.513   7.377 -0.0984  0.0212 -0.1096
 3131POPC   C1B75542  26.424  31.192   8.156 -0.1591  0.0887 -0.4093
 3131POPC   C2B75543  26.503  30.998   7.739  0.0367  0.0946  0.1405
 3131POPC   C3B75544  26.649  31.018   7.302  0.0419 -0.1794  0.2445
 3131POPC   C4B75545  26.728  30.665   7.012 -0.0564 -0.0686 -0.2066
 3132POPC   NC375546  22.619  19.538  10.421 -0.2084 -0.0905  0.0005
 3132POPC   PO475547  22.470  19.574  10.788  0.0089  0.0828 -0.0710
 3132POPC   GL175548  22.648  19.905  10.664 -0.0246  0.2882  0.0609
 3132POPC   GL275549  22.501  20.156  10.607  0.0622 -0.0380 -0.0713
 3132POPC   C1A75550  23.062  20.065  10.639  0.1206 -0.0856  0.0249
 3132POPC   D2A75551  23.173  20.401  10.373 -0.0044 -0.2428  0.2380
 3132POPC   C3A75552  23.629  20.574  10.350  0.1356 -0.2748  0.1779
 3132POPC   C4A75553  23.957  20.741  10.095 -0.1238 -0.2484  0.0616
 3132POPC   C1B75554  22.778  19.978  10.256  0.2399 -0.3360 -0.0232
 3132POPC   C2B75555  23.012  19.854   9.904  0.1183  0.0887  0.0734
 3132POPC   C3B75556  23.197  19.849   9.507 -0.1097 -0.0172  0.0343
 3132POPC   C4B75557  23.581  19.799   9.316  0.0944  0.1443  0.1673
 3133POPC   NC375558  19.451  22.553   9.380 -0.0442  0.1885  0.1265
 3133POPC   PO475559  19.506  22.926   9.571 -0.2103 -0.2585  0.1747
 3133POPC   GL175560  19.669  22.930   9.152  0.1245 -0.2025  0.4552
 3133POPC   GL275561  19.942  23.063   9.243  0.0817 -0.1226 -0.1690
 3133POPC   C1A75562  19.528  23.079   8.776 -0.0477 -0.0501 -0.2159
 3133POPC   D2A75563  19.518  23.200   8.315 -0.0813 -0.0678 -0.2466
 3133POPC   C3A75564  19.337  23.147   7.879  0.0888  0.0760 -0.0403
 3133POPC   C4A75565  19.173  22.816   7.614 -0.0782  0.1705  0.0144
 3133POPC   C1B75566  20.051  22.849   8.903  0.0939  0.0251  0.0602
 3133POPC   C2B75567  19.930  22.780   8.474 -0.0041 -0.2585  0.1015
 3133POPC   C3B75568  20.023  22.453   8.224  0.1277  0.2322  0.1423
 3133POPC   C4B75569  19.971  21.963   8.112  0.3465 -0.5855 -0.0108
 3134POPC   NC375570  19.402  31.311   7.880 -0.0008 -0.1376 -0.1285
 3134POPC   PO475571  19.629  31.354   8.189 -0.1577  0.0918  0.1228
 3134POPC   GL175572  19.799  31.558   7.871  0.1380  0.1115  0.3232
 3134POPC   GL275573  20.094  31.529   7.893 -0.1295 -0.1861  0.1845
 3134POPC   C1A75574  19.572  31.784   7.513 -0.0335 -0.0706  0.0350
 3134POPC   D2A75575  19.747  31.871   7.074 -0.1205 -0.1112 -0.0015
 3134POPC   C3A75576  20.103  32.110   6.887 -0.1627 -0.2028  0.0536
 3134POPC   C4A75577  20.342  32.462   6.654 -0.0762  0.0742 -0.2691
 3134POPC   C1B75578  20.173  31.857   7.586 -0.0161  0.1731  0.0404
 3134POPC   C2B75579  20.483  31.987   7.221 -0.3867 -0.1468 -0.0584
 3134POPC   C3B75580  20.639  32.062   6.791  0.2483  0.1607 -0.2383
 3134POPC   C4B75581  21.065  32.087   6.573 -0.2289 -0.1638  0.0312
 3135POPC   NC375582  17.298  27.578   9.021 -0.0045  0.1461 -0.0373
 3135POPC   PO475583  17.513  27.355   8.838 -0.2411  0.2139  0.0965
 3135POPC   GL175584  17.404  27.025   8.636  0.0471 -0.6934  0.3889
 3135POPC   GL275585  17.617  27.039   8.506 -0.0897 -0.1525  0.1620
 3135POPC   C1A75586  17.011  27.011   8.354  0.0856  0.0911 -0.2400
 3135POPC   D2A75587  16.761  26.844   7.969  0.0478 -0.0103 -0.1800
 3135POPC   C3A75588  16.484  27.182   7.842 -0.1050 -0.1308 -0.2469
 3135POPC   C4A75589  16.255  27.654   7.693 -0.1040 -0.0939  0.1396
 3135POPC   C1B75590  17.364  27.386   8.269  0.1242  0.0676  0.0636
 3135POPC   C2B75591  16.992  27.376   7.982 -0.0247  0.2467  0.0321
 3135POPC   C3B75592  16.777  27.504   7.605 -0.2705  0.2296 -0.0127
 3135POPC   C4B75593  16.569  27.507   7.169  0.0426 -0.1524 -0.1762
 3136POPC   NC375594  19.602  16.566   8.892 -0.2916 -0.0700  0.2947
 3136POPC   PO475595  19.997  16.693   8.956  0.3463  0.1243  0.0342
 3136POPC   GL175596  19.841  16.892   8.645 -0.3234  0.0539 -0.0063
 3136POPC   GL275597  19.669  17.084   8.732  0.3868  0.0036  0.0640
 3136POPC   C1A75598  19.711  16.855   8.188  0.0637  0.2034 -0.3278
 3136POPC   D2A75599  19.543  16.886   7.740  0.1766 -0.0422 -0.4412
 3136POPC   C3A75600  19.888  16.916   7.471 -0.1626  0.4142  0.1884
 3136POPC   C4A75601  20.229  17.085   7.136  0.0039 -0.2197  0.2101
 3136POPC   C1B75602  19.565  17.283   8.379  0.0564 -0.1549 -0.1085
 3136POPC   C2B75603  19.551  17.374   7.935 -0.2135  0.3935 -0.3720
 3136POPC   C3B75604  19.577  17.300   7.443 -0.1767 -0.0248 -0.2147
 3136POPC   C4B75605  19.694  17.261   7.027 -0.0139  0.0716  0.3417
 3137POPC   NC375606  21.922  19.577  10.860 -0.3131  0.1225  0.0799
 3137POPC   PO475607  22.051  19.598  11.224 -0.1189 -0.1245 -0.1533
 3137POPC   GL175608  22.434  19.690  11.288  0.0887 -0.0669 -0.1513
 3137POPC   GL275609  22.495  19.925  11.116 -0.2223 -0.0555  0.0317
 3137POPC   C1A75610  22.741  19.836  11.631 -0.0857  0.1763  0.0551
 3137POPC   D2A75611  22.970  20.249  11.741  0.0938  0.1881  0.0298
 3137POPC   C3A75612  23.198  20.630  11.535  0.0198 -0.3392 -0.1596
 3137POPC   C4A75613  23.464  20.989  11.485  0.1556  0.1166 -0.0669
 3137POPC   C1B75614  22.992  20.027  11.218  0.1101 -0.0514 -0.1070
 3137POPC   C2B75615  23.387  20.208  11.361  0.0859  0.1928 -0.0441
 3137POPC   C3B75616  23.697  20.568  11.395  0.0490  0.3964 -0.2062
 3137POPC   C4B75617  23.666  20.758  11.004 -0.1999 -0.1309  0.0310
 3138POPC   NC375618   1.068  27.036   8.383 -0.1506  0.1151  0.2319
 3138POPC   PO475619   0.716  27.205   8.439 -0.3214  0.1931 -0.0095
 3138POPC   GL175620   0.649  27.078   8.063  0.2175  0.1586 -0.3857
 3138POPC   GL275621   0.324  27.060   8.081 -0.2341  0.0205  0.2498
 3138POPC   C1A75622   0.999  26.778   7.996 -0.0325 -0.1126 -0.1065
 3138POPC   D2A75623   1.203  26.496   7.694 -0.1179  0.0422 -0.1472
 3138POPC   C3A75624   1.123  26.284   7.295 -0.0016 -0.0443  0.0641
 3138POPC   C4A75625   1.158  25.943   7.055 -0.1498  0.2555  0.2111
 3138POPC   C1B75626   0.412  27.144   7.662 -0.1303 -0.3235  0.0121
 3138POPC   C2B75627   0.159  27.121   7.284 -0.2103 -0.1995  0.5634
 3138POPC   C3B75628  -0.115  26.781   7.020 -0.1444 -0.1349  0.0585
 3138POPC   C4B75629  -0.050  26.550   6.654 -0.4183  0.5181  0.0286
 3139POPC   NC375630  24.197  27.977  10.058  0.0910  0.1545 -0.2336
 3139POPC   PO475631  24.535  27.963   9.928 -0.1399  0.0178  0.0995
 3139POPC   GL175632  24.446  27.670   9.658  0.0438 -0.3278  0.2393
 3139POPC   GL275633  24.187  27.543   9.650  0.0567  0.0696 -0.0609
 3139POPC   C1A75634  24.732  27.276   9.762  0.1054  0.2714 -0.0387
 3139POPC   D2A75635  24.961  27.024   9.485 -0.7756 -0.1779  0.0201
 3139POPC   C3A75636  25.099  27.089   9.042 -0.1020 -0.0445  0.2995
 3139POPC   C4A75637  25.015  26.965   8.649  0.1172 -0.1584 -0.2342
 3139POPC   C1B75638  24.484  27.252   9.366 -0.0565 -0.0884  0.2258
 3139POPC   C2B75639  24.596  26.951   9.094  0.1204  0.1426 -0.0117
 3139POPC   C3B75640  24.481  26.663   8.735  0.0786  0.0445  0.0267
 3139POPC   C4B75641  24.657  26.297   8.501  0.2501  0.4218  0.1822
 3140POPC   NC375642  31.648  24.723   9.815 -0.0119  0.2565 -0.1176
 3140POPC   PO475643  31.513  24.906   9.490  0.0298 -0.2899 -0.1088
 3140POPC   GL175644  31.225  24.856   9.292  0.1699  0.1394 -0.0179
 3140POPC   GL275645  31.327  24.682   9.084  0.3848  0.0985  0.0641
 3140POPC   C1A75646  30.916  25.010   8.936  0.1869  0.0452  0.1463
 3140POPC   D2A75647  30.563  25.194   8.823  0.4359 -0.2733  0.0495
 3140POPC   C3A75648  30.400  25.104   8.406 -0.0840 -0.1980 -0.0131
 3140POPC   C4A75649  30.508  24.883   8.038  0.1373  0.2866  0.1813
 3140POPC   C1B75650  31.394  24.971   8.632 -0.1762 -0.0164 -0.0923
 3140POPC   C2B75651  31.246  25.201   8.279 -0.0546 -0.1917 -0.2434
 3140POPC   C3B75652  30.819  25.320   8.090 -0.1572  0.3392 -0.2117
 3140POPC   C4B75653  30.496  25.628   8.041  0.0151 -0.1020 -0.1588
 3141POPC   NC375654  29.851  19.017  12.120  0.3959  0.0215  0.1742
 3141POPC   PO475655  29.622  18.721  12.286 -0.2098 -0.0610 -0.0547
 3141POPC   GL175656  29.528  18.993  12.428  0.1191 -0.2580 -0.0182
 3141POPC   GL275657  29.603  19.257  12.535 -0.1914  0.3701 -0.3086
 3141POPC   C1A75658  29.108  19.223  12.292 -0.2497 -0.2383 -0.2607
 3141POPC   D2A75659  28.932  19.683  12.211  0.0457 -0.1107 -0.0603
 3141POPC   C3A75660  28.760  20.024  11.874  0.0475  0.1179  0.2421
 3141POPC   C4A75661  28.514  20.446  11.691 -0.0989 -0.0369  0.0766
 3141POPC   C1B75662  29.435  19.683  12.480 -0.1378 -0.0077  0.3112
 3141POPC   C2B75663  29.212  20.099  12.439  0.0510  0.2681  0.1756
 3141POPC   C3B75664  28.763  20.212  12.359  0.1152 -0.0966 -0.0115
 3141POPC   C4B75665  28.292  20.135  12.297  0.1228 -0.0417  0.2726
 3142POPC   NC375666  16.430  20.119   9.789  0.1305  0.0261  0.1684
 3142POPC   PO475667  16.510  20.185   9.403 -0.0922  0.0957 -0.3274
 3142POPC   GL175668  16.412  20.437   9.092  0.1299 -0.3105 -0.0948
 3142POPC   GL275669  16.160  20.619   9.075 -0.1128  0.1501  0.2836
 3142POPC   C1A75670  16.309  20.390   8.634  0.3233 -0.1141 -0.2024
 3142POPC   D2A75671  16.329  20.153   8.298  0.2107 -0.1412 -0.2483
 3142POPC   C3A75672  16.275  20.248   7.849 -0.3687 -0.0896  0.0914
 3142POPC   C4A75673  16.336  19.954   7.503 -0.0139  0.3127  0.1773
 3142POPC   C1B75674  16.005  20.814   8.651 -0.0229  0.0976  0.0747
 3142POPC   C2B75675  16.135  20.662   8.238 -0.0660 -0.3003  0.0644
 3142POPC   C3B75676  16.055  20.703   7.720 -0.1911  0.1330  0.0471
 3142POPC   C4B75677  15.655  20.656   7.508 -0.2317 -0.1370  0.2024
 3143POPC   NC375678  22.363  29.878   8.305  0.3486  0.0515  0.2797
 3143POPC   PO475679  22.069  29.605   8.331 -0.1079 -0.1723 -0.3152
 3143POPC   GL175680  21.895  29.423   7.997  0.0693 -0.0095  0.0385
 3143POPC   GL275681  21.747  29.674   7.938 -0.0412  0.0118 -0.2893
 3143POPC   C1A75682  21.982  29.388   7.573  0.0319 -0.1335 -0.1382
 3143POPC   D2A75683  21.939  29.405   7.130  0.0948  0.2466  0.1027
 3143POPC   C3A75684  22.329  29.396   6.887  0.0656 -0.0784 -0.0841
 3143POPC   C4A75685  22.706  29.269   6.598 -0.1224  0.2793  0.3040
 3143POPC   C1B75686  21.636  29.727   7.480 -0.1749 -0.0022  0.0425
 3143POPC   C2B75687  21.396  29.681   7.081  0.0829  0.1068  0.0116
 3143POPC   C3B75688  21.266  29.652   6.642 -0.2067 -0.0325 -0.0374
 3143POPC   C4B75689  21.125  29.595   6.197 -0.0416  0.2624 -0.1566
 3144POPC   NC375690  17.202  28.783   8.397 -0.2919  0.1841  0.1675
 3144POPC   PO475691  17.269  28.381   8.465  0.1554  0.0465 -0.0787
 3144POPC   GL175692  17.535  28.455   8.149  0.3021 -0.1428 -0.1174
 3144POPC   GL275693  17.659  28.656   8.270  0.0139  0.3260 -0.0395
 3144POPC   C1A75694  17.443  28.197   7.789  0.1663  0.2215  0.0341
 3144POPC   D2A75695  17.344  27.910   7.367  0.0456  0.2299 -0.2834
 3144POPC   C3A75696  17.421  27.720   6.921 -0.0046 -0.0237  0.2270
 3144POPC   C4A75697  17.521  27.442   6.568  0.1783 -0.1272 -0.1738
 3144POPC   C1B75698  17.446  28.750   7.875 -0.2336 -0.2641  0.0692
 3144POPC   C2B75699  17.350  29.012   7.571 -0.0312  0.2419  0.2236
 3144POPC   C3B75700  17.229  28.848   7.137  0.0712  0.0058 -0.0312
 3144POPC   C4B75701  16.974  28.674   6.839 -0.0664 -0.2311  0.0833
 3145POPC   NC375702  30.890  28.832   8.837  0.2164 -0.0580  0.0880
 3145POPC   PO475703  31.064  28.509   8.723  0.1960 -0.1072  0.2081
 3145POPC   GL175704  31.020  28.264   8.452  0.2694  0.0022  0.0760
 3145POPC   GL275705  31.257  28.378   8.283  0.1940  0.2133 -0.0671
 3145POPC   C1A75706  30.822  28.344   8.005 -0.2214  0.0569  0.0165
 3145POPC   D2A75707  30.941  28.388   7.579 -0.0540 -0.1632  0.1659
 3145POPC   C3A75708  30.673  28.482   7.209  0.2113  0.1211  0.1089
 3145POPC   C4A75709  30.330  28.498   6.881 -0.0566  0.3189 -0.2097
 3145POPC   C1B75710  31.359  28.269   7.880  0.1089  0.0153 -0.2814
 3145POPC   C2B75711  31.377  28.170   7.475 -0.2412  0.2298 -0.0889
 3145POPC   C3B75712  31.043  28.092   7.116 -0.1379 -0.5088  0.2558
 3145POPC   C4B75713  30.855  28.238   6.786 -0.1579  0.0809  0.2054
 3146POPC   NC375714  31.070  26.084  11.956 -0.0812  0.3097 -0.2400
 3146POPC   PO475715  30.681  26.035  11.929 -0.2357  0.1697 -0.3067
 3146POPC   GL175716  30.436  25.713  11.896 -0.2628  0.0682 -0.5509
 3146POPC   GL275717  30.161  25.732  11.811 -0.0726 -0.1147  0.2044
 3146POPC   C1A75718  30.583  25.309  11.840  0.2854  0.2706  0.0334
 3146POPC   D2A75719  30.500  24.874  11.670 -0.2893 -0.1250 -0.0120
 3146POPC   C3A75720  30.184  24.791  11.403  0.4376  0.2848  0.1246
 3146POPC   C4A75721  29.897  24.826  11.046 -0.2812 -0.1073  0.2798
 3146POPC   C1B75722  29.761  25.494  11.782  0.0912  0.2215 -0.0931
 3146POPC   C2B75723  29.506  25.126  11.633 -0.1414 -0.0725  0.2568
 3146POPC   C3B75724  29.220  24.883  11.379  0.0124  0.1317  0.3722
 3146POPC   C4B75725  28.954  24.602  11.127  0.0663 -0.0227 -0.0187
 3147POPC   NC375726  17.419  22.878   8.912  0.2948 -0.2066 -0.1470
 3147POPC   PO475727  17.098  22.799   9.129  0.0492  0.0696 -0.0137
 3147POPC   GL175728  17.019  22.528   8.973  0.3092 -0.2980 -0.1264
 3147POPC   GL275729  17.258  22.395   8.875  0.0209  0.0320 -0.0199
 3147POPC   C1A75730  16.756  22.284   8.661 -0.0439  0.0511 -0.2627
 3147POPC   D2A75731  16.463  22.167   8.298 -0.3803  0.0826 -0.0300
 3147POPC   C3A75732  16.149  22.410   8.172  0.4057  0.0249  0.0505
 3147POPC   C4A75733  16.041  22.451   7.706 -0.3551 -0.0965 -0.3111
 3147POPC   C1B75734  17.153  22.606   8.468  0.1613  0.2079  0.1696
 3147POPC   C2B75735  16.959  22.532   8.078  0.1988 -0.3977  0.0562
 3147POPC   C3B75736  16.932  22.468   7.615  0.3184  0.3391 -0.0703
 3147POPC   C4B75737  16.756  22.258   7.218  0.0294 -0.1588  0.2549
 3148POPC   NC375738  22.352  18.944  13.430  0.1276 -0.0028  0.2924
 3148POPC   PO475739  22.497  19.203  13.690  0.0716  0.0788 -0.0283
 3148POPC   GL175740  22.819  19.248  13.906  0.2354 -0.3999 -0.0100
 3148POPC   GL275741  22.918  19.551  13.881 -0.1110 -0.1928  0.2271
 3148POPC   C1A75742  23.175  19.169  14.220  0.2006 -0.0536  0.0140
 3148POPC   D2A75743  23.516  18.968  14.392 -0.2416 -0.1051 -0.0767
 3148POPC   C3A75744  23.878  19.192  14.548  0.1133  0.0974  0.1279
 3148POPC   C4A75745  24.184  19.113  14.799  0.0385  0.1608 -0.0255
 3148POPC   C1B75746  23.081  19.651  14.279  0.1413 -0.1625 -0.1298
 3148POPC   C2B75747  23.137  19.855  14.718 -0.2577  0.3494 -0.0554
 3148POPC   C3B75748  23.083  20.123  15.121 -0.1082 -0.2374 -0.0381
 3148POPC   C4B75749  22.880  20.378  15.430  0.2805  0.1137 -0.3721
 3149POPC   NC375750  16.064  24.049   8.948 -0.2867  0.0799  0.0524
 3149POPC   PO475751  16.324  23.780   9.067  0.0024  0.1331  0.2239
 3149POPC   GL175752  16.369  23.707   8.608 -0.5976  0.0867  0.0710
 3149POPC   GL275753  16.197  23.849   8.525 -0.3290 -0.2214  0.0247
 3149POPC   C1A75754  16.696  23.966   8.355  0.0264  0.2790  0.1957
 3149POPC   D2A75755  17.136  23.921   8.153  0.3638  0.0144 -0.0918
 3149POPC   C3A75756  17.440  24.200   7.908 -0.0952  0.1097  0.1528
 3149POPC   C4A75757  17.741  24.216   7.567 -0.4051 -0.1833 -0.0221
 3149POPC   C1B75758  16.226  23.927   8.112 -0.0077 -0.0529 -0.4566
 3149POPC   C2B75759  16.044  24.028   7.678  0.0934  0.1865  0.1114
 3149POPC   C3B75760  16.096  23.854   7.248  0.2910  0.0527  0.2349
 3149POPC   C4B75761  16.175  23.980   6.849 -0.3000 -0.1420  0.1011
 3150POPC   NC375762  19.986  31.269   8.608 -0.2690 -0.4780 -0.1711
 3150POPC   PO475763  20.104  31.188   8.268 -0.3768  0.2105  0.1187
 3150POPC   GL175764  19.896  31.066   7.899  0.1986  0.2641  0.1690
 3150POPC   GL275765  20.085  31.069   7.671  0.0456 -0.2743 -0.0735
 3150POPC   C1A75766  19.613  31.087   7.477  0.0904 -0.0888  0.3920
 3150POPC   D2A75767  19.455  31.416   7.117 -0.1516 -0.1095  0.1335
 3150POPC   C3A75768  19.584  31.516   6.680  0.3200 -0.3015 -0.0840
 3150POPC   C4A75769  19.619  31.879   6.344 -0.0300 -0.1607 -0.0572
 3150POPC   C1B75770  19.998  31.435   7.355  0.0446 -0.1697  0.0423
 3150POPC   C2B75771  20.196  31.641   6.967  0.3628 -0.0347  0.1037
 3150POPC   C3B75772  20.192  31.755   6.514  0.1173 -0.0681  0.2140
 3150POPC   C4B75773  20.250  31.421   6.172  0.2060 -0.0976  0.1975
 3151POPC   NC375774  31.180  26.270  10.817 -0.3002  0.0060 -0.3087
 3151POPC   PO475775  31.228  25.897  10.665 -0.3707 -0.2755  0.0583
 3151POPC   GL175776  30.982  25.689  10.807 -0.0346  0.1016 -0.3083
 3151POPC   GL275777  30.795  25.655  10.592 -0.1255 -0.2006 -0.1213
 3151POPC   C1A75778  30.668  25.371  10.933 -0.0093 -0.0166 -0.1579
 3151POPC   D2A75779  30.178  25.282  10.948 -0.2110  0.2476 -0.1414
 3151POPC   C3A75780  29.979  25.264  10.488 -0.1246 -0.0118 -0.2682
 3151POPC   C4A75781  29.694  25.188  10.155  0.0539 -0.0951 -0.2165
 3151POPC   C1B75782  30.493  25.580  10.171  0.0030  0.2232  0.1686
 3151POPC   C2B75783  30.143  25.415  10.005 -0.0864  0.0255  0.2408
 3151POPC   C3B75784  29.938  25.364   9.610 -0.2793 -0.0128 -0.1379
 3151POPC   C4B75785  29.514  25.258   9.573 -0.0055 -0.0345  0.0485
 3152POPC   NC375786  20.407  28.104   7.923 -0.0363  0.0178 -0.0628
 3152POPC   PO475787  20.058  27.946   7.819 -0.0380  0.0847 -0.2365
 3152POPC   GL175788  19.950  27.842   7.469 -0.2001 -0.0402 -0.1771
 3152POPC   GL275789  19.668  27.916   7.477 -0.0690 -0.1479 -0.1315
 3152POPC   C1A75790  19.850  27.707   7.049 -0.2307  0.0819 -0.2042
 3152POPC   D2A75791  19.735  27.465   6.652 -0.0121  0.3370 -0.0277
 3152POPC   C3A75792  19.364  27.477   6.376 -0.2522 -0.1707 -0.1804
 3152POPC   C4A75793  19.016  27.681   6.261  0.3519 -0.0882  0.3174
 3152POPC   C1B75794  19.562  27.480   7.338 -0.1424  0.2245 -0.4556
 3152POPC   C2B75795  19.634  27.171   7.067  0.2075  0.0497  0.0234
 3152POPC   C3B75796  19.831  26.972   6.711  0.0642  0.0032 -0.0004
 3152POPC   C4B75797  19.882  26.622   6.427  0.1917  0.0790 -0.2657
 3153POPC   NC375798  32.552  30.083   8.040 -0.0738  0.3036 -0.0843
 3153POPC   PO475799  32.402  30.392   8.184 -0.0102 -0.5346  0.0396
 3153POPC   GL175800  32.460  30.538   7.799 -0.0452  0.1686  0.1418
 3153POPC   GL275801  32.372  30.279   7.603 -0.5233 -0.3227 -0.2437
 3153POPC   C1A75802  32.192  30.728   7.417 -0.1118  0.0850 -0.2267
 3153POPC   D2A75803  32.074  30.773   7.004  0.2244  0.1167 -0.3370
 3153POPC   C3A75804  32.225  30.654   6.620 -0.0063  0.1353  0.2545
 3153POPC   C4A75805  32.229  30.671   6.117 -0.2020  0.0436 -0.3452
 3153POPC   C1B75806  32.069  30.231   7.238  0.0521  0.3818  0.0626
 3153POPC   C2B75807  32.063  30.226   6.755  0.1844 -0.1674  0.2120
 3153POPC   C3B75808  31.858  30.360   6.405  0.1221  0.0934  0.3008
 3153POPC   C4B75809  31.774  30.266   5.947 -0.0045 -0.0217  0.1975
 3154POPC   NC375810   0.466  24.067   9.600 -0.1884 -0.1479 -0.2315
 3154POPC   PO475811   0.281  24.192   9.263  0.1215 -0.0939  0.1347
 3154POPC   GL175812   0.149  23.991   9.010  0.0762 -0.0944 -0.0801
 3154POPC   GL275813  -0.143  23.803   9.090  0.1014 -0.0555  0.2209
 3154POPC   C1A75814  -0.008  24.074   8.564 -0.0544  0.1287 -0.0631
 3154POPC   D2A75815   0.093  24.335   8.156 -0.2231  0.0608 -0.3551
 3154POPC   C3A75816  -0.038  24.312   7.711  0.0377 -0.1743  0.0187
 3154POPC   C4A75817   0.224  24.459   7.369 -0.3532  0.1289 -0.0582
 3154POPC   C1B75818  -0.135  23.573   8.683 -0.2377 -0.0147  0.1408
 3154POPC   C2B75819  -0.292  23.679   8.277 -0.1210 -0.2211  0.1537
 3154POPC   C3B75820  -0.667  23.562   7.992  0.2156  0.3061 -0.0487
 3154POPC   C4B75821  -0.974  23.540   7.682  0.0206  0.0216 -0.1766
 3155POPC   NC375822  31.206  20.536  11.731 -0.1125  0.0661 -0.0117
 3155POPC   PO475823  31.100  20.473  11.385  0.2977 -0.3148  0.1016
 3155POPC   GL175824  30.853  20.687  11.332  0.0402  0.0998  0.0862
 3155POPC   GL275825  30.628  20.455  11.495 -0.1744 -0.1040  0.0141
 3155POPC   C1A75826  30.860  21.129  11.231 -0.0047  0.0492 -0.1326
 3155POPC   D2A75827  30.795  21.507  10.905 -0.0246 -0.1435 -0.2410
 3155POPC   C3A75828  30.313  21.528  10.906  0.0336 -0.1434 -0.1529
 3155POPC   C4A75829  29.883  21.643  10.774 -0.3050  0.1066  0.0618
 3155POPC   C1B75830  30.251  20.728  11.521  0.0243 -0.1450 -0.2192
 3155POPC   C2B75831  29.839  20.762  11.279  0.2072 -0.0226  0.0876
 3155POPC   C3B75832  29.493  20.686  11.000  0.1911 -0.2497  0.0201
 3155POPC   C4B75833  29.142  20.578  10.660 -0.0871 -0.2099  0.4499
 3156POPC   NC375834  30.419  17.200  14.994 -0.1872 -0.1865 -0.1264
 3156POPC   PO475835  30.761  17.370  15.023  0.3194 -0.3975 -0.0749
 3156POPC   GL175836  30.515  17.480  15.397 -0.2880 -0.2683  0.2484
 3156POPC   GL275837  30.373  17.321  15.559  0.1989  0.2069  0.0967
 3156POPC   C1A75838  30.616  17.698  15.773  0.1644  0.0647 -0.2365
 3156POPC   D2A75839  30.932  17.942  15.914  0.0500 -0.2249 -0.0597
 3156POPC   C3A75840  30.785  18.288  16.148  0.1785  0.1753  0.0153
 3156POPC   C4A75841  30.509  18.649  16.292 -0.1314  0.1680 -0.0469
 3156POPC   C1B75842  30.092  17.540  15.857  0.0173  0.4562 -0.4129
 3156POPC   C2B75843  29.856  17.872  16.121  0.0545  0.2104 -0.1963
 3156POPC   C3B75844  29.668  18.174  16.432 -0.0983  0.1204  0.3550
 3156POPC   C4B75845  29.480  18.245  16.862 -0.1436  0.3635 -0.4475
 3157POPC   NC375846  21.470  27.744   8.712  0.1487  0.1025  0.3563
 3157POPC   PO475847  21.181  28.009   8.633 -0.0473 -0.0235  0.0526
 3157POPC   GL175848  21.149  27.716   8.313 -0.2166  0.0059  0.2248
 3157POPC   GL275849  20.911  27.559   8.364 -0.1267 -0.0982 -0.2167
 3157POPC   C1A75850  21.498  27.463   8.105 -0.0091  0.1125 -0.0123
 3157POPC   D2A75851  21.880  27.163   8.077  0.2146  0.0216 -0.1847
 3157POPC   C3A75852  22.093  27.018   7.674  0.1977  0.0935 -0.0725
 3157POPC   C4A75853  22.380  26.730   7.562  0.1098 -0.1740  0.1296
 3157POPC   C1B75854  21.050  27.149   8.168 -0.1358 -0.0408 -0.0285
 3157POPC   C2B75855  21.215  26.867   7.883 -0.1729  0.1690  0.1573
 3157POPC   C3B75856  21.359  26.423   7.708 -0.1867 -0.2310  0.1651
 3157POPC   C4B75857  21.475  25.992   7.722 -0.0183  0.1187  0.0091
 3158POPC   NC375858   0.365  27.526   8.283 -0.5266 -0.2042  0.1624
 3158POPC   PO475859   0.025  27.545   8.499 -0.0885 -0.2079 -0.1328
 3158POPC   GL175860  -0.102  27.394   8.169 -0.2764  0.2854  0.2572
 3158POPC   GL275861  -0.323  27.298   8.146 -0.0825 -0.1813 -0.0329
 3158POPC   C1A75862  -0.060  27.419   7.676 -0.1245  0.0234 -0.0872
 3158POPC   D2A75863  -0.181  27.658   7.297 -0.2167 -0.0547 -0.1394
 3158POPC   C3A75864  -0.061  27.429   6.951  0.3485  0.2667 -0.1700
 3158POPC   C4A75865  -0.057  27.504   6.454  0.0665  0.2347 -0.1220
 3158POPC   C1B75866  -0.520  27.324   7.741  0.2001  0.0538  0.0096
 3158POPC   C2B75867  -0.665  27.400   7.301 -0.0222  0.0893  0.1004
 3158POPC   C3B75868  -0.795  27.593   6.931 -0.3050 -0.1034  0.1285
 3158POPC   C4B75869  -0.975  27.762   6.544  0.1170 -0.0640  0.1387
 3159POPC   NC375870  31.836  26.535   9.359  0.0499  0.1564  0.0973
 3159POPC   PO475871  31.583  26.280   9.173  0.2099 -0.1396  0.3117
 3159POPC   GL175872  31.367  26.121   8.758 -0.2793  0.0793 -0.0292
 3159POPC   GL275873  31.132  26.309   8.743 -0.0973 -0.0071 -0.2899
 3159POPC   C1A75874  31.565  26.191   8.301 -0.1968 -0.3810  0.1109
 3159POPC   D2A75875  31.595  26.066   7.864  0.2369  0.0733 -0.1414
 3159POPC   C3A75876  31.754  25.653   7.770  0.0429 -0.0792 -0.0858
 3159POPC   C4A75877  31.563  25.225   7.833 -0.2387 -0.0070 -0.1761
 3159POPC   C1B75878  31.020  25.998   8.417 -0.1891  0.1393  0.1591
 3159POPC   C2B75879  30.914  25.903   7.978 -0.1131 -0.2350 -0.2431
 3159POPC   C3B75880  30.659  25.893   7.613  0.1724  0.2520  0.0748
 3159POPC   C4B75881  30.549  25.917   7.132 -0.0741  0.1107 -0.1077
 3160POPC   NC375882  28.176  17.940  13.284 -0.2069  0.0065 -0.1273
 3160POPC   PO475883  28.257  17.640  13.499 -0.3006 -0.2643  0.0975
 3160POPC   GL175884  28.329  18.079  13.720  0.1742 -0.2238 -0.2440
 3160POPC   GL275885  28.114  17.987  13.838 -0.1237 -0.0119  0.1730
 3160POPC   C1A75886  28.035  18.435  13.615 -0.0212 -0.0860  0.0564
 3160POPC   D2A75887  27.719  18.763  13.526 -0.2202  0.2053 -0.3538
 3160POPC   C3A75888  27.459  19.004  13.826 -0.0853  0.0390  0.0832
 3160POPC   C4A75889  27.478  19.348  14.078  0.3793  0.0323 -0.3567
 3160POPC   C1B75890  27.778  18.041  14.166  0.1432 -0.0199  0.0495
 3160POPC   C2B75891  27.595  18.238  14.465 -0.2553  0.0735  0.0921
 3160POPC   C3B75892  27.431  18.590  14.711  0.3441  0.2685  0.0134
 3160POPC   C4B75893  27.391  18.938  14.479 -0.0411  0.1329  0.3386
 3161POPC   NC375894  28.724   0.443   9.143  0.3926  0.1008  0.1184
 3161POPC   PO475895  28.581   0.252   8.800  0.5816  0.1253 -0.0618
 3161POPC   GL175896  28.343   0.269   8.437  0.2223 -0.1121  0.2771
 3161POPC   GL275897  28.441   0.503   8.334 -0.0368 -0.1262 -0.0827
 3161POPC   C1A75898  28.431   0.097   8.019 -0.1099 -0.0708 -0.0997
 3161POPC   D2A75899  28.653   0.218   7.606  0.1123  0.4389 -0.0203
 3161POPC   C3A75900  28.553   0.583   7.371 -0.0419  0.1513 -0.3628
 3161POPC   C4A75901  28.683   0.794   7.044  0.1984  0.3894  0.1073
 3161POPC   C1B75902  28.315   0.893   8.079  0.0800 -0.1221 -0.0284
 3161POPC   C2B75903  28.304   1.303   7.903 -0.0651  0.2973  0.1903
 3161POPC   C3B75904  28.096   1.548   7.585  0.0373  0.1926 -0.0705
 3161POPC   C4B75905  27.651   1.734   7.647  0.0830  0.0061 -0.0397
 3162POPC   NC375906  17.707  24.753   9.318 -0.0195  0.0747  0.0861
 3162POPC   PO475907  17.888  25.018   9.107  0.1452 -0.0907  0.1462
 3162POPC   GL175908  17.886  25.090   8.676 -0.1327  0.1574  0.2564
 3162POPC   GL275909  18.205  25.027   8.599 -0.1465  0.0225 -0.0553
 3162POPC   C1A75910  17.781  25.306   8.272  0.3696 -0.1573  0.1334
 3162POPC   D2A75911  17.830  25.165   7.829 -0.1530 -0.0272  0.0391
 3162POPC   C3A75912  18.068  25.088   7.447 -0.1709 -0.0139 -0.1117
 3162POPC   C4A75913  18.048  25.207   7.047 -0.2126 -0.0446  0.2480
 3162POPC   C1B75914  18.105  24.932   8.185 -0.0871  0.1080  0.1963
 3162POPC   C2B75915  18.034  24.632   7.833  0.0875  0.0858 -0.1682
 3162POPC   C3B75916  18.267  24.342   7.603  0.0660 -0.1869  0.1842
 3162POPC   C4B75917  18.632  24.200   7.867 -0.0285  0.2662 -0.0981
 3163POPC   NC375918  30.024  19.004  10.143 -0.0855  0.0149 -0.0966
 3163POPC   PO475919  29.661  19.188  10.103 -0.2406  0.2066  0.0629
 3163POPC   GL175920  29.402  19.524  10.174 -0.1642  0.2820  0.2433
 3163POPC   GL275921  29.081  19.553  10.023 -0.3803 -0.0709 -0.1334
 3163POPC   C1A75922  29.433  19.885   9.919  0.0277 -0.1250 -0.1309
 3163POPC   D2A75923  29.363  20.299   9.722  0.0058  0.3025 -0.0827
 3163POPC   C3A75924  29.113  20.426   9.326  0.1354 -0.1536 -0.3928
 3163POPC   C4A75925  29.223  20.275   8.928  0.0676 -0.3291 -0.1489
 3163POPC   C1B75926  28.896  19.927   9.820  0.1088 -0.1542  0.2746
 3163POPC   C2B75927  28.753  20.055   9.429  0.0472 -0.4176  0.3009
 3163POPC   C3B75928  28.351  20.271   9.267 -0.0624  0.0647  0.1337
 3163POPC   C4B75929  28.103  20.604   9.171 -0.0011 -0.0359  0.4152
 3164POPC   NC375930  18.084  23.500   8.907  0.1107 -0.0461 -0.0796
 3164POPC   PO475931  17.832  23.822   8.904  0.0605  0.0840  0.0980
 3164POPC   GL175932  17.845  23.721   8.529  0.3639 -0.2166  0.1126
 3164POPC   GL275933  17.957  23.536   8.439  0.1853  0.3966  0.0298
 3164POPC   C1A75934  17.655  23.744   8.125  0.1467  0.0470 -0.1930
 3164POPC   D2A75935  17.737  23.783   7.692 -0.1454  0.2008  0.0269
 3164POPC   C3A75936  17.463  23.406   7.580  0.1251  0.2407  0.0117
 3164POPC   C4A75937  17.508  23.006   7.270 -0.0458 -0.1525 -0.1395
 3164POPC   C1B75938  18.079  23.533   7.959 -0.1101  0.1538  0.0152
 3164POPC   C2B75939  18.230  23.844   7.628  0.1293  0.1644 -0.3792
 3164POPC   C3B75940  18.104  24.018   7.244 -0.2785 -0.1103  0.1726
 3164POPC   C4B75941  17.751  24.197   6.961  0.2768  0.0446  0.2506
 3165POPC   NC375942  30.203  27.105  10.276  0.0360 -0.2003  0.0405
 3165POPC   PO475943  30.252  27.189   9.909 -0.1427 -0.3056 -0.0915
 3165POPC   GL175944  30.078  26.865   9.650 -0.3932 -0.4130  0.0604
 3165POPC   GL275945  30.331  26.854   9.504 -0.1834 -0.0572 -0.2715
 3165POPC   C1A75946  29.922  26.444   9.470 -0.1879  0.0265  0.0960
 3165POPC   D2A75947  30.137  26.266   9.107  0.2358 -0.0615 -0.0344
 3165POPC   C3A75948  30.010  26.088   8.706  0.0979  0.2399  0.1236
 3165POPC   C4A75949  29.887  26.008   8.289 -0.0562  0.2063  0.3511
 3165POPC   C1B75950  30.115  26.779   9.142 -0.1240  0.1733 -0.1990
 3165POPC   C2B75951  30.097  26.603   8.722 -0.0843 -0.0280  0.3818
 3165POPC   C3B75952  30.049  26.590   8.222  0.0285  0.0191 -0.1936
 3165POPC   C4B75953  29.831  26.317   7.900 -0.0771 -0.0321 -0.2684
 3166POPC   NC375954  25.402  16.958  14.209  0.2664  0.2269 -0.3909
 3166POPC   PO475955  25.122  17.111  13.996  0.4956 -0.3443  0.1690
 3166POPC   GL175956  24.935  17.438  14.116 -0.0406 -0.0254 -0.0701
 3166POPC   GL275957  25.152  17.614  14.179 -0.2334 -0.1131  0.3063
 3166POPC   C1A75958  24.530  17.516  14.413  0.2822  0.1256 -0.0262
 3166POPC   D2A75959  24.415  17.938  14.579 -0.1281 -0.2220 -0.0866
 3166POPC   C3A75960  24.771  18.187  14.775 -0.0724  0.0681  0.1129
 3166POPC   C4A75961  25.026  18.483  14.941 -0.0240 -0.0600  0.1454
 3166POPC   C1B75962  25.480  17.928  14.112  0.0575 -0.0648  0.3117
 3166POPC   C2B75963  25.614  18.375  14.034  0.0423 -0.2317 -0.0296
 3166POPC   C3B75964  25.488  18.861  14.177  0.1211  0.2851  0.1408
 3166POPC   C4B75965  25.451  19.286  14.408  0.0779  0.1768  0.0323
 3167POPC   NC375966  29.909  32.076   7.914 -0.0163  0.2053  0.1788
 3167POPC   PO475967  30.230  31.855   8.018  0.0229  0.4727  0.4185
 3167POPC   GL175968  30.310  31.779   7.677 -0.2495 -0.1600  0.1239
 3167POPC   GL275969  30.117  31.912   7.472  0.0863 -0.1922  0.0238
 3167POPC   C1A75970  30.457  31.626   7.279  0.0308 -0.0804 -0.1073
 3167POPC   D2A75971  30.564  31.564   6.832  0.2741  0.0400  0.0904
 3167POPC   C3A75972  30.441  31.521   6.351 -0.0270  0.2448 -0.0867
 3167POPC   C4A75973  30.455  31.223   6.007 -0.0462  0.0148 -0.2440
 3167POPC   C1B75974  30.045  31.853   6.953  0.1345 -0.2210 -0.0217
 3167POPC   C2B75975  29.983  32.186   6.627 -0.3547  0.3438  0.2798
 3167POPC   C3B75976  30.301  32.348   6.267  0.2048 -0.0634 -0.3023
 3167POPC   C4B75977  30.410  32.775   6.078 -0.3833 -0.1439 -0.0098
 3168POPC   NC375978  20.012  32.484   8.606  0.0006  0.1154 -0.0678
 3168POPC   PO475979  20.037  32.685   8.267  0.4995 -0.3272  0.2445
 3168POPC   GL175980  20.075  32.518   8.002 -0.0521  0.2891  0.0278
 3168POPC   GL275981  19.900  32.388   7.893  0.2099  0.2915 -0.1782
 3168POPC   C1A75982  20.062  32.695   7.560  0.0966  0.0319 -0.2108
 3168POPC   D2A75983  20.159  33.147   7.483  0.1769  0.1283 -0.1791
 3168POPC   C3A75984  20.032  33.343   7.031  0.2808 -0.0451 -0.0520
 3168POPC   C4A75985  20.157  33.737   6.766  0.0338  0.1302 -0.4485
 3168POPC   C1B75986  19.864  32.269   7.466  0.0545 -0.0375  0.1796
 3168POPC   C2B75987  19.901  32.526   7.102 -0.0842 -0.1957 -0.1111
 3168POPC   C3B75988  19.863  32.828   6.696  0.0846  0.0459 -0.1126
 3168POPC   C4B75989  19.998  33.253   6.581 -0.0576 -0.0061 -0.0913
 3169POPC   NC375990  32.478  20.581   9.125  0.1401 -0.5148 -0.1912
 3169POPC   PO475991  32.472  20.516   9.543  0.2643 -0.4356  0.3470
 3169POPC   GL175992  32.108  20.530   9.330  0.0192  0.1119 -0.2349
 3169POPC   GL275993  31.963  20.709   9.143 -0.3077  0.1104 -0.0623
 3169POPC   C1A75994  32.040  20.269   8.914  0.2936  0.0907 -0.1539
 3169POPC   D2A75995  32.136  20.105   8.525 -0.0553  0.0685 -0.1449
 3169POPC   C3A75996  32.157  20.093   8.075 -0.1359  0.0527  0.2389
 3169POPC   C4A75997  32.235  20.331   7.685  0.1321 -0.3354  0.0758
 3169POPC   C1B75998  31.750  20.870   8.756  0.3590  0.2115 -0.0479
 3169POPC   C2B75999  31.478  20.783   8.396  0.5276  0.0160 -0.0137
 3169POPC   C3B76000  31.365  21.089   8.090  0.2651 -0.0088  0.1212
 3169POPC   C4B76001  31.511  20.909   7.655  0.1393  0.1007 -0.0247
 3170POPC   NC376002  18.902  19.606   8.735 -0.1771  0.2488  0.2681
 3170POPC   PO476003  18.600  19.695   8.973  0.0968 -0.0707 -0.5125
 3170POPC   GL176004  18.524  19.815   8.586 -0.0877 -0.0115  0.0391
 3170POPC   GL276005  18.400  20.049   8.522  0.1712 -0.0501  0.0226
 3170POPC   C1A76006  18.691  19.610   8.184 -0.1658 -0.0408 -0.1055
 3170POPC   D2A76007  18.652  19.555   7.686  0.4205  0.2436 -0.0170
 3170POPC   C3A76008  18.879  19.724   7.385 -0.0433  0.1633 -0.2315
 3170POPC   C4A76009  19.151  19.825   6.987 -0.0293 -0.0331  0.0572
 3170POPC   C1B76010  18.634  20.352   8.315  0.1740  0.0298  0.1405
 3170POPC   C2B76011  18.911  20.608   8.110 -0.0247  0.1844  0.3580
 3170POPC   C3B76012  18.946  20.832   7.671 -0.1951 -0.4816 -0.1750
 3170POPC   C4B76013  18.737  21.006   7.316 -0.1200  0.2850  0.0564
 3171POPC   NC376014  29.495   0.751   8.589 -0.1186  0.3526 -0.2926
 3171POPC   PO476015  29.219   1.020   8.539 -0.1311  0.1976  0.0442
 3171POPC   GL176016  29.358   1.015   8.113 -0.1525 -0.2757 -0.2453
 3171POPC   GL276017  29.490   0.677   8.109 -0.2167 -0.1661  0.0006
 3171POPC   C1A76018  29.391   0.965   7.681  0.2254 -0.0203 -0.0877
 3171POPC   D2A76019  29.571   0.798   7.269 -0.1797 -0.0859  0.0406
 3171POPC   C3A76020  29.511   1.094   6.924  0.3481 -0.4070  0.0642
 3171POPC   C4A76021  29.625   1.445   6.670 -0.2286 -0.0506  0.1697
 3171POPC   C1B76022  29.675   0.459   7.684  0.1577  0.0498  0.0321
 3171POPC   C2B76023  29.511   0.264   7.331  0.2396  0.0287 -0.0488
 3171POPC   C3B76024  29.642   0.459   6.932  0.1510 -0.0351  0.2633
 3171POPC   C4B76025  29.781   0.462   6.523 -0.1288  0.1221 -0.0118
 3172POPC   NC376026  30.198  15.348  16.404 -0.0439  0.0757  0.1462
 3172POPC   PO476027  30.562  15.255  16.274  0.0576  0.1764  0.2344
 3172POPC   GL176028  30.825  15.084  16.508  0.6114 -0.2700 -0.1185
 3172POPC   GL276029  31.013  15.250  16.767  0.1792 -0.0801 -0.1673
 3172POPC   C1A76030  30.608  15.019  16.925  0.1098  0.0033 -0.0497
 3172POPC   D2A76031  30.504  15.035  17.388  0.3220 -0.1357  0.4514
 3172POPC   C3A76032  30.172  15.006  17.758 -0.2781 -0.2371  0.0943
 3172POPC   C4A76033  29.905  15.385  17.898  0.0703  0.1587 -0.1675
 3172POPC   C1B76034  30.988  15.262  17.269 -0.0982 -0.1831 -0.0958
 3172POPC   C2B76035  30.813  15.361  17.725  0.2221 -0.2336 -0.1041
 3172POPC   C3B76036  30.686  15.678  18.091 -0.0906  0.0812 -0.2210
 3172POPC   C4B76037  30.692  15.591  18.532 -0.1638  0.1122 -0.0410
 3173POPC   NC376038  23.899  29.057   9.093 -0.2998  0.3859 -0.0097
 3173POPC   PO476039  23.622  29.062   9.345  0.3928  0.0567 -0.1422
 3173POPC   GL176040  23.356  28.858   9.009 -0.5086  0.0095  0.2018
 3173POPC   GL276041  23.597  28.761   8.752 -0.2844  0.1108  0.0982
 3173POPC   C1A76042  22.986  28.766   8.754 -0.0550  0.1145 -0.2561
 3173POPC   D2A76043  22.882  28.443   8.506 -0.1244  0.3769  0.0274
 3173POPC   C3A76044  22.790  28.415   8.042 -0.0530 -0.2535  0.2057
 3173POPC   C4A76045  22.977  28.311   7.674 -0.0923 -0.1015  0.0479
 3173POPC   C1B76046  23.453  28.471   8.405  0.0729 -0.0768 -0.0755
 3173POPC   C2B76047  23.281  28.140   8.070 -0.0861  0.3497  0.0802
 3173POPC   C3B76048  23.357  27.810   7.775 -0.2718 -0.4057 -0.0130
 3173POPC   C4B76049  23.733  27.742   7.544  0.1700  0.0129  0.3221
 3174POPC   NC376050  24.351  29.644   9.533 -0.0191 -0.2612  0.2012
 3174POPC   PO476051  24.449  29.689   9.172  0.0729 -0.0326  0.2843
 3174POPC   GL176052  24.481  29.475   8.823  0.2096  0.0993  0.1728
 3174POPC   GL276053  24.168  29.421   8.734  0.2048  0.0731  0.1690
 3174POPC   C1A76054  24.537  29.374   8.396  0.1890  0.0816 -0.0039
 3174POPC   D2A76055  24.332  29.210   7.986 -0.0945 -0.2424  0.0457
 3174POPC   C3A76056  23.950  29.175   8.021  0.0056  0.2035 -0.1021
 3174POPC   C4A76057  23.595  29.001   8.306 -0.1744 -0.1551  0.3219
 3174POPC   C1B76058  24.143  29.066   8.479 -0.1133 -0.0232 -0.0440
 3174POPC   C2B76059  23.928  28.712   8.337  0.2452  0.1289 -0.1351
 3174POPC   C3B76060  23.801  28.390   8.006 -0.0996  0.0650 -0.1470
 3174POPC   C4B76061  24.002  28.202   7.618  0.0993 -0.0346  0.0055
 3175POPC   NC376062  24.875  17.934  11.107  0.1826 -0.1477  0.0815
 3175POPC   PO476063  24.527  18.080  11.259  0.0988 -0.4672 -0.0965
 3175POPC   GL176064  24.717  18.405  11.113 -0.2552 -0.0560 -0.0932
 3175POPC   GL276065  24.564  18.604  11.242 -0.0607 -0.5518  0.2979
 3175POPC   C1A76066  25.058  18.620  10.852 -0.1575  0.0919 -0.4531
 3175POPC   D2A76067  25.240  18.833  10.559 -0.1928  0.3555 -0.1864
 3175POPC   C3A76068  25.145  19.294  10.505 -0.2795 -0.2679  0.1229
 3175POPC   C4A76069  25.129  19.724  10.378 -0.0440 -0.1292  0.0079
 3175POPC   C1B76070  24.911  18.892  11.341 -0.1198 -0.2027 -0.0109
 3175POPC   C2B76071  25.067  19.379  11.379 -0.1105 -0.0128 -0.0564
 3175POPC   C3B76072  24.988  19.843  11.445 -0.1654  0.0980 -0.2185
 3175POPC   C4B76073  25.088  20.266  11.545 -0.0428 -0.2298 -0.0163
 3176POPC   NC376074  21.396  19.992  14.155 -0.2306  0.1357  0.2001
 3176POPC   PO476075  21.538  19.627  14.069 -0.0046 -0.2384 -0.1104
 3176POPC   GL176076  21.772  19.650  14.245 -0.3540 -0.1354 -0.1212
 3176POPC   GL276077  21.817  19.368  14.449 -0.1309  0.1080 -0.3553
 3176POPC   C1A76078  22.217  19.785  14.453  0.2686 -0.0942 -0.0671
 3176POPC   D2A76079  22.643  19.735  14.512  0.2174 -0.1284  0.0046
 3176POPC   C3A76080  22.685  19.896  14.929  0.1115  0.2994  0.1723
 3176POPC   C4A76081  22.558  19.993  15.364  0.1448 -0.0147  0.0946
 3176POPC   C1B76082  22.137  19.367  14.787  0.0975  0.1407  0.2071
 3176POPC   C2B76083  22.558  19.260  14.926 -0.0187  0.0960 -0.0118
 3176POPC   C3B76084  22.885  19.443  15.213  0.1385  0.2920 -0.0673
 3176POPC   C4B76085  22.996  19.782  15.479  0.2267  0.0183  0.1816
 3177POPC   NC376086  28.099  32.697   9.106  0.0715 -0.0797 -0.1868
 3177POPC   PO476087  28.112  32.771   8.713  0.0204 -0.1077 -0.0742
 3177POPC   GL176088  27.873  32.664   8.437 -0.2292 -0.2381  0.2929
 3177POPC   GL276089  28.099  32.566   8.270 -0.1848  0.1284  0.0110
 3177POPC   C1A76090  27.724  32.962   8.098 -0.2205 -0.2395 -0.0708
 3177POPC   D2A76091  27.750  33.186   7.670 -0.1267  0.2906  0.0847
 3177POPC   C3A76092  27.735  33.566   7.421  0.0321  0.2170 -0.0871
 3177POPC   C4A76093  27.738  33.687   6.930 -0.0659  0.2264 -0.0222
 3177POPC   C1B76094  28.131  32.197   7.923  0.0120 -0.0894 -0.0195
 3177POPC   C2B76095  28.104  32.126   7.477  0.0329  0.1645 -0.0944
 3177POPC   C3B76096  27.949  32.428   7.092 -0.0870  0.0360 -0.2284
 3177POPC   C4B76097  27.708  32.663   6.717 -0.0747 -0.0857 -0.0888
 3178POPC   NC376098  20.235  18.494   9.320 -0.2055  0.1043 -0.1043
 3178POPC   PO476099  19.933  18.756   9.286 -0.0434  0.0904  0.2828
 3178POPC   GL176100  19.990  19.024   8.863 -0.2385  0.0434  0.0289
 3178POPC   GL276101  19.778  19.249   8.964  0.0471  0.0584  0.0596
 3178POPC   C1A76102  20.252  19.100   8.478  0.0293  0.0025  0.5407
 3178POPC   D2A76103  20.662  19.271   8.245  0.2662 -0.4560 -0.0741
 3178POPC   C3A76104  20.816  19.622   8.079 -0.0636 -0.1219  0.1569
 3178POPC   C4A76105  20.999  19.802   7.668  0.1753 -0.3234 -0.1872
 3178POPC   C1B76106  20.147  19.497   8.754 -0.0193  0.0747  0.0933
 3178POPC   C2B76107  20.400  19.684   8.420 -0.1634  0.3939  0.0875
 3178POPC   C3B76108  20.731  20.060   8.335 -0.2220  0.2699  0.1435
 3178POPC   C4B76109  20.911  20.258   7.976 -0.2229  0.0148  0.1099
 3179POPC   NC376110  17.379  17.847   8.431  0.0663  0.0430  0.2251
 3179POPC   PO476111  17.432  18.216   8.334  0.0970  0.0025  0.1225
 3179POPC   GL176112  17.443  18.083   7.992 -0.1790 -0.2440  0.4899
 3179POPC   GL276113  17.109  18.003   8.001  0.0561 -0.0333  0.0854
 3179POPC   C1A76114  17.663  18.117   7.607  0.1595 -0.0815 -0.4166
 3179POPC   D2A76115  17.915  18.087   7.247  0.1313 -0.0148  0.2119
 3179POPC   C3A76116  18.338  18.160   7.228 -0.2003 -0.0798  0.0646
 3179POPC   C4A76117  18.589  18.488   7.037  0.2904  0.1237  0.1737
 3179POPC   C1B76118  17.167  18.210   7.646  0.0327 -0.0689  0.1151
 3179POPC   C2B76119  17.326  18.401   7.248 -0.3065  0.3283  0.1366
 3179POPC   C3B76120  17.523  18.469   6.841  0.1718 -0.0589 -0.0059
 3179POPC   C4B76121  17.416  18.741   6.445  0.1998  0.2847  0.0210
 3180POPC   NC376122  23.863  17.290  13.152 -0.0347 -0.0209 -0.0348
 3180POPC   PO476123  23.840  17.599  13.344 -0.1182 -0.0490 -0.0270
 3180POPC   GL176124  24.046  17.866  13.527 -0.0262  0.3247  0.2292
 3180POPC   GL276125  23.913  17.952  13.803 -0.0960 -0.2883  0.2543
 3180POPC   C1A76126  24.168  18.253  13.300  0.2454  0.0375 -0.0938
 3180POPC   D2A76127  24.399  18.618  13.121  0.0741  0.1627  0.1556
 3180POPC   C3A76128  24.642  18.982  13.291  0.1175 -0.0493  0.0603
 3180POPC   C4A76129  24.746  19.316  13.587 -0.1703 -0.0515 -0.0474
 3180POPC   C1B76130  24.246  18.302  13.801 -0.0952  0.1747 -0.0582
 3180POPC   C2B76131  24.557  18.593  13.948  0.0794 -0.3015 -0.1355
 3180POPC   C3B76132  24.896  18.716  14.275 -0.0914  0.0547  0.1179
 3180POPC   C4B76133  25.170  18.829  14.635  0.0872  0.2849  0.1531
 3181POPC   NC376134  29.263  18.613  10.480  0.3260  0.0177  0.0219
 3181POPC   PO476135  29.619  18.847  10.482  0.1639 -0.0601  0.3630
 3181POPC   GL176136  29.341  19.130  10.481 -0.0032 -0.0391  0.4548
 3181POPC   GL276137  29.161  19.058  10.248  0.1465  0.2229 -0.0195
 3181POPC   C1A76138  29.114  19.559  10.498 -0.5110  0.0739 -0.1732
 3181POPC   D2A76139  28.644  19.744  10.367  0.0844  0.1793 -0.1144
 3181POPC   C3A76140  28.503  20.066  10.016 -0.0364 -0.1268  0.0892
 3181POPC   C4A76141  28.236  20.045   9.703 -0.2483  0.0410  0.1135
 3181POPC   C1B76142  28.744  19.284  10.283 -0.0983 -0.0179 -0.3455
 3181POPC   C2B76143  28.347  19.273  10.180  0.0171  0.1434  0.2434
 3181POPC   C3B76144  27.927  19.389  10.118 -0.1614 -0.0492 -0.0345
 3181POPC   C4B76145  27.703  19.752  10.003  0.3430 -0.2502  0.3959
 3182POPC   NC376146  31.080  21.538  10.304 -0.0345  0.1250  0.0896
 3182POPC   PO476147  31.251  21.484  10.620  0.1001 -0.2879 -0.1234
 3182POPC   GL176148  30.921  21.161  10.587 -0.3913 -0.2175  0.2711
 3182POPC   GL276149  30.948  20.999  10.313  0.1807 -0.3975 -0.2440
 3182POPC   C1A76150  30.566  21.324  10.493 -0.0896  0.7347 -0.1516
 3182POPC   D2A76151  30.048  21.218  10.592  0.0967 -0.0499  0.0993
 3182POPC   C3A76152  30.013  20.760  10.778  0.2350 -0.1255  0.2569
 3182POPC   C4A76153  30.297  20.507  11.030 -0.0904  0.0867 -0.2229
 3182POPC   C1B76154  30.692  21.271  10.036  0.2283 -0.0107 -0.0978
 3182POPC   C2B76155  30.640  21.215   9.572  0.0720 -0.2540 -0.0468
 3182POPC   C3B76156  30.546  20.895   9.229 -0.2712 -0.0910  0.1891
 3182POPC   C4B76157  30.669  20.857   8.796  0.1520 -0.0070 -0.0326
 3183POPC   NC376158  31.505  20.935  12.995  0.2540 -0.0016  0.2619
 3183POPC   PO476159  31.331  21.051  13.321  0.1599  0.0105 -0.1335
 3183POPC   GL176160  31.014  21.001  13.057 -0.1352 -0.1919 -0.6294
 3183POPC   GL276161  30.898  21.213  13.149  0.0383 -0.0132 -0.1204
 3183POPC   C1A76162  30.649  20.718  13.028  0.2114  0.2804 -0.1104
 3183POPC   D2A76163  30.215  20.801  12.950 -0.2830 -0.2379 -0.0369
 3183POPC   C3A76164  30.088  21.244  12.995  0.2875  0.1005  0.1294
 3183POPC   C4A76165  29.746  21.418  13.278  0.0680 -0.4245 -0.1556
 3183POPC   C1B76166  30.613  21.173  12.821  0.0271  0.1173  0.0149
 3183POPC   C2B76167  30.264  21.097  12.530 -0.1850  0.1986 -0.1020
 3183POPC   C3B76168  30.035  21.301  12.225 -0.1048  0.0032  0.2096
 3183POPC   C4B76169  29.733  21.590  12.223 -0.3571 -0.2751  0.1244
 3184POPC   NC376170  29.459  30.309   8.412 -0.1213  0.0818  0.3865
 3184POPC   PO476171  29.864  30.390   8.493 -0.0121 -0.1183 -0.1728
 3184POPC   GL176172  29.890  30.354   8.168  0.2493 -0.3000  0.2963
 3184POPC   GL276173  29.887  30.540   7.899 -0.1954  0.0730 -0.1126
 3184POPC   C1A76174  30.138  30.085   7.884  0.0400  0.0450  0.4402
 3184POPC   D2A76175  30.103  29.954   7.413  0.3280  0.0837 -0.0722
 3184POPC   C3A76176  30.024  30.204   7.010  0.2986  0.0846 -0.0039
 3184POPC   C4A76177  29.897  30.318   6.561 -0.0558  0.1193  0.1771
 3184POPC   C1B76178  29.994  30.483   7.434 -0.0598  0.1487  0.2620
 3184POPC   C2B76179  29.794  30.599   7.061  0.1539 -0.3810  0.1300
 3184POPC   C3B76180  29.491  30.508   6.692 -0.2384  0.0635  0.0899
 3184POPC   C4B76181  29.515  30.395   6.249 -0.1173 -0.1105  0.0229
 3185POPC   NC376182  22.835  28.029   9.156  0.2415  0.0448 -0.0997
 3185POPC   PO476183  22.580  28.359   9.176 -0.2502  0.0104 -0.2618
 3185POPC   GL176184  22.471  28.191   8.806 -0.1059 -0.2451 -0.0104
 3185POPC   GL276185  22.608  27.850   8.737  0.3862  0.3104  0.0380
 3185POPC   C1A76186  22.350  28.338   8.322 -0.0173  0.0932 -0.1350
 3185POPC   D2A76187  22.316  28.635   7.966 -0.1666  0.0371 -0.1581
 3185POPC   C3A76188  22.617  28.651   7.586  0.1784  0.1665 -0.1414
 3185POPC   C4A76189  22.798  29.059   7.342 -0.0686  0.2225  0.0931
 3185POPC   C1B76190  22.847  28.005   8.301  0.1444  0.1943  0.0026
 3185POPC   C2B76191  22.840  27.838   7.801 -0.0298  0.0914 -0.1805
 3185POPC   C3B76192  22.590  27.737   7.489  0.0567  0.0753  0.2727
 3185POPC   C4B76193  22.311  27.416   7.303 -0.0032 -0.0832  0.1912
 3186POPC   NC376194  23.608  18.644  10.923  0.0536 -0.0161 -0.2317
 3186POPC   PO476195  23.495  18.930  10.691  0.0253  0.1375  0.1109
 3186POPC   GL176196  23.808  19.113  10.773 -0.0546 -0.1193 -0.1839
 3186POPC   GL276197  24.015  18.935  10.646  0.1379  0.2032 -0.3629
 3186POPC   C1A76198  23.873  19.496  10.527  0.0885  0.0364 -0.0582
 3186POPC   D2A76199  23.920  19.599  10.108  0.1205  0.0983 -0.1382
 3186POPC   C3A76200  24.344  19.714  10.039  0.2990  0.1605  0.0778
 3186POPC   C4A76201  24.805  19.904  10.032  0.1798 -0.1762  0.2248
 3186POPC   C1B76202  24.300  19.286  10.494  0.0782 -0.0305 -0.1620
 3186POPC   C2B76203  24.627  19.622  10.436  0.1457  0.0788 -0.1078
 3186POPC   C3B76204  24.750  19.991  10.668 -0.2750 -0.0235 -0.0559
 3186POPC   C4B76205  25.046  20.351  10.656 -0.2589  0.3630 -0.2432
 3187POPC   NC376206  25.411  17.627  13.724  0.0173  0.2117 -0.0715
 3187POPC   PO476207  25.548  17.287  13.849 -0.2409 -0.1033 -0.0057
 3187POPC   GL176208  25.551  17.475  14.161 -0.1712 -0.1281 -0.2634
 3187POPC   GL276209  25.859  17.573  14.115 -0.0592 -0.4182  0.0929
 3187POPC   C1A76210  25.305  17.380  14.581 -0.0819  0.0819 -0.2463
 3187POPC   D2A76211  24.911  17.615  14.729 -0.3306 -0.1912 -0.4623
 3187POPC   C3A76212  24.898  17.670  15.175  0.0521 -0.2856  0.0401
 3187POPC   C4A76213  24.582  17.776  15.499  0.2270  0.0150  0.3290
 3187POPC   C1B76214  25.922  17.948  13.839  0.1885 -0.2363  0.1300
 3187POPC   C2B76215  26.059  18.377  13.792 -0.2136 -0.2727  0.0316
 3187POPC   C3B76216  26.114  18.793  13.911  0.1655  0.0787 -0.3814
 3187POPC   C4B76217  25.904  19.120  14.163  0.0673  0.1918  0.2349
 3188POPC   NC376218  31.184  19.745   9.637  0.1561  0.2246 -0.2051
 3188POPC   PO476219  30.911  19.840   9.931 -0.1789 -0.0425 -0.2465
 3188POPC   GL176220  30.737  19.865   9.654 -0.1187  0.3295 -0.2700
 3188POPC   GL276221  30.626  20.116   9.648 -0.0979 -0.0561 -0.0305
 3188POPC   C1A76222  30.828  19.939   9.196 -0.0623  0.1316  0.0726
 3188POPC   D2A76223  30.694  19.925   8.744  0.6262 -0.0513 -0.2466
 3188POPC   C3A76224  30.272  19.994   8.517  0.0815 -0.0364 -0.0715
 3188POPC   C4A76225  29.929  20.169   8.291 -0.0885  0.2930 -0.0199
 3188POPC   C1B76226  30.387  20.365   9.360 -0.0544  0.1899  0.0113
 3188POPC   C2B76227  30.016  20.666   9.335  0.2132  0.2449  0.3410
 3188POPC   C3B76228  29.518  20.707   9.379 -0.1120  0.0122 -0.1084
 3188POPC   C4B76229  29.136  21.004   9.369 -0.0639 -0.0586 -0.0477
 3189POPC   NC376230  20.544  30.458   7.727 -0.0554 -0.4255 -0.2494
 3189POPC   PO476231  20.834  30.427   8.031 -0.0482 -0.1562 -0.3419
 3189POPC   GL176232  21.006  30.310   7.727 -0.1597 -0.0506 -0.2757
 3189POPC   GL276233  20.919  30.344   7.389  0.3519 -0.0333  0.0287
 3189POPC   C1A76234  21.298  30.090   7.407 -0.1567 -0.2491 -0.1829
 3189POPC   D2A76235  21.327  30.204   6.949  0.4191  0.2838 -0.2019
 3189POPC   C3A76236  20.908  30.028   6.726  0.0487  0.0920 -0.1353
 3189POPC   C4A76237  20.658  29.778   6.409 -0.0798  0.4007 -0.4150
 3189POPC   C1B76238  20.759  30.442   6.978 -0.0053 -0.2225  0.2074
 3189POPC   C2B76239  20.755  30.720   6.631  0.1404 -0.0179 -0.0228
 3189POPC   C3B76240  20.520  31.011   6.314 -0.4375 -0.2765  0.2019
 3189POPC   C4B76241  20.178  30.943   6.070  0.3499 -0.3633 -0.0894
 3190POPC   NC376242  24.716  30.949   8.995 -0.0815 -0.0537  0.0550
 3190POPC   PO476243  24.774  30.583   8.891 -0.2918 -0.0670  0.4796
 3190POPC   GL176244  24.616  30.516   8.514 -0.0717  0.1022 -0.2327
 3190POPC   GL276245  24.431  30.294   8.484 -0.1764  0.0110 -0.2547
 3190POPC   C1A76246  24.497  30.579   8.109 -0.0609 -0.0242  0.3188
 3190POPC   D2A76247  24.692  30.814   7.770 -0.2489  0.1050 -0.0164
 3190POPC   C3A76248  24.439  30.533   7.531  0.3145 -0.1146  0.2094
 3190POPC   C4A76249  24.304  30.382   7.096 -0.1118  0.0023  0.0785
 3190POPC   C1B76250  24.460  29.961   8.161  0.0353 -0.1890 -0.2612
 3190POPC   C2B76251  24.609  29.620   7.820  0.1103  0.1808  0.0443
 3190POPC   C3B76252  24.866  29.531   7.478  0.2372 -0.2264  0.1129
 3190POPC   C4B76253  25.130  29.672   7.162  0.0415 -0.4823 -0.1779
 3191POPC   NC376254  30.498  31.380   7.834 -0.2363 -0.0842  0.0312
 3191POPC   PO476255  30.827  31.557   7.951  0.0486  0.1648 -0.0050
 3191POPC   GL176256  30.936  31.427   7.610  0.7179  0.1530 -0.1092
 3191POPC   GL276257  30.899  31.676   7.479  0.2451  0.0968  0.1972
 3191POPC   C1A76258  30.858  31.264   7.164 -0.1621  0.1239 -0.0267
 3191POPC   D2A76259  30.861  31.174   6.720 -0.2095 -0.0315  0.0498
 3191POPC   C3A76260  30.440  31.064   6.513 -0.1794  0.3382  0.0145
 3191POPC   C4A76261  30.232  30.699   6.305  0.0320  0.3368 -0.0735
 3191POPC   C1B76262  30.931  31.787   7.021 -0.2522  0.1772  0.1587
 3191POPC   C2B76263  31.008  31.685   6.604 -0.1806 -0.0297  0.0593
 3191POPC   C3B76264  30.919  31.466   6.220 -0.0127 -0.1339 -0.0017
 3191POPC   C4B76265  30.960  31.021   6.052 -0.1512  0.1903  0.1346
 3192POPC   NC376266  28.164  31.859   8.809 -0.2684 -0.2185 -0.2271
 3192POPC   PO476267  28.574  31.856   8.796  0.2713 -0.2163 -0.0163
 3192POPC   GL176268  28.529  31.913   8.446  0.1863  0.0580  0.1881
 3192POPC   GL276269  28.314  31.845   8.259  0.2902 -0.2786 -0.1368
 3192POPC   C1A76270  28.558  32.304   8.177 -0.1005 -0.3017 -0.0947
 3192POPC   D2A76271  28.805  32.481   7.821  0.1008  0.5773  0.0128
 3192POPC   C3A76272  28.485  32.572   7.530 -0.1552  0.2275  0.1004
 3192POPC   C4A76273  28.625  32.765   7.106  0.1250 -0.0623 -0.0822
 3192POPC   C1B76274  28.354  31.721   7.857 -0.0360  0.1625 -0.0322
 3192POPC   C2B76275  28.120  31.482   7.463 -0.2005 -0.1959  0.2893
 3192POPC   C3B76276  27.944  31.505   6.986  0.0406 -0.6001 -0.0819
 3192POPC   C4B76277  28.194  31.607   6.606 -0.1392 -0.3495  0.4124
 3193POPC   NC376278  22.607  31.530   8.579  0.0549 -0.2020  0.1990
 3193POPC   PO476279  22.740  31.869   8.733  0.1342 -0.1184 -0.1888
 3193POPC   GL176280  22.856  32.178   8.559  0.0095  0.1558  0.2596
 3193POPC   GL276281  22.652  32.260   8.385 -0.1934  0.0859 -0.1044
 3193POPC   C1A76282  23.222  32.256   8.353 -0.0497  0.0121  0.2162
 3193POPC   D2A76283  23.400  32.361   7.953 -0.0992 -0.2371 -0.1651
 3193POPC   C3A76284  23.119  32.376   7.607 -0.0765  0.0767  0.2025
 3193POPC   C4A76285  23.202  32.428   7.157  0.1173  0.0233  0.3016
 3193POPC   C1B76286  22.871  32.486   8.062  0.3390  0.0106  0.0182
 3193POPC   C2B76287  22.903  32.810   7.739  0.0424  0.3086 -0.0120
 3193POPC   C3B76288  22.883  32.813   7.314 -0.1176 -0.1810 -0.2443
 3193POPC   C4B76289  22.601  33.106   7.083 -0.0227 -0.1514 -0.0098
 3194POPC   NC376290  21.264  19.456  14.774  0.1515  0.1941  0.0880
 3194POPC   PO476291  21.171  19.737  14.520  0.3598 -0.2326 -0.0806
 3194POPC   GL176292  21.584  19.742  14.622  0.3933 -0.1784 -0.2987
 3194POPC   GL276293  21.699  20.075  14.585  0.0765 -0.0759  0.3899
 3194POPC   C1A76294  21.649  19.554  15.034  0.2006  0.3204 -0.0958
 3194POPC   D2A76295  21.795  19.360  15.443  0.1554  0.0302  0.0048
 3194POPC   C3A76296  21.947  19.352  15.879 -0.0967  0.0648  0.0720
 3194POPC   C4A76297  21.994  19.339  16.329  0.0553 -0.3840 -0.3822
 3194POPC   C1B76298  22.019  19.862  14.855 -0.2288  0.0658  0.0279
 3194POPC   C2B76299  22.264  19.612  15.206 -0.0791 -0.1272  0.3767
 3194POPC   C3B76300  22.354  19.598  15.627 -0.0248  0.1468  0.0568
 3194POPC   C4B76301  22.702  19.725  15.926 -0.0272  0.2303 -0.1695
 3195POPC   NC376302  28.406  29.995   8.462  0.0210 -0.4354 -0.1234
 3195POPC   PO476303  27.980  29.966   8.503 -0.2147 -0.1888  0.1565
 3195POPC   GL176304  28.169  29.713   8.139 -0.4575  0.0042 -0.2245
 3195POPC   GL276305  28.175  29.537   8.322  0.0151  0.1622 -0.1872
 3195POPC   C1A76306  27.947  29.763   7.750  0.4450 -0.2407 -0.1290
 3195POPC   D2A76307  27.960  29.836   7.286  0.1685  0.2006 -0.1658
 3195POPC   C3A76308  28.197  30.038   6.896  0.1329  0.0093 -0.0715
 3195POPC   C4A76309  28.520  30.146   6.698  0.0071  0.0768 -0.0620
 3195POPC   C1B76310  28.102  29.191   8.049  0.1904  0.1264 -0.1654
 3195POPC   C2B76311  28.144  28.882   7.715  0.2860 -0.1083  0.0132
 3195POPC   C3B76312  28.250  28.683   7.273 -0.2132  0.0020  0.0845
 3195POPC   C4B76313  28.415  28.489   6.911  0.1087  0.0321 -0.0093
 3196POPC   NC376314  22.245  20.114  12.565 -0.2091  0.2325  0.1749
 3196POPC   PO476315  22.443  19.787  12.606 -0.3636 -0.0617 -0.1054
 3196POPC   GL176316  22.761  20.048  12.735 -0.1778 -0.1390 -0.1485
 3196POPC   GL276317  22.705  20.302  12.780 -0.1720  0.0800  0.1249
 3196POPC   C1A76318  23.201  20.059  12.768 -0.0505 -0.1187  0.0615
 3196POPC   D2A76319  23.480  20.453  12.891 -0.1235  0.2382  0.3153
 3196POPC   C3A76320  23.817  20.788  12.864  0.0576 -0.0117 -0.1185
 3196POPC   C4A76321  24.195  21.054  12.865 -0.0963 -0.0896 -0.0251
 3196POPC   C1B76322  22.947  20.674  12.849 -0.4698 -0.0246  0.1505
 3196POPC   C2B76323  23.348  20.950  12.874 -0.2680  0.0020 -0.0734
 3196POPC   C3B76324  23.714  21.278  12.819 -0.1295  0.3283  0.0502
 3196POPC   C4B76325  24.026  21.563  12.543  0.0527  0.1504  0.2419
 3197POPC   NC376326  20.354  20.240   9.990 -0.1408  0.1421 -0.2433
 3197POPC   PO476327  20.177  20.480   9.755  0.1951  0.2372 -0.0077
 3197POPC   GL176328  20.199  20.395   9.376 -0.0634  0.1287 -0.1635
 3197POPC   GL276329  20.454  20.320   9.281 -0.0472 -0.3766  0.1338
 3197POPC   C1A76330  19.997  20.259   8.952 -0.0723  0.2175 -0.0917
 3197POPC   D2A76331  19.878  20.374   8.494  0.1442  0.0900  0.2889
 3197POPC   C3A76332  19.905  20.643   8.092  0.0365  0.5071 -0.0875
 3197POPC   C4A76333  19.970  20.946   7.658  0.0255  0.0146  0.0775
 3197POPC   C1B76334  20.274  20.647   8.934  0.3244 -0.0260  0.1128
 3197POPC   C2B76335  20.285  20.801   8.482  0.1722  0.2017 -0.0222
 3197POPC   C3B76336  20.236  21.071   8.134  0.0119  0.2516  0.0562
 3197POPC   C4B76337  20.402  21.150   7.714 -0.3044  0.0600  0.5091
 3198POPC   NC376338   0.553  26.747   8.724  0.0206 -0.0351 -0.1039
 3198POPC   PO476339   0.744  26.414   8.863  0.0509  0.1594  0.1819
 3198POPC   GL176340   0.627  26.271   8.498 -0.0890  0.2159  0.3057
 3198POPC   GL276341   0.549  26.016   8.448  0.3196  0.4838 -0.1800
 3198POPC   C1A76342   0.747  26.383   8.053  0.1796  0.2565 -0.2835
 3198POPC   D2A76343   0.718  26.507   7.610  0.4329 -0.1183 -0.2148
 3198POPC   C3A76344   0.444  26.693   7.295 -0.0376 -0.0584 -0.0710
 3198POPC   C4A76345   0.430  26.827   6.875 -0.1854 -0.1183  0.0553
 3198POPC   C1B76346   0.593  25.869   8.027 -0.0396  0.1450 -0.1992
 3198POPC   C2B76347   0.308  25.754   7.720  0.1005  0.2243  0.0021
 3198POPC   C3B76348   0.315  25.823   7.267 -0.0976 -0.0869  0.0129
 3198POPC   C4B76349   0.245  25.841   6.797 -0.4650  0.0431 -0.0584
 3199POPC   NC376350  22.780  31.011   8.688 -0.1868 -0.0823  0.1374
 3199POPC   PO476351  22.521  30.822   8.487 -0.1729 -0.1242 -0.1037
 3199POPC   GL176352  22.621  30.621   8.153 -0.1716  0.1409 -0.0125
 3199POPC   GL276353  22.921  30.674   8.083 -0.0283 -0.0338  0.1986
 3199POPC   C1A76354  22.470  30.565   7.738 -0.3678 -0.4123  0.2757
 3199POPC   D2A76355  22.335  30.274   7.458  0.0099 -0.0569  0.1514
 3199POPC   C3A76356  22.075  30.379   7.111  0.2205 -0.1341  0.2867
 3199POPC   C4A76357  21.721  30.530   6.921 -0.0848  0.1478  0.1327
 3199POPC   C1B76358  23.021  30.675   7.585  0.0505  0.2450 -0.2054
 3199POPC   C2B76359  22.718  30.604   7.296  0.2164 -0.2667  0.0161
 3199POPC   C3B76360  22.578  30.741   6.887 -0.1953 -0.0811  0.2003
 3199POPC   C4B76361  22.549  31.063   6.557  0.2732 -0.0326  0.3305
 3200POPC   NC376362  30.765  25.988  11.023 -0.2069  0.2001 -0.0017
 3200POPC   PO476363  30.768  26.363  11.066  0.4330 -0.0829  0.0067
 3200POPC   GL176364  30.424  26.165  11.302 -0.2192  0.0363 -0.1518
 3200POPC   GL276365  30.510  25.880  11.442 -0.3150  0.1378  0.0185
 3200POPC   C1A76366  30.025  26.069  11.514 -0.0021  0.2466 -0.0094
 3200POPC   D2A76367  29.657  26.088  11.696 -0.1697  0.4337  0.1330
 3200POPC   C3A76368  29.352  25.686  11.670 -0.3012 -0.1208  0.1128
 3200POPC   C4A76369  29.127  25.347  11.421  0.2805 -0.1655 -0.0931
 3200POPC   C1B76370  30.254  25.822  11.109 -0.0262 -0.1199 -0.3302
 3200POPC   C2B76371  29.959  26.165  10.943  0.2504  0.3136 -0.0692
 3200POPC   C3B76372  29.630  26.116  10.613  0.2252  0.5200 -0.2463
 3200POPC   C4B76373  29.343  26.066  10.293 -0.1374  0.0046 -0.0471
 3201POPC   NC376374  28.569  17.999  12.676  0.0569  0.1261  0.1180
 3201POPC   PO476375  28.538  18.132  13.039  0.0440  0.0197 -0.1179
 3201POPC   GL176376  28.581  18.461  13.184 -0.1154  0.3097 -0.2794
 3201POPC   GL276377  28.466  18.487  13.459  0.0407 -0.0094  0.1914
 3201POPC   C1A76378  28.171  18.757  13.132 -0.1754  0.0476  0.0553
 3201POPC   D2A76379  27.998  19.148  13.272 -0.0996 -0.3085  0.1768
 3201POPC   C3A76380  27.538  19.172  13.268  0.1952  0.3102 -0.1661
 3201POPC   C4A76381  27.058  19.277  13.238  0.1787 -0.1234  0.0845
 3201POPC   C1B76382  28.356  18.932  13.579  0.0342  0.0275 -0.0686
 3201POPC   C2B76383  28.299  19.441  13.576  0.3578  0.2196  0.0268
 3201POPC   C3B76384  28.022  19.780  13.680  0.2564  0.0041  0.1528
 3201POPC   C4B76385  27.687  19.885  14.019  0.1024  0.1839  0.0702
 3202POPC   NC376386  22.006  26.600   9.390 -0.2380 -0.1120  0.0707
 3202POPC   PO476387  22.025  26.959   9.572 -0.0815 -0.0772  0.1337
 3202POPC   GL176388  22.282  26.917   9.200 -0.0339  0.2556  0.0613
 3202POPC   GL276389  22.397  27.114   9.259  0.1133 -0.1278  0.0772
 3202POPC   C1A76390  22.394  26.508   9.023  0.3071 -0.1158  0.0459
 3202POPC   D2A76391  22.528  26.126   8.807 -0.1001 -0.0577  0.2909
 3202POPC   C3A76392  22.960  26.212   8.618 -0.1249  0.2805  0.2576
 3202POPC   C4A76393  23.376  26.122   8.375 -0.1384 -0.0643  0.1803
 3202POPC   C1B76394  22.654  27.136   8.819 -0.0892  0.2922  0.0050
 3202POPC   C2B76395  22.709  26.829   8.448 -0.0835  0.1525 -0.1563
 3202POPC   C3B76396  22.896  26.974   8.040 -0.1848  0.2269  0.0179
 3202POPC   C4B76397  23.211  26.821   7.730 -0.1214  0.0537 -0.1830
 3203POPC   NC376398  24.320  18.301  10.866  0.0492  0.0229  0.1776
 3203POPC   PO476399  24.129  18.559  11.007  0.2276  0.0455  0.1144
 3203POPC   GL176400  24.211  18.941  11.020 -0.0512 -0.3715  0.3333
 3203POPC   GL276401  24.466  18.881  10.824 -0.1107 -0.0830 -0.0565
 3203POPC   C1A76402  24.535  19.184  11.224 -0.2205 -0.3970  0.0439
 3203POPC   D2A76403  24.735  19.589  11.026  0.1231 -0.0209  0.0033
 3203POPC   C3A76404  25.170  19.634  10.910 -0.1278  0.3381  0.2589
 3203POPC   C4A76405  25.593  19.606  11.045  0.0089  0.0881  0.2118
 3203POPC   C1B76406  24.748  19.047  10.467  0.0422  0.0080 -0.2689
 3203POPC   C2B76407  24.824  19.373  10.088 -0.2401  0.1851  0.2290
 3203POPC   C3B76408  24.828  19.534   9.675  0.1933  0.2423 -0.3494
 3203POPC   C4B76409  24.892  19.518   9.225  0.2490  0.2606 -0.1101
 3204POPC   NC376410  22.369  24.590  12.831 -0.1942  0.1495  0.1059
 3204POPC   PO476411  22.306  24.441  13.238 -0.0459  0.3056 -0.2584
 3204POPC   GL176412  22.691  24.427  13.148  0.1749  0.2579  0.1381
 3204POPC   GL276413  22.686  24.180  13.024  0.2039  0.1365  0.0177
 3204POPC   C1A76414  23.059  24.312  13.316 -0.0271 -0.1338  0.0440
 3204POPC   D2A76415  23.512  24.327  13.133 -0.0819 -0.0397  0.2597
 3204POPC   C3A76416  23.812  23.987  13.008  0.0477  0.0591 -0.0876
 3204POPC   C4A76417  24.213  23.877  12.842 -0.2669  0.3708  0.0135
 3204POPC   C1B76418  22.866  24.076  12.589  0.1198  0.0854 -0.0697
 3204POPC   C2B76419  23.231  23.894  12.340  0.0831  0.2733  0.3892
 3204POPC   C3B76420  23.681  23.829  12.464  0.0429 -0.3320  0.2294
 3204POPC   C4B76421  24.057  23.618  12.254  0.0267  0.1813 -0.1850
 3205POPC   NC376422  30.476  32.628   8.194  0.0342  0.0579 -0.3092
 3205POPC   PO476423  30.316  32.321   8.058 -0.2010  0.0235  0.0286
 3205POPC   GL176424  30.384  32.276   7.701 -0.2994 -0.1189 -0.1258
 3205POPC   GL276425  30.146  32.443   7.574  0.1274  0.2723 -0.0326
 3205POPC   C1A76426  30.655  32.084   7.366  0.1010 -0.2702  0.2628
 3205POPC   D2A76427  30.541  32.089   6.948  0.0061  0.1162  0.0198
 3205POPC   C3A76428  30.501  31.985   6.520  0.0643 -0.2671 -0.0365
 3205POPC   C4A76429  30.498  31.893   6.064 -0.2304  0.0751  0.0008
 3205POPC   C1B76430  30.153  32.416   7.121  0.2568  0.0569  0.2676
 3205POPC   C2B76431  30.297  32.580   6.714  0.0977 -0.1073  0.2213
 3205POPC   C3B76432  30.719  32.645   6.500 -0.0440 -0.0588 -0.0748
 3205POPC   C4B76433  31.148  32.601   6.413 -0.0466 -0.0489  0.1406
 3206POPC   NC376434  29.330  27.046  10.580  0.0174 -0.0592 -0.0179
 3206POPC   PO476435  29.640  27.292  10.588  0.0870  0.1899 -0.1285
 3206POPC   GL176436  29.748  27.011  10.220  0.2824  0.2993  0.2155
 3206POPC   GL276437  29.703  27.019   9.902 -0.3812  0.1260 -0.3477
 3206POPC   C1A76438  29.481  26.648  10.183 -0.1161  0.2881 -0.0837
 3206POPC   D2A76439  29.120  26.419   9.969  0.2333 -0.2985  0.1162
 3206POPC   C3A76440  29.034  26.256   9.531  0.0779  0.0063 -0.1295
 3206POPC   C4A76441  28.740  26.100   9.222  0.2036 -0.0136 -0.0460
 3206POPC   C1B76442  29.497  26.656   9.634  0.1199 -0.1072  0.2340
 3206POPC   C2B76443  29.438  26.271   9.300  0.0293 -0.0035  0.0953
 3206POPC   C3B76444  29.662  26.007   9.022  0.1198 -0.1562  0.0419
 3206POPC   C4B76445  29.662  25.694   8.703 -0.0708 -0.1262 -0.1765
 3207POPC   NC376446   0.429  28.802   8.321  0.1812  0.0156  0.1895
 3207POPC   PO476447   0.119  29.050   8.318 -0.0862  0.0982  0.1662
 3207POPC   GL176448   0.079  29.030   7.960  0.3138  0.0978  0.1594
 3207POPC   GL276449  -0.052  29.320   7.946 -0.3589  0.2301  0.1484
 3207POPC   C1A76450   0.215  28.819   7.584 -0.1026  0.0315  0.0686
 3207POPC   D2A76451   0.312  28.384   7.396  0.2953  0.0491  0.0163
 3207POPC   C3A76452   0.292  28.262   6.953 -0.1616  0.2408  0.0439
 3207POPC   C4A76453   0.544  28.089   6.579 -0.1626  0.1916  0.2440
 3207POPC   C1B76454  -0.339  29.036   7.675 -0.2489 -0.0159 -0.0043
 3207POPC   C2B76455  -0.646  28.845   7.427 -0.2429  0.0116 -0.1006
 3207POPC   C3B76456  -0.829  28.722   7.031 -0.2001  0.0857 -0.1754
 3207POPC   C4B76457  -0.719  28.705   6.595  0.0297  0.2101 -0.0546
 3208POPC   NC376458  28.901  18.220  10.713  0.0359  0.2684 -0.0054
 3208POPC   PO476459  28.757  18.611  10.684  0.0317  0.0513 -0.1302
 3208POPC   GL176460  28.764  18.992  10.631 -0.1706 -0.3441  0.2779
 3208POPC   GL276461  28.853  19.183  10.817 -0.1119 -0.0459  0.0580
 3208POPC   C1A76462  28.399  19.234  10.696 -0.2643 -0.2552 -0.2252
 3208POPC   D2A76463  28.249  19.650  10.683 -0.1948 -0.0434  0.3266
 3208POPC   C3A76464  28.123  19.819  10.290  0.0126  0.1054 -0.1591
 3208POPC   C4A76465  27.979  20.296  10.133 -0.0791 -0.1318  0.1134
 3208POPC   C1B76466  28.777  19.714  10.831 -0.0544  0.2936  0.0499
 3208POPC   C2B76467  28.677  20.132  10.690  0.1252  0.1020 -0.1669
 3208POPC   C3B76468  28.668  20.593  10.600 -0.1304 -0.2000  0.0174
 3208POPC   C4B76469  28.634  20.952  10.877 -0.3154 -0.0553  0.1003
 3209POPC   NC376470  27.943   0.383   8.707  0.0076  0.3400 -0.0025
 3209POPC   PO476471  27.684   0.530   8.930 -0.1026  0.0395  0.1219
 3209POPC   GL176472  27.447   0.756   8.628  0.2882 -0.0636 -0.1690
 3209POPC   GL276473  27.213   0.775   8.787  0.1424 -0.5669  0.0898
 3209POPC   C1A76474  27.279   0.973   8.266 -0.4621 -0.0062  0.2061
 3209POPC   D2A76475  27.496   1.078   7.837  0.0488 -0.2615  0.1353
 3209POPC   C3A76476  27.932   1.035   7.740 -0.1567 -0.0433 -0.2063
 3209POPC   C4A76477  28.246   1.007   7.395  0.3177 -0.0930  0.0939
 3209POPC   C1B76478  27.010   1.193   8.617  0.1396 -0.0422  0.0828
 3209POPC   C2B76479  26.617   1.352   8.568  0.1650 -0.1202 -0.0385
 3209POPC   C3B76480  26.282   1.640   8.671  0.1418  0.0549 -0.2336
 3209POPC   C4B76481  25.967   1.987   8.749 -0.1769 -0.2050 -0.1094
 3210POPC   NC376482  17.935  17.589   8.514 -0.1700  0.2344  0.1928
 3210POPC   PO476483  17.619  17.410   8.341 -0.0086  0.1071  0.1441
 3210POPC   GL176484  17.490  17.428   7.887 -0.1765 -0.1260  0.0701
 3210POPC   GL276485  17.365  17.671   7.752  0.0083 -0.2938 -0.0676
 3210POPC   C1A76486  17.522  17.244   7.476  0.0696  0.2881 -0.1709
 3210POPC   D2A76487  17.745  17.324   7.134 -0.1428  0.0207 -0.0861
 3210POPC   C3A76488  18.024  17.254   6.724 -0.4517 -0.0260 -0.2698
 3210POPC   C4A76489  18.219  17.200   6.307  0.1410 -0.1840  0.1806
 3210POPC   C1B76490  17.412  17.816   7.303  0.2025  0.0741 -0.2427
 3210POPC   C2B76491  17.471  17.956   6.919 -0.0992 -0.0314 -0.0738
 3210POPC   C3B76492  17.841  18.106   6.663 -0.0580  0.0425 -0.0019
 3210POPC   C4B76493  17.910  18.517   6.434 -0.0255 -0.2195  0.0512
 3211POPC   NC376494  21.262  20.548  10.778  0.1315  0.3351 -0.0965
 3211POPC   PO476495  21.658  20.576  10.634  0.0923  0.0178  0.0873
 3211POPC   GL176496  21.724  20.931  10.448  0.1941 -0.1130  0.3446
 3211POPC   GL276497  21.965  20.951  10.550 -0.1214 -0.0045  0.0199
 3211POPC   C1A76498  22.035  21.121  10.119 -0.0244  0.1751 -0.5242
 3211POPC   D2A76499  22.251  21.465   9.902  0.0559  0.1410  0.1533
 3211POPC   C3A76500  22.696  21.367   9.805  0.0857  0.2156  0.1922
 3211POPC   C4A76501  23.004  21.680   9.619  0.2014 -0.0800 -0.0534
 3211POPC   C1B76502  22.406  21.052  10.557  0.1998 -0.1681 -0.2701
 3211POPC   C2B76503  22.774  21.183  10.373 -0.0952  0.0143  0.0566
 3211POPC   C3B76504  23.132  21.411  10.128  0.0054  0.2302  0.3313
 3211POPC   C4B76505  23.411  21.318   9.765  0.1339  0.3018 -0.2591
 3212POPC   NC376506  23.830  31.221   8.980 -0.2320  0.4950  0.0468
 3212POPC   PO476507  23.902  31.125   8.633 -0.4122 -0.1276  0.0190
 3212POPC   GL176508  24.014  31.273   8.270  0.0749 -0.3983 -0.3185
 3212POPC   GL276509  24.258  31.466   8.386 -0.1563  0.2232  0.1705
 3212POPC   C1A76510  23.983  31.432   7.836  0.1119 -0.0391 -0.0718
 3212POPC   D2A76511  24.027  31.482   7.358 -0.3880  0.0963 -0.3781
 3212POPC   C3A76512  23.825  31.239   7.045  0.0596  0.3021 -0.0093
 3212POPC   C4A76513  23.611  30.883   6.884 -0.0129  0.1531  0.2882
 3212POPC   C1B76514  24.096  31.823   8.109 -0.1629  0.2846 -0.0145
 3212POPC   C2B76515  24.034  32.234   7.803  0.1307  0.3112  0.2025
 3212POPC   C3B76516  24.131  32.277   7.407  0.1096 -0.0780 -0.1851
 3212POPC   C4B76517  24.515  32.447   7.209  0.1968 -0.0804  0.0713
 3213POPC   NC376518  31.075  27.152   9.278  0.0815  0.0005  0.4504
 3213POPC   PO476519  31.328  27.196   8.971  0.1380 -0.2381  0.0619
 3213POPC   GL176520  31.165  27.340   8.555 -0.1273 -0.0968 -0.0421
 3213POPC   GL276521  30.795  27.303   8.579  0.1767  0.2498 -0.2945
 3213POPC   C1A76522  30.989  26.992   8.328 -0.1206  0.0122 -0.0696
 3213POPC   D2A76523  30.927  26.979   7.838  0.1624 -0.2251 -0.2982
 3213POPC   C3A76524  30.959  27.446   7.680 -0.0969 -0.1555  0.2199
 3213POPC   C4A76525  30.929  27.917   7.694 -0.0185 -0.1057  0.2811
 3213POPC   C1B76526  30.604  27.332   8.150 -0.1912  0.0157  0.1858
 3213POPC   C2B76527  30.489  27.227   7.721  0.2414  0.2145  0.0795
 3213POPC   C3B76528  30.730  27.044   7.377  0.4033  0.2367 -0.3213
 3213POPC   C4B76529  31.030  26.623   7.306  0.1396 -0.0588  0.0042
 3214POPC   NC376530  31.215  19.644  13.985  0.3832 -0.0893 -0.0715
 3214POPC   PO476531  31.206  20.005  14.154  0.0614  0.0006 -0.0871
 3214POPC   GL176532  30.844  20.286  14.184  0.1073 -0.2911 -0.3050
 3214POPC   GL276533  30.639  20.206  14.031  0.3736  0.0070 -0.1811
 3214POPC   C1A76534  30.531  20.552  14.383 -0.0445 -0.2117 -0.1095
 3214POPC   D2A76535  30.129  20.712  14.328 -0.4070 -0.3671  0.2636
 3214POPC   C3A76536  29.761  20.839  14.570  0.0227 -0.0963  0.3291
 3214POPC   C4A76537  29.581  21.059  15.000  0.0248  0.0123 -0.1289
 3214POPC   C1B76538  30.421  20.563  13.877  0.4504 -0.3430  0.2105
 3214POPC   C2B76539  29.935  20.718  13.884 -0.1294 -0.2009 -0.3835
 3214POPC   C3B76540  29.537  20.821  14.096  0.1743 -0.0619 -0.0625
 3214POPC   C4B76541  29.289  21.082  14.388  0.1463  0.1348 -0.3236
 3215POPC   NC376542  25.436  29.064   9.672  0.0022  0.0847  0.5552
 3215POPC   PO476543  25.546  28.732   9.456  0.2140  0.0818  0.1127
 3215POPC   GL176544  25.343  28.430   9.208  0.1135 -0.0445  0.1028
 3215POPC   GL276545  25.101  28.342   9.326 -0.0522  0.2322 -0.1430
 3215POPC   C1A76546  25.512  28.186   8.842  0.1258  0.1717  0.0456
 3215POPC   D2A76547  25.571  27.989   8.433 -0.1280  0.1356  0.1397
 3215POPC   C3A76548  25.789  27.626   8.640  0.0319  0.0029 -0.1788
 3215POPC   C4A76549  25.940  27.222   8.786  0.1457 -0.1204  0.2533
 3215POPC   C1B76550  25.105  28.024   8.983  0.1358  0.1149 -0.0180
 3215POPC   C2B76551  25.104  27.906   8.565 -0.0411  0.1579 -0.0688
 3215POPC   C3B76552  25.198  27.833   8.119  0.0450  0.2986  0.0934
 3215POPC   C4B76553  25.201  27.462   7.890 -0.0534 -0.2815  0.1156
 3216POPC   NC376554  19.594  24.182   9.722 -0.0393  0.1790  0.1629
 3216POPC   PO476555  19.835  23.877   9.780  0.4012  0.0499 -0.2466
 3216POPC   GL176556  20.035  24.154   9.575  0.0899  0.2454 -0.2259
 3216POPC   GL276557  20.275  24.068   9.643  0.1198  0.3449 -0.0057
 3216POPC   C1A76558  20.109  24.342   9.162 -0.0572  0.0752 -0.0023
 3216POPC   D2A76559  20.327  24.368   8.838 -0.1192 -0.3513 -0.2815
 3216POPC   C3A76560  20.360  24.129   8.422  0.0460 -0.0814  0.1294
 3216POPC   C4A76561  20.009  23.978   8.141 -0.1113 -0.1254 -0.0036
 3216POPC   C1B76562  20.473  23.991   9.240  0.0421 -0.3172  0.0517
 3216POPC   C2B76563  20.516  23.840   8.824  0.1828  0.1647 -0.0078
 3216POPC   C3B76564  20.929  24.025   8.629 -0.0852 -0.0442 -0.3025
 3216POPC   C4B76565  21.235  24.233   8.411 -0.0567  0.0399  0.2499
 3217POPC   NC376566  17.800  20.888   9.026 -0.2922  0.1150  0.0474
 3217POPC   PO476567  18.142  21.059   9.126  0.1460 -0.1739 -0.0630
 3217POPC   GL176568  18.193  21.041   8.732 -0.0365  0.1826  0.6347
 3217POPC   GL276569  18.297  21.276   8.565  0.2702 -0.4209  0.2278
 3217POPC   C1A76570  17.905  21.085   8.335  0.1803 -0.3670 -0.0422
 3217POPC   D2A76571  17.562  21.320   8.123  0.1669 -0.0105  0.1227
 3217POPC   C3A76572  17.510  21.257   7.637  0.0657 -0.0594 -0.2282
 3217POPC   C4A76573  17.646  21.212   7.165 -0.1833 -0.2965 -0.1480
 3217POPC   C1B76574  18.397  21.299   8.068 -0.0868  0.0342 -0.0119
 3217POPC   C2B76575  18.492  20.984   7.770 -0.0355  0.1592 -0.0526
 3217POPC   C3B76576  18.277  21.070   7.386 -0.0204 -0.2482 -0.1132
 3217POPC   C4B76577  18.090  21.470   7.249 -0.0975  0.2582 -0.1443
 3218POPC   NC376578  32.585  29.399   8.407 -0.1539 -0.3487 -0.1206
 3218POPC   PO476579  32.468  29.624   8.129 -0.3574 -0.0047  0.0758
 3218POPC   GL176580  32.446  29.678   7.733  0.0129  0.2493  0.1172
 3218POPC   GL276581  32.674  29.842   7.640  0.2465  0.2483 -0.1135
 3218POPC   C1A76582  32.533  29.440   7.334 -0.2699 -0.0177  0.2828
 3218POPC   D2A76583  32.841  29.156   7.174  0.0638  0.1131  0.1382
 3218POPC   C3A76584  32.618  28.792   6.961 -0.1568  0.2343 -0.1277
 3218POPC   C4A76585  32.536  28.407   6.714  0.0979 -0.0608  0.0122
 3218POPC   C1B76586  32.568  29.968   7.182  0.0171  0.2311  0.0962
 3218POPC   C2B76587  32.455  29.899   6.723  0.0445 -0.2433  0.0472
 3218POPC   C3B76588  32.613  29.746   6.320 -0.2250  0.0154 -0.0628
 3218POPC   C4B76589  32.983  29.537   6.178  0.3489 -0.2850  0.2100
 3219POPC   NC376590  30.505  18.571   9.313 -0.2485  0.0138  0.1166
 3219POPC   PO476591  30.680  18.878   9.214 -0.0772 -0.0816  0.3086
 3219POPC   GL176592  30.527  19.066   8.852  0.5952 -0.1826 -0.0567
 3219POPC   GL276593  30.264  18.935   8.818  0.0121  0.1842  0.0926
 3219POPC   C1A76594  30.532  19.355   8.512  0.1504  0.0307 -0.0421
 3219POPC   D2A76595  30.582  19.673   8.172 -0.1037  0.0205 -0.4252
 3219POPC   C3A76596  30.828  20.059   8.111 -0.2372 -0.4571  0.1539
 3219POPC   C4A76597  31.137  20.392   8.275  0.3933 -0.3240  0.1509
 3219POPC   C1B76598  30.075  19.278   8.526 -0.1485 -0.2063 -0.1485
 3219POPC   C2B76599  30.127  19.593   8.126  0.2695  0.1759 -0.1726
 3219POPC   C3B76600  30.017  19.505   7.697  0.0464 -0.0509  0.0206
 3219POPC   C4B76601  29.765  19.523   7.325 -0.3772 -0.2278 -0.2097
 3220POPC   NC376602  21.392  22.242  11.463 -0.2521  0.0061 -0.0987
 3220POPC   PO476603  21.458  22.531  11.158 -0.0361  0.1173 -0.0013
 3220POPC   GL176604  21.667  22.809  10.876  0.0895 -0.2797 -0.1866
 3220POPC   GL276605  21.894  22.829  10.679  0.0375 -0.1042  0.5561
 3220POPC   C1A76606  21.602  23.243  10.722 -0.2423 -0.0334  0.0500
 3220POPC   D2A76607  21.614  23.483  10.338 -0.2429 -0.3357 -0.0553
 3220POPC   C3A76608  21.884  23.347  10.015  0.0839  0.0579 -0.1832
 3220POPC   C4A76609  22.149  23.075   9.682  0.0574 -0.0656  0.5133
 3220POPC   C1B76610  22.147  22.978  10.261 -0.0180  0.5803  0.0653
 3220POPC   C2B76611  22.676  23.119  10.167  0.0706  0.2257 -0.1324
 3220POPC   C3B76612  23.114  23.247  10.259  0.0485 -0.0236  0.0649
 3220POPC   C4B76613  23.493  23.023  10.369  0.1202 -0.0846  0.2096
 3221POPC   NC376614  31.260  24.531  10.371 -0.0064 -0.2018  0.1289
 3221POPC   PO476615  31.416  24.278  10.089  0.2571  0.0277  0.3634
 3221POPC   GL176616  31.090  24.433   9.914  0.3049  0.6077 -0.0565
 3221POPC   GL276617  31.180  24.497   9.642 -0.1153 -0.2130 -0.1216
 3221POPC   C1A76618  30.668  24.226   9.965  0.0465 -0.2227 -0.1103
 3221POPC   D2A76619  30.332  23.984   9.798  0.1308  0.0547 -0.5415
 3221POPC   C3A76620  30.206  24.101   9.313 -0.1900  0.0839  0.0789
 3221POPC   C4A76621  29.819  24.313   9.157 -0.1488  0.1394  0.1150
 3221POPC   C1B76622  31.044  24.311   9.256  0.0725  0.0025 -0.0555
 3221POPC   C2B76623  30.863  23.900   9.037  0.0423 -0.2006  0.3120
 3221POPC   C3B76624  30.484  23.763   8.821 -0.1210 -0.2587  0.0440
 3221POPC   C4B76625  30.382  23.621   8.408 -0.1502  0.1120 -0.0890
 3222POPC   NC376626  16.702  30.288   8.283 -0.2348  0.0829  0.0621
 3222POPC   PO476627  16.290  30.304   8.247  0.1912 -0.0839 -0.2793
 3222POPC   GL176628  16.164  30.222   7.924  0.0324 -0.0149  0.2769
 3222POPC   GL276629  15.912  30.470   7.861  0.0558  0.1404  0.0225
 3222POPC   C1A76630  16.231  29.983   7.530  0.1705  0.2187 -0.3231
 3222POPC   D2A76631  16.379  29.829   7.120  0.0944 -0.1098  0.0904
 3222POPC   C3A76632  16.269  29.511   6.803  0.0259 -0.0953 -0.0663
 3222POPC   C4A76633  16.267  29.166   6.539  0.1590  0.3745  0.1061
 3222POPC   C1B76634  16.108  30.486   7.477  0.0466 -0.3296  0.1334
 3222POPC   C2B76635  16.279  30.312   7.123 -0.0467 -0.1884 -0.1613
 3222POPC   C3B76636  16.603  30.134   6.812  0.3115  0.3482 -0.2903
 3222POPC   C4B76637  16.827  29.996   6.421 -0.1343 -0.1571  0.2341
 3223POPC   NC376638  22.804  18.582  13.167 -0.0237 -0.1616 -0.2540
 3223POPC   PO476639  22.698  18.963  13.020 -0.0658 -0.0335 -0.0983
 3223POPC   GL176640  22.985  19.161  12.931 -0.4974  0.0837 -0.1167
 3223POPC   GL276641  23.199  19.142  12.695 -0.2068 -0.0237 -0.1721
 3223POPC   C1A76642  22.963  19.635  12.967 -0.0058 -0.0538 -0.0088
 3223POPC   D2A76643  22.900  20.089  13.229 -0.3858  0.2614  0.2101
 3223POPC   C3A76644  23.235  20.464  13.299 -0.0881  0.0049  0.0288
 3223POPC   C4A76645  23.268  20.880  13.349 -0.2263  0.1334  0.2369
 3223POPC   C1B76646  23.460  19.534  12.715  0.0320 -0.2564 -0.3538
 3223POPC   C2B76647  23.733  19.920  12.843 -0.0239 -0.0650 -0.1530
 3223POPC   C3B76648  23.998  20.225  12.972 -0.3190 -0.0325  0.3413
 3223POPC   C4B76649  24.280  20.567  13.180  0.4886  0.4459 -0.0229
 3224POPC   NC376650  16.924  22.047   9.106  0.0994 -0.0743 -0.1209
 3224POPC   PO476651  17.241  21.816   9.211  0.5217  0.1230 -0.0942
 3224POPC   GL176652  17.367  21.917   8.845 -0.2222  0.3476 -0.1008
 3224POPC   GL276653  17.603  22.114   8.985 -0.1152 -0.1321 -0.0717
 3224POPC   C1A76654  17.513  21.648   8.511  0.0141  0.0139 -0.2141
 3224POPC   D2A76655  17.982  21.691   8.482  0.0218 -0.1625  0.0503
 3224POPC   C3A76656  17.995  21.596   8.066 -0.1327  0.0836  0.2917
 3224POPC   C4A76657  18.012  21.241   7.774 -0.4642  0.0719  0.1569
 3224POPC   C1B76658  17.379  22.160   8.505 -0.2243  0.4026 -0.0125
 3224POPC   C2B76659  17.425  21.949   8.071  0.1570 -0.1774 -0.4145
 3224POPC   C3B76660  17.413  21.735   7.720 -0.1941 -0.0784  0.1176
 3224POPC   C4B76661  17.563  21.642   7.318  0.3618  0.2197 -0.1751
 3225POPC   NC376662  24.016  17.437  13.823  0.0280  0.1088  0.0264
 3225POPC   PO476663  23.682  17.395  14.046 -0.1401 -0.0415  0.2037
 3225POPC   GL176664  24.062  17.467  14.287  0.3236  0.0333  0.2288
 3225POPC   GL276665  24.066  17.465  14.581  0.2618  0.2039 -0.0042
 3225POPC   C1A76666  24.255  17.818  14.090 -0.1518 -0.0945  0.0190
 3225POPC   D2A76667  24.592  18.094  14.035  0.0528  0.0882 -0.3842
 3225POPC   C3A76668  24.897  17.989  14.368 -0.4696 -0.0293  0.1463
 3225POPC   C4A76669  25.312  17.911  14.589  0.0361  0.1652 -0.0352
 3225POPC   C1B76670  24.326  17.601  14.960 -0.0132  0.0125  0.0712
 3225POPC   C2B76671  24.331  18.009  15.154  0.3286  0.2588  0.2876
 3225POPC   C3B76672  24.368  18.451  15.339 -0.0513 -0.2963 -0.1338
 3225POPC   C4B76673  24.303  18.956  15.249  0.2558 -0.3182 -0.1312
 3226POPC   NC376674  24.806  22.326   8.934  0.1263 -0.0071  0.3601
 3226POPC   PO476675  24.730  22.364   9.337 -0.0236 -0.0365 -0.2762
 3226POPC   GL176676  24.359  22.498   9.233  0.0128 -0.1966 -0.3205
 3226POPC   GL276677  24.359  22.699   9.463 -0.4181  0.0305 -0.3590
 3226POPC   C1A76678  23.935  22.671   9.297  0.0179  0.0285  0.0274
 3226POPC   D2A76679  23.565  22.750   9.555  0.4038 -0.0613 -0.0966
 3226POPC   C3A76680  23.200  22.927   9.775 -0.0762  0.0375 -0.1274
 3226POPC   C4A76681  23.005  23.301   9.681 -0.0807 -0.0637  0.0714
 3226POPC   C1B76682  24.029  23.083   9.525 -0.1022 -0.0809  0.0383
 3226POPC   C2B76683  24.148  23.396   9.824 -0.3664  0.0149 -0.1702
 3226POPC   C3B76684  24.032  23.703  10.166  0.1525  0.2741 -0.0004
 3226POPC   C4B76685  23.793  24.075  10.294 -0.2338 -0.3958  0.1219
 3227POPC   NC376686  22.578  28.806   4.514  0.1555  0.2953  0.2676
 3227POPC   PO476687  22.941  28.823   4.614 -0.0597  0.1541  0.5633
 3227POPC   GL176688  22.846  28.856   5.011  0.0617 -0.3617  0.0084
 3227POPC   GL276689  22.514  28.702   4.994 -0.0269 -0.0984  0.0827
 3227POPC   C1A76690  22.807  28.768   5.453 -0.2354 -0.0770  0.0109
 3227POPC   D2A76691  22.650  28.556   5.770 -0.1530 -0.0727  0.0685
 3227POPC   C3A76692  22.569  28.435   6.245  0.0266 -0.0430  0.1346
 3227POPC   C4A76693  22.734  28.346   6.730  0.6505 -0.0699  0.1528
 3227POPC   C1B76694  22.269  28.591   5.329  0.0324 -0.0161  0.2315
 3227POPC   C2B76695  22.079  28.467   5.744 -0.1736 -0.0207 -0.2421
 3227POPC   C3B76696  21.714  28.314   5.958  0.0424  0.0177 -0.0579
 3227POPC   C4B76697  21.258  28.180   5.875  0.2770 -0.3894 -0.2420
 3228POPC   NC376698  31.213  27.001   5.175  0.4182  0.0444  0.1380
 3228POPC   PO476699  31.402  26.640   5.099  0.3245  0.1178  0.0127
 3228POPC   GL176700  31.519  26.495   5.483 -0.1721  0.1062  0.0946
 3228POPC   GL276701  31.465  26.763   5.652 -0.2508  0.1001 -0.0386
 3228POPC   C1A76702  31.949  26.423   5.667  0.3448 -0.1776  0.2804
 3228POPC   D2A76703  32.341  26.202   5.851  0.2661 -0.4933  0.1880
 3228POPC   C3A76704  32.696  25.953   5.951  0.2134 -0.2122 -0.2379
 3228POPC   C4A76705  32.900  25.894   6.346 -0.1954  0.4060 -0.2524
 3228POPC   C1B76706  31.645  26.581   6.045  0.1243 -0.0827  0.2494
 3228POPC   C2B76707  31.885  26.657   6.426 -0.0552  0.2622 -0.1401
 3228POPC   C3B76708  32.325  26.698   6.535 -0.1804 -0.0750 -0.3099
 3228POPC   C4B76709  32.707  27.029   6.616  0.2681 -0.1250  0.1907
 3229POPC   NC376710  17.344  18.637   4.531 -0.3099 -0.1124 -0.0484
 3229POPC   PO476711  17.014  18.896   4.613  0.0096  0.1803 -0.1409
 3229POPC   GL176712  16.919  18.828   5.003 -0.3728 -0.1705  0.1813
 3229POPC   GL276713  17.177  18.647   5.051 -0.0096 -0.5032 -0.2275
 3229POPC   C1A76714  16.587  18.938   5.287  0.0720 -0.2159  0.0254
 3229POPC   D2A76715  16.458  18.956   5.726  0.0508 -0.1669  0.2245
 3229POPC   C3A76716  16.155  18.590   5.858  0.0688  0.0079 -0.2037
 3229POPC   C4A76717  16.160  18.150   5.964 -0.1228 -0.1690  0.3049
 3229POPC   C1B76718  17.323  18.511   5.481  0.0611 -0.1217  0.2285
 3229POPC   C2B76719  17.259  18.153   5.763 -0.1630  0.1424  0.2731
 3229POPC   C3B76720  17.100  17.728   5.946 -0.2786  0.4149  0.2826
 3229POPC   C4B76721  16.744  17.429   5.842  0.0623 -0.0377  0.2550
 3230POPC   NC376722  20.826  23.252   5.939 -0.2678  0.2720 -0.2030
 3230POPC   PO476723  21.197  23.153   6.016 -0.0451  0.0136  0.2713
 3230POPC   GL176724  21.071  22.954   6.298 -0.0878 -0.3102 -0.4537
 3230POPC   GL276725  21.360  22.893   6.545  0.0032 -0.1381  0.0415
 3230POPC   C1A76726  20.605  22.901   6.357 -0.2390  0.0459 -0.1675
 3230POPC   D2A76727  20.156  22.998   6.505 -0.2821 -0.1020 -0.1295
 3230POPC   C3A76728  20.067  23.443   6.532  0.0833 -0.2086  0.3292
 3230POPC   C4A76729  19.691  23.746   6.478  0.1817 -0.2487  0.0941
 3230POPC   C1B76730  21.049  23.172   6.759  0.0057  0.1042  0.1842
 3230POPC   C2B76731  20.728  23.069   7.064  0.1267  0.0690  0.2267
 3230POPC   C3B76732  20.521  23.251   7.448  0.2524 -0.2123 -0.1588
 3230POPC   C4B76733  20.692  23.172   7.856 -0.1869 -0.0666 -0.1379
 3231POPC   NC376734  25.767  21.187   9.096  0.1756 -0.3704  0.0120
 3231POPC   PO476735  25.777  21.464   9.393 -0.0459 -0.0203  0.1389
 3231POPC   GL176736  25.540  21.144   9.518  0.0191 -0.2386 -0.1052
 3231POPC   GL276737  25.266  21.055   9.425 -0.2061 -0.0633  0.2038
 3231POPC   C1A76738  25.587  20.997   9.901 -0.0270  0.1096  0.0023
 3231POPC   D2A76739  25.362  20.697  10.266  0.0835  0.2461  0.3142
 3231POPC   C3A76740  25.200  20.830  10.712 -0.4901 -0.0605  0.0795
 3231POPC   C4A76741  25.061  20.720  11.119  0.1526 -0.1800  0.3881
 3231POPC   C1B76742  25.121  20.614   9.579  0.0174 -0.0400  0.0942
 3231POPC   C2B76743  25.123  20.323   9.920 -0.1588 -0.1318  0.1883
 3231POPC   C3B76744  25.367  20.231  10.296 -0.1999 -0.0980  0.0044
 3231POPC   C4B76745  25.439  19.986  10.647 -0.1579  0.2203  0.2300
 3232POPC   NC376746  27.927  21.456   7.228 -0.2578  0.0707  0.1158
 3232POPC   PO476747  28.186  21.279   6.975 -0.0566  0.2536  0.3836
 3232POPC   GL176748  28.392  20.913   7.035 -0.0413 -0.0158 -0.4185
 3232POPC   GL276749  28.559  21.063   7.234  0.3027  0.2997 -0.1342
 3232POPC   C1A76750  28.239  20.588   7.254  0.1091  0.2906 -0.1151
 3232POPC   D2A76751  28.084  20.130   7.199  0.0758  0.0977 -0.1368
 3232POPC   C3A76752  28.083  19.776   7.479 -0.1097 -0.1473 -0.5401
 3232POPC   C4A76753  27.895  19.331   7.520 -0.2084 -0.2233 -0.2580
 3232POPC   C1B76754  28.687  20.630   7.363 -0.0030  0.2916 -0.2406
 3232POPC   C2B76755  28.913  20.224   7.267 -0.0638  0.2042 -0.0945
 3232POPC   C3B76756  28.859  19.807   7.085 -0.1032  0.0396 -0.0176
 3232POPC   C4B76757  28.861  19.392   6.840  0.0903 -0.2200 -0.1654
 3233POPC   NC376758  29.932  17.883   4.721  0.1763  0.1901 -0.0316
 3233POPC   PO476759  30.110  18.233   4.820  0.0121 -0.0626  0.0522
 3233POPC   GL176760  30.311  18.063   5.131 -0.1259 -0.1044 -0.3625
 3233POPC   GL276761  30.394  17.835   4.942 -0.2061 -0.1665 -0.1147
 3233POPC   C1A76762  30.448  17.779   5.502  0.0472 -0.3917  0.0871
 3233POPC   D2A76763  30.533  17.572   5.846  0.2400 -0.1086 -0.3421
 3233POPC   C3A76764  30.697  17.335   6.165 -0.2281  0.3895  0.5421
 3233POPC   C4A76765  30.641  17.176   6.580 -0.0002  0.0638  0.2254
 3233POPC   C1B76766  30.796  17.839   5.173  0.0861  0.1053  0.0692
 3233POPC   C2B76767  31.006  18.018   5.468 -0.0992  0.0797  0.0454
 3233POPC   C3B76768  31.250  18.223   5.738  0.0198  0.0704  0.1277
 3233POPC   C4B76769  31.266  18.444   6.120  0.4870  0.0004  0.0621
 3234POPC   NC376770  17.774  19.061   4.106 -0.0615 -0.0261  0.0422
 3234POPC   PO476771  17.801  18.921   4.481  0.0499  0.2537 -0.2834
 3234POPC   GL176772  18.003  18.897   4.909 -0.1599  0.0927  0.1901
 3234POPC   GL276773  18.059  19.183   4.959 -0.2832  0.0612  0.0152
 3234POPC   C1A76774  18.264  18.698   5.271 -0.0692  0.0272  0.1418
 3234POPC   D2A76775  18.661  18.469   5.350 -0.2357 -0.2865  0.0551
 3234POPC   C3A76776  18.807  18.055   5.601  0.1803  0.1535 -0.1739
 3234POPC   C4A76777  19.191  17.829   5.645 -0.0500 -0.1380  0.0924
 3234POPC   C1B76778  17.940  19.046   5.366 -0.2220 -0.3917 -0.1241
 3234POPC   C2B76779  17.977  18.760   5.687  0.0069  0.2109 -0.2023
 3234POPC   C3B76780  18.194  18.421   5.921 -0.1051 -0.0729 -0.1779
 3234POPC   C4B76781  18.154  18.072   6.260 -0.2994 -0.0387  0.2257
 3235POPC   NC376782  20.603  23.813   5.959  0.2322 -0.2610 -0.1359
 3235POPC   PO476783  20.958  23.673   5.868  0.0042 -0.1628  0.1775
 3235POPC   GL176784  20.888  23.700   6.230  0.2931  0.1455  0.1053
 3235POPC   GL276785  20.972  23.465   6.356  0.0598 -0.0486 -0.0714
 3235POPC   C1A76786  20.511  23.809   6.446 -0.1705 -0.0228 -0.1889
 3235POPC   D2A76787  20.183  23.869   6.763  0.1181 -0.2905 -0.1325
 3235POPC   C3A76788  19.783  23.623   6.931 -0.0225  0.0776  0.0110
 3235POPC   C4A76789  19.348  23.566   7.056  0.2806 -0.1864 -0.0486
 3235POPC   C1B76790  20.909  23.676   6.743 -0.0509 -0.0982 -0.0542
 3235POPC   C2B76791  20.650  23.604   7.149  0.1831  0.0414  0.3578
 3235POPC   C3B76792  20.484  23.713   7.533 -0.0455  0.0350 -0.1633
 3235POPC   C4B76793  20.404  23.983   7.863  0.2275  0.0201 -0.1260
 3236POPC   NC376794  20.655  17.193   4.905 -0.1190  0.3426 -0.0916
 3236POPC   PO476795  20.488  17.519   4.909  0.1498  0.1353  0.3231
 3236POPC   GL176796  20.378  17.348   5.301  0.0315  0.2762  0.1432
 3236POPC   GL276797  20.075  17.376   5.303 -0.0130 -0.0962 -0.3018
 3236POPC   C1A76798  20.343  17.196   5.758 -0.1830 -0.1327  0.0820
 3236POPC   D2A76799  20.203  16.845   6.012 -0.1703 -0.1638 -0.0667
 3236POPC   C3A76800  19.807  16.844   6.242  0.2943 -0.2643 -0.0451
 3236POPC   C4A76801  19.389  16.864   6.502 -0.0588 -0.1832 -0.4771
 3236POPC   C1B76802  19.970  16.929   5.367  0.1344  0.0561 -0.1892
 3236POPC   C2B76803  19.724  16.702   5.654 -0.2374 -0.2561  0.0330
 3236POPC   C3B76804  19.745  16.364   5.978 -0.0327 -0.0292 -0.3012
 3236POPC   C4B76805  19.379  16.063   6.039  0.1007  0.0587 -0.0695
 3237POPC   NC376806  28.463  21.381   8.100  0.2965 -0.2585  0.1856
 3237POPC   PO476807  28.122  21.532   8.126  0.0041  0.0587  0.3318
 3237POPC   GL176808  28.366  21.810   8.365 -0.0061 -0.2780 -0.1939
 3237POPC   GL276809  28.385  22.153   8.296 -0.2545 -0.0536  0.1556
 3237POPC   C1A76810  28.582  21.815   8.765 -0.2259 -0.0459  0.0131
 3237POPC   D2A76811  28.905  22.069   8.912 -0.2311  0.0487 -0.0683
 3237POPC   C3A76812  29.251  21.906   9.160  0.0223  0.0038 -0.0084
 3237POPC   C4A76813  29.671  22.134   9.219 -0.2274  0.2908  0.1335
 3237POPC   C1B76814  28.782  21.864   8.354 -0.3198 -0.3667  0.2369
 3237POPC   C2B76815  29.194  21.738   8.490 -0.0800  0.1872  0.1769
 3237POPC   C3B76816  29.475  21.712   8.781  0.1932  0.0137 -0.0646
 3237POPC   C4B76817  29.714  21.654   9.181 -0.0044  0.0330 -0.2529
 3238POPC   NC376818  20.272  23.681   5.359 -0.0728 -0.1129 -0.2839
 3238POPC   PO476819  20.485  23.455   5.601 -0.2219  0.1625  0.3086
 3238POPC   GL176820  20.281  23.384   5.926 -0.2907 -0.1163  0.0283
 3238POPC   GL276821  20.427  23.355   6.198  0.1058  0.0290 -0.0928
 3238POPC   C1A76822  20.090  23.789   6.142 -0.1914  0.0737 -0.0394
 3238POPC   D2A76823  19.846  24.118   6.028  0.3396 -0.0200  0.0190
 3238POPC   C3A76824  19.911  24.512   5.752 -0.0780 -0.2333 -0.1043
 3238POPC   C4A76825  20.117  24.755   5.387  0.1652  0.1516  0.0905
 3238POPC   C1B76826  20.548  23.335   6.598 -0.0372 -0.2571 -0.2868
 3238POPC   C2B76827  20.268  23.352   6.974  0.3112  0.0934 -0.2497
 3238POPC   C3B76828  20.047  23.505   7.340  0.0937  0.0142  0.2193
 3238POPC   C4B76829  19.690  23.486   7.640  0.4032  0.1274  0.0151
 3239POPC   NC376830  23.102   0.370   4.600  0.1909  0.1076 -0.1080
 3239POPC   PO476831  23.030   0.670   4.871  0.4083  0.0337  0.3442
 3239POPC   GL176832  22.909   0.785   5.187 -0.2738  0.0002  0.0273
 3239POPC   GL276833  23.114   0.895   5.425  0.1507 -0.1431 -0.0647
 3239POPC   C1A76834  22.537   0.647   5.418  0.0977 -0.2515 -0.1329
 3239POPC   D2A76835  22.565   0.180   5.631 -0.1132  0.0604 -0.2221
 3239POPC   C3A76836  22.872   0.044   5.925 -0.0525  0.1919  0.1087
 3239POPC   C4A76837  23.182  -0.268   6.127  0.1357 -0.0906 -0.1706
 3239POPC   C1B76838  22.865   0.805   5.838 -0.0841 -0.0031  0.1531
 3239POPC   C2B76839  22.785   0.518   6.177 -0.1865 -0.1008 -0.0640
 3239POPC   C3B76840  22.632   0.493   6.572 -0.0624 -0.0430  0.2977
 3239POPC   C4B76841  22.309   0.625   6.873  0.1634  0.0264 -0.3256
 3240POPC   NC376842  15.971  21.140   5.546  0.2440  0.1286  0.2700
 3240POPC   PO476843  16.158  21.167   5.192 -0.1121  0.0957 -0.0743
 3240POPC   GL176844  16.402  21.292   5.531 -0.4351  0.2332  0.2204
 3240POPC   GL276845  16.504  21.028   5.621  0.0652 -0.1643  0.0331
 3240POPC   C1A76846  16.322  21.487   5.947  0.1851 -0.2471  0.2768
 3240POPC   D2A76847  16.202  21.359   6.379 -0.2666  0.1979  0.2677
 3240POPC   C3A76848  16.471  21.557   6.695  0.1488  0.0008  0.3798
 3240POPC   C4A76849  16.906  21.520   6.707  0.1712 -0.1609 -0.0924
 3240POPC   C1B76850  16.811  21.019   5.998  0.2145  0.0637  0.0642
 3240POPC   C2B76851  17.069  21.067   6.352  0.0626 -0.1051 -0.1925
 3240POPC   C3B76852  17.217  20.998   6.753 -0.1293 -0.0835  0.0976
 3240POPC   C4B76853  17.367  20.837   7.177  0.2470 -0.0086  0.0257
 3241POPC   NC376854  24.684  29.774   5.186 -0.3271  0.1271  0.0800
 3241POPC   PO476855  24.986  29.536   5.184  0.3121  0.5460 -0.1224
 3241POPC   GL176856  25.022  29.736   5.562 -0.0457  0.3797  0.2556
 3241POPC   GL276857  25.204  29.930   5.399 -0.4202  0.0320 -0.0327
 3241POPC   C1A76858  25.336  29.648   5.914  0.2980  0.0830 -0.1676
 3241POPC   D2A76859  25.356  29.605   6.389  0.1162  0.0372  0.0259
 3241POPC   C3A76860  25.254  29.916   6.732 -0.1703  0.2437  0.2461
 3241POPC   C4A76861  25.203  30.308   6.920 -0.1192  0.0429  0.0801
 3241POPC   C1B76862  25.388  30.097   5.769 -0.2869 -0.0095 -0.0829
 3241POPC   C2B76863  25.680  30.430   5.901  0.2016 -0.0436  0.0557
 3241POPC   C3B76864  25.984  30.423   6.242  0.0879  0.1498 -0.3007
 3241POPC   C4B76865  26.220  30.667   6.536 -0.1330 -0.2916  0.2403
 3242POPC   NC376866  21.177  29.522   3.956 -0.1652 -0.1914 -0.0704
 3242POPC   PO476867  20.827  29.590   3.891  0.2383  0.2634 -0.0878
 3242POPC   GL176868  20.749  29.794   4.141 -0.0243 -0.1955 -0.3021
 3242POPC   GL276869  20.874  30.102   4.216 -0.0016 -0.0506 -0.3294
 3242POPC   C1A76870  20.428  29.695   4.480  0.2507  0.2982  0.2764
 3242POPC   D2A76871  20.191  29.264   4.653  0.0583  0.1844  0.2831
 3242POPC   C3A76872  19.710  29.204   4.631  0.0816  0.1917  0.4353
 3242POPC   C4A76873  19.270  29.161   4.490 -0.2253 -0.2972 -0.2014
 3242POPC   C1B76874  21.098  30.445   4.447  0.0085  0.1044 -0.0858
 3242POPC   C2B76875  20.892  30.706   4.881 -0.1472 -0.1648 -0.2020
 3242POPC   C3B76876  21.050  30.621   5.282 -0.1260 -0.1513 -0.0283
 3242POPC   C4B76877  21.199  30.424   5.707 -0.0651 -0.4161 -0.1264
 3243POPC   NC376878  26.728  21.702  12.552 -0.2500  0.1409 -0.3852
 3243POPC   PO476879  26.782  21.526  12.196 -0.2508  0.1652 -0.0730
 3243POPC   GL176880  27.116  21.424  11.951  0.1794  0.0254  0.1251
 3243POPC   GL276881  26.943  21.185  11.830 -0.1175  0.2332  0.1448
 3243POPC   C1A76882  27.530  21.315  11.727  0.1361  0.2872 -0.2432
 3243POPC   D2A76883  27.999  21.107  11.693  0.0213 -0.1244 -0.0909
 3243POPC   C3A76884  28.243  20.898  12.012  0.0916  0.0877 -0.1505
 3243POPC   C4A76885  28.540  20.739  12.227  0.1262 -0.1730  0.3681
 3243POPC   C1B76886  26.817  20.825  11.530 -0.2046 -0.0140 -0.1763
 3243POPC   C2B76887  27.060  20.608  11.137  0.0370  0.0031  0.1748
 3243POPC   C3B76888  27.367  20.353  10.881 -0.0601  0.0597  0.0230
 3243POPC   C4B76889  27.698  20.013  10.680 -0.0549  0.0901  0.1423
 3244POPC   NC376890  27.826  31.748   4.792  0.0646  0.0042  0.1268
 3244POPC   PO476891  28.093  31.461   4.669  0.1755 -0.0106 -0.2488
 3244POPC   GL176892  28.233  31.316   5.038 -0.0722  0.0681  0.2061
 3244POPC   GL276893  28.445  31.151   4.896 -0.3275 -0.1962  0.1394
 3244POPC   C1A76894  28.562  31.331   5.385  0.0301  0.4542  0.2598
 3244POPC   D2A76895  28.969  31.265   5.534  0.0421  0.0000  0.1625
 3244POPC   C3A76896  28.911  30.874   5.693  0.0646  0.1632 -0.0291
 3244POPC   C4A76897  28.992  30.474   5.410  0.1785 -0.1970  0.1021
 3244POPC   C1B76898  28.396  30.785   5.163  0.2263 -0.2636  0.1206
 3244POPC   C2B76899  28.619  30.382   5.108  0.1483  0.2490 -0.0557
 3244POPC   C3B76900  28.861  30.004   5.206  0.0668  0.1774 -0.0596
 3244POPC   C4B76901  29.260  29.794   5.316  0.2634  0.1624 -0.1522
 3245POPC   NC376902  29.893   1.458   4.788 -0.0647 -0.2677  0.1582
 3245POPC   PO476903  29.690   1.778   4.672 -0.0572  0.1689  0.3404
 3245POPC   GL176904  29.596   1.690   5.034 -0.0055 -0.2533  0.1816
 3245POPC   GL276905  29.361   1.508   5.142  0.4490  0.0085  0.0612
 3245POPC   C1A76906  29.732   1.633   5.476 -0.1455  0.1824 -0.0785
 3245POPC   D2A76907  29.945   1.688   5.866  0.0315 -0.1857  0.2896
 3245POPC   C3A76908  29.749   1.966   6.233 -0.1584 -0.0707 -0.3794
 3245POPC   C4A76909  29.638   2.093   6.683 -0.2772  0.0979  0.1070
 3245POPC   C1B76910  29.703   1.211   5.227  0.2841 -0.0580  0.1116
 3245POPC   C2B76911  29.717   0.697   5.246 -0.0633  0.1452 -0.2147
 3245POPC   C3B76912  29.714   0.231   5.324  0.0952 -0.0338 -0.3311
 3245POPC   C4B76913  29.807  -0.145   5.573 -0.0961 -0.0749  0.1459
 3246POPC   NC376914  27.438  21.792  11.885  0.3294  0.2308 -0.2320
 3246POPC   PO476915  27.600  22.083  12.047 -0.5306  0.2422 -0.1848
 3246POPC   GL176916  27.960  22.305  11.928 -0.2067  0.0651 -0.1079
 3246POPC   GL276917  28.048  22.447  12.092  0.0011  0.0578  0.0618
 3246POPC   C1A76918  28.422  22.194  11.840 -0.1081 -0.2023 -0.0669
 3246POPC   D2A76919  28.757  21.922  11.587 -0.1257  0.1518  0.0710
 3246POPC   C3A76920  28.687  21.498  11.432  0.0851 -0.1244  0.0367
 3246POPC   C4A76921  28.576  21.097  11.690 -0.0618  0.0218  0.1375
 3246POPC   C1B76922  28.137  22.088  12.350  0.3677 -0.0379  0.0824
 3246POPC   C2B76923  28.492  21.788  12.469  0.1022  0.1027 -0.3398
 3246POPC   C3B76924  28.920  21.712  12.363  0.3024  0.0358  0.0356
 3246POPC   C4B76925  29.354  21.811  12.486 -0.2031 -0.4608 -0.0435
 3247POPC   NC376926  27.303  22.584   9.185 -0.2524 -0.1273  0.0790
 3247POPC   PO476927  27.444  22.906   9.434  0.2109  0.0479 -0.2416
 3247POPC   GL176928  27.838  22.801   9.685 -0.0271 -0.1111 -0.4081
 3247POPC   GL276929  27.962  22.561   9.609 -0.0816 -0.0212 -0.2879
 3247POPC   C1A76930  28.234  23.059   9.737 -0.0106  0.0425 -0.2088
 3247POPC   D2A76931  28.458  23.468   9.736 -0.0161 -0.0550  0.0128
 3247POPC   C3A76932  28.768  23.621   9.956 -0.1035 -0.1007 -0.0476
 3247POPC   C4A76933  29.062  23.818  10.302 -0.0999  0.2353  0.1319
 3247POPC   C1B76934  28.245  22.625   9.990 -0.0338  0.0155 -0.3262
 3247POPC   C2B76935  28.527  22.389  10.346  0.0980  0.0642  0.0524
 3247POPC   C3B76936  28.581  22.090  10.692 -0.2403 -0.0470 -0.1048
 3247POPC   C4B76937  28.685  21.979  11.116  0.0326  0.2607  0.1478
 3248POPC   NC376938  25.784  16.808   5.331 -0.1731  0.1624  0.0753
 3248POPC   PO476939  25.597  16.880   5.672  0.3049 -0.0311  0.1315
 3248POPC   GL176940  25.803  16.638   5.899 -0.2615 -0.2633  0.3712
 3248POPC   GL276941  25.998  16.641   5.964  0.1166  0.2559 -0.2418
 3248POPC   C1A76942  25.622  16.428   6.293 -0.1090  0.3246 -0.0847
 3248POPC   D2A76943  25.479  16.272   6.667  0.0517  0.1585  0.3330
 3248POPC   C3A76944  25.168  15.963   6.851  0.2455  0.0121  0.4074
 3248POPC   C4A76945  24.876  15.671   7.047 -0.1651  0.0708  0.1213
 3248POPC   C1B76946  26.375  16.393   6.226  0.4880  0.1239  0.0723
 3248POPC   C2B76947  26.592  16.063   6.217  0.0359  0.4291 -0.3641
 3248POPC   C3B76948  27.046  16.224   6.392  0.0130  0.1041  0.1799
 3248POPC   C4B76949  27.540  16.185   6.472 -0.2588  0.3158  0.3009
 3249POPC   NC376950  18.372  32.482   3.714  0.1479  0.0399  0.0361
 3249POPC   PO476951  18.116  32.695   3.890 -0.3840  0.1121  0.2017
 3249POPC   GL176952  18.026  32.275   4.108 -0.3334  0.0464  0.1567
 3249POPC   GL276953  18.362  32.156   4.138 -0.2728  0.3500  0.3714
 3249POPC   C1A76954  17.890  32.264   4.532  0.0681 -0.0174 -0.0522
 3249POPC   D2A76955  17.845  32.259   5.008  0.0129  0.2353 -0.4280
 3249POPC   C3A76956  17.772  31.910   5.348  0.3036 -0.2548  0.0080
 3249POPC   C4A76957  17.697  31.861   5.819  0.1867  0.1479  0.0331
 3249POPC   C1B76958  18.464  32.385   4.513 -0.0097  0.2898 -0.0026
 3249POPC   C2B76959  18.330  32.599   4.908 -0.3950 -0.2442  0.3070
 3249POPC   C3B76960  18.322  32.591   5.386 -0.0188  0.2628 -0.1279
 3249POPC   C4B76961  18.413  32.480   5.874  0.1860  0.1546  0.1370
 3250POPC   NC376962  25.481  29.798   4.617  0.1329  0.1648 -0.3445
 3250POPC   PO476963  25.562  29.862   4.988  0.0749  0.3342 -0.1349
 3250POPC   GL176964  25.779  29.997   5.355 -0.1688 -0.1370 -0.3380
 3250POPC   GL276965  25.653  30.264   5.352  0.1503 -0.0054 -0.0844
 3250POPC   C1A76966  25.900  29.938   5.783 -0.0822  0.0517  0.0704
 3250POPC   D2A76967  26.144  29.919   6.222 -0.1976  0.0367 -0.2314
 3250POPC   C3A76968  26.584  29.810   6.133  0.1730 -0.1738 -0.2163
 3250POPC   C4A76969  27.074  29.864   6.329  0.1202 -0.3851 -0.1288
 3250POPC   C1B76970  25.377  30.543   5.537  0.2725  0.2025  0.0185
 3250POPC   C2B76971  25.042  30.595   5.896  0.0576 -0.2398  0.0822
 3250POPC   C3B76972  24.674  30.444   6.095  0.0562 -0.4521  0.0151
 3250POPC   C4B76973  24.270  30.341   6.363 -0.2102 -0.1451 -0.0641
 3251POPC   NC376974  23.844  18.572   5.704  0.0408  0.1093 -0.1078
 3251POPC   PO476975  23.435  18.491   5.680  0.1051 -0.0453  0.2526
 3251POPC   GL176976  23.512  18.490   6.120 -0.4782 -0.0457 -0.2114
 3251POPC   GL276977  23.805  18.529   6.242 -0.0352  0.2873  0.2756
 3251POPC   C1A76978  23.173  18.599   6.443 -0.1965 -0.3149 -0.1184
 3251POPC   D2A76979  22.705  18.726   6.403  0.1418  0.0107 -0.0425
 3251POPC   C3A76980  22.415  18.402   6.317  0.2076 -0.2236 -0.1338
 3251POPC   C4A76981  22.367  17.967   6.528 -0.0348  0.0779  0.0387
 3251POPC   C1B76982  23.908  18.181   6.480 -0.1541  0.0226  0.2619
 3251POPC   C2B76983  23.877  17.909   6.861 -0.0091 -0.3294 -0.0615
 3251POPC   C3B76984  23.686  17.669   7.217 -0.1799 -0.0891  0.0253
 3251POPC   C4B76985  23.573  17.436   7.619  0.2953 -0.1112  0.4407
 3252POPC   NC376986  26.601  21.854   9.818  0.1593  0.1376 -0.4309
 3252POPC   PO476987  26.584  21.479   9.689 -0.3860 -0.0271 -0.0222
 3252POPC   GL176988  26.775  21.147   9.605 -0.1588 -0.1827 -0.1615
 3252POPC   GL276989  26.673  21.051   9.419 -0.0434 -0.0194  0.0558
 3252POPC   C1A76990  26.656  20.757   9.862  0.1143  0.1133 -0.2871
 3252POPC   D2A76991  26.710  20.410  10.169  0.3731 -0.1164 -0.1234
 3252POPC   C3A76992  27.027  20.320  10.474  0.0744  0.1335  0.0999
 3252POPC   C4A76993  27.225  19.960  10.489  0.3223  0.1215 -0.5013
 3252POPC   C1B76994  26.756  20.606   9.366 -0.0142  0.0985 -0.2982
 3252POPC   C2B76995  26.929  20.236   9.128  0.2566 -0.0928  0.1908
 3252POPC   C3B76996  27.200  19.860   9.136  0.1729 -0.2132  0.2247
 3252POPC   C4B76997  27.059  19.433   9.111 -0.3376  0.0453  0.0876
 3253POPC   NC376998  31.048  21.516   5.874  0.3089 -0.0126 -0.2619
 3253POPC   PO476999  31.162  21.157   5.771 -0.1953  0.1147  0.1298
 3253POPC   GL177000  31.382  21.304   6.084 -0.1084 -0.1579 -0.1032
 3253POPC   GL277001  31.633  21.230   5.995 -0.0067 -0.1546 -0.0582
 3253POPC   C1A77002  31.651  21.549   6.397  0.0590 -0.2201 -0.1576
 3253POPC   D2A77003  31.808  21.512   6.843 -0.2193  0.2854  0.0482
 3253POPC   C3A77004  31.558  21.107   6.956  0.1875  0.1361 -0.0849
 3253POPC   C4A77005  31.256  20.879   7.247 -0.2455 -0.0463 -0.0519
 3253POPC   C1B77006  31.529  21.052   6.426 -0.1136 -0.0429 -0.1295
 3253POPC   C2B77007  31.658  20.682   6.649 -0.1573 -0.0105  0.2735
 3253POPC   C3B77008  31.978  20.481   6.894 -0.0203 -0.1776 -0.1317
 3253POPC   C4B77009  32.118  20.091   7.126 -0.3407 -0.0370 -0.0866
 3254POPC   NC377010  21.569  27.650   4.554  0.0196  0.0392 -0.0615
 3254POPC   PO477011  21.705  27.454   4.851 -0.1434 -0.1483  0.1894
 3254POPC   GL177012  21.610  27.502   5.203  0.3241 -0.1221  0.0066
 3254POPC   GL277013  21.420  27.586   5.253 -0.1208  0.0222  0.1047
 3254POPC   C1A77014  21.926  27.588   5.520 -0.0539 -0.1865  0.1358
 3254POPC   D2A77015  22.132  27.897   5.835 -0.0442  0.1273  0.0242
 3254POPC   C3A77016  22.530  28.063   6.007  0.0337 -0.5037  0.0487
 3254POPC   C4A77017  22.758  27.909   6.336 -0.3217 -0.2067  0.1877
 3254POPC   C1B77018  21.062  27.266   5.202  0.1845  0.2340 -0.0603
 3254POPC   C2B77019  20.661  27.278   5.465 -0.0076  0.0659 -0.3109
 3254POPC   C3B77020  20.719  27.554   5.761  0.1664  0.1626 -0.0095
 3254POPC   C4B77021  20.944  27.834   6.073 -0.1350  0.3248  0.1601
 3255POPC   NC377022  25.421  23.629  10.692 -0.2335  0.1727  0.2589
 3255POPC   PO477023  25.331  23.315  10.498  0.2962 -0.0789 -0.1241
 3255POPC   GL177024  24.951  23.538  10.383 -0.1145  0.2160  0.1289
 3255POPC   GL277025  24.793  23.292  10.372  0.0868  0.1210 -0.3016
 3255POPC   C1A77026  24.473  23.669  10.463  0.0717 -0.1650  0.1946
 3255POPC   D2A77027  24.174  23.959  10.587 -0.0560  0.0783  0.2955
 3255POPC   C3A77028  24.461  24.301  10.793  0.3302  0.4465  0.0248
 3255POPC   C4A77029  24.598  24.720  10.905  0.0500 -0.2567 -0.1067
 3255POPC   C1B77030  24.372  23.191  10.395 -0.0038 -0.0657  0.0537
 3255POPC   C2B77031  23.971  23.138  10.176 -0.1061  0.0721  0.0182
 3255POPC   C3B77032  23.637  23.205   9.842  0.2547  0.2616  0.0733
 3255POPC   C4B77033  23.498  23.280   9.356 -0.0201 -0.0406  0.0353
 3256POPC   NC377034  23.316  23.049   7.515  0.0498  0.0397 -0.0815
 3256POPC   PO477035  23.487  23.401   7.400 -0.1771 -0.2075 -0.2403
 3256POPC   GL177036  23.240  23.466   7.702 -0.1467  0.0476  0.0857
 3256POPC   GL277037  23.424  23.514   7.922 -0.0956 -0.2112  0.1411
 3256POPC   C1A77038  23.138  23.134   8.006  0.2069  0.0804  0.0279
 3256POPC   D2A77039  23.207  23.035   8.443 -0.0537  0.2015  0.2335
 3256POPC   C3A77040  23.277  22.613   8.643  0.2759 -0.2172 -0.1030
 3256POPC   C4A77041  23.081  22.432   9.003  0.1085 -0.1808  0.1606
 3256POPC   C1B77042  23.186  23.856   8.044 -0.0292  0.0494 -0.1303
 3256POPC   C2B77043  22.935  24.096   8.309 -0.2039  0.1565 -0.1607
 3256POPC   C3B77044  22.771  24.214   8.691  0.1563 -0.0142 -0.1899
 3256POPC   C4B77045  22.466  24.372   9.002  0.4062  0.0846  0.1833
 3257POPC   NC377046  25.710  32.315   5.616  0.1280  0.1784 -0.2453
 3257POPC   PO477047  25.865  32.155   5.307  0.3923  0.0675  0.3841
 3257POPC   GL177048  25.784  31.841   5.597  0.0599 -0.3235 -0.0226
 3257POPC   GL277049  26.094  31.889   5.748 -0.2036 -0.0389 -0.2244
 3257POPC   C1A77050  25.626  31.908   6.029 -0.0770 -0.3166  0.2333
 3257POPC   D2A77051  25.537  31.774   6.438 -0.1275 -0.3813 -0.1903
 3257POPC   C3A77052  25.540  31.749   6.862  0.0658  0.1442  0.1188
 3257POPC   C4A77053  25.319  31.506   7.235  0.2006  0.2316 -0.1409
 3257POPC   C1B77054  26.368  31.645   5.964 -0.0752 -0.0206 -0.0013
 3257POPC   C2B77055  26.547  31.606   6.368 -0.0262 -0.0637 -0.1623
 3257POPC   C3B77056  26.830  31.587   6.681 -0.0158  0.0307  0.2432
 3257POPC   C4B77057  27.025  31.290   6.984  0.2636  0.1041  0.1787
 3258POPC   NC377058  22.428  17.893   5.334  0.2778  0.0572  0.1032
 3258POPC   PO477059  22.666  17.646   5.167  0.0877  0.1931  0.1997
 3258POPC   GL177060  22.525  17.482   5.498 -0.2253  0.0599  0.0496
 3258POPC   GL277061  22.713  17.460   5.721 -0.1791  0.0614  0.0349
 3258POPC   C1A77062  22.167  17.377   5.795  0.3426 -0.0173  0.4980
 3258POPC   D2A77063  21.905  17.165   6.136  0.0209  0.0787  0.1776
 3258POPC   C3A77064  21.517  17.291   6.361 -0.0166  0.3370 -0.0785
 3258POPC   C4A77065  21.149  17.105   6.585 -0.1201 -0.1389  0.3139
 3258POPC   C1B77066  22.479  17.465   6.129 -0.1488 -0.1554 -0.0585
 3258POPC   C2B77067  22.366  17.067   6.395  0.1971  0.0885 -0.1006
 3258POPC   C3B77068  21.953  17.023   6.639 -0.0261  0.1340 -0.2179
 3258POPC   C4B77069  21.559  17.127   6.830 -0.2281  0.1816 -0.0882
 3259POPC   NC377070  24.587  30.659   4.607 -0.3254 -0.1327 -0.0448
 3259POPC   PO477071  24.852  30.417   4.742 -0.1420  0.3559  0.1752
 3259POPC   GL177072  24.905  30.531   5.067  0.1653  0.3028 -0.1354
 3259POPC   GL277073  24.845  30.278   5.241  0.1814 -0.2650 -0.1519
 3259POPC   C1A77074  24.991  30.847   5.431  0.3252  0.1628  0.1497
 3259POPC   D2A77075  25.062  31.103   5.784 -0.1561 -0.0432  0.0311
 3259POPC   C3A77076  24.813  30.987   6.142 -0.1948  0.0362 -0.2796
 3259POPC   C4A77077  24.556  30.879   6.488 -0.1724  0.2905  0.1865
 3259POPC   C1B77078  24.811  30.156   5.686 -0.0547 -0.3745 -0.0015
 3259POPC   C2B77079  24.967  30.024   6.088  0.2499  0.2439 -0.0697
 3259POPC   C3B77080  24.901  30.166   6.520 -0.2709  0.1182 -0.1991
 3259POPC   C4B77081  24.605  30.437   6.724 -0.2261  0.0683 -0.0177
 3260POPC   NC377082  26.307  25.535   6.461 -0.0653 -0.4699  0.1683
 3260POPC   PO477083  26.388  25.907   6.443 -0.3819  0.1172 -0.3429
 3260POPC   GL177084  26.298  26.166   6.813 -0.0784  0.1456 -0.0704
 3260POPC   GL277085  26.478  26.383   6.914 -0.2205 -0.0068 -0.3118
 3260POPC   C1A77086  26.123  26.095   7.264 -0.4638  0.2068 -0.2159
 3260POPC   D2A77087  26.145  26.301   7.608 -0.0197  0.0696 -0.0735
 3260POPC   C3A77088  26.012  26.540   7.992 -0.0031 -0.1405 -0.1211
 3260POPC   C4A77089  25.853  26.566   8.443 -0.0182 -0.2156  0.2272
 3260POPC   C1B77090  26.434  26.576   7.300 -0.1736 -0.1371  0.0816
 3260POPC   C2B77091  26.403  26.736   7.717 -0.2822  0.1695 -0.1909
 3260POPC   C3B77092  26.420  26.966   8.108  0.1148  0.0335  0.0384
 3260POPC   C4B77093  26.789  27.094   8.322  0.2663  0.0460 -0.0165
 3261POPC   NC377094  24.043  23.525   7.694  0.2747 -0.3802 -0.1192
 3261POPC   PO477095  24.218  23.813   7.943 -0.1433 -0.0474  0.3978
 3261POPC   GL177096  24.155  23.827   8.420 -0.1366 -0.3502 -0.4267
 3261POPC   GL277097  24.421  23.886   8.459  0.0942 -0.1456 -0.0778
 3261POPC   C1A77098  23.815  23.676   8.697  0.2800  0.0501  0.0001
 3261POPC   D2A77099  23.604  23.680   9.082  0.1018  0.0593  0.2319
 3261POPC   C3A77100  23.136  23.644   9.175 -0.1531  0.2125 -0.0788
 3261POPC   C4A77101  22.675  23.525   9.150 -0.3075  0.0657 -0.1142
 3261POPC   C1B77102  24.144  24.229   8.583 -0.1706  0.0129  0.0364
 3261POPC   C2B77103  23.714  24.214   8.851 -0.0911 -0.0306 -0.1037
 3261POPC   C3B77104  23.399  24.454   9.062  0.1038  0.0983 -0.0721
 3261POPC   C4B77105  23.195  24.751   9.344  0.1111 -0.1964 -0.3676
 3262POPC   NC377106  28.498  19.576   5.720 -0.2436  0.0726  0.3427
 3262POPC   PO477107  28.630  19.955   5.722  0.1059  0.0341  0.2956
 3262POPC   GL177108  28.817  19.791   6.053  0.0805  0.0096 -0.0153
 3262POPC   GL277109  28.593  19.759   6.273 -0.1628  0.0052 -0.0022
 3262POPC   C1A77110  29.221  19.670   6.317  0.2641 -0.4340  0.1239
 3262POPC   D2A77111  29.554  19.337   6.436  0.1097 -0.3829 -0.0616
 3262POPC   C3A77112  29.498  19.266   6.858  0.0263 -0.0259 -0.2634
 3262POPC   C4A77113  29.209  19.358   7.244 -0.1318 -0.1168  0.3324
 3262POPC   C1B77114  28.891  19.355   6.364  0.0606 -0.3548  0.0071
 3262POPC   C2B77115  29.139  18.997   6.446 -0.1570  0.1995 -0.1170
 3262POPC   C3B77116  29.448  18.795   6.766  0.1731  0.1164 -0.2530
 3262POPC   C4B77117  29.684  18.512   7.001  0.3402 -0.1510 -0.4201
 3263POPC   NC377118  26.453  26.745   5.644  0.1883  0.2040  0.0459
 3263POPC   PO477119  26.513  27.104   5.775 -0.1073 -0.1181 -0.1715
 3263POPC   GL177120  26.507  27.350   6.053  0.0097  0.3637  0.1746
 3263POPC   GL277121  26.729  27.214   6.223 -0.1666 -0.0004  0.1058
 3263POPC   C1A77122  26.461  27.777   6.220 -0.1134  0.2421 -0.0351
 3263POPC   D2A77123  26.272  28.151   6.439  0.1673  0.0407  0.0029
 3263POPC   C3A77124  26.081  28.545   6.407  0.2285 -0.0645  0.0694
 3263POPC   C4A77125  26.183  28.978   6.478  0.1356  0.1030 -0.1414
 3263POPC   C1B77126  26.822  27.230   6.680  0.3101 -0.0670 -0.1690
 3263POPC   C2B77127  26.842  27.465   7.088  0.0331 -0.1863  0.2373
 3263POPC   C3B77128  26.957  27.447   7.549 -0.1468  0.1391 -0.1032
 3263POPC   C4B77129  27.081  27.394   7.981 -0.1174  0.0452 -0.0459
 3264POPC   NC377130  27.915  23.974   8.131 -0.1948  0.0385 -0.0967
 3264POPC   PO477131  28.196  23.903   8.404 -0.0119 -0.1902 -0.2708
 3264POPC   GL177132  28.192  24.185   8.549 -0.1600 -0.0979  0.0253
 3264POPC   GL277133  28.042  24.231   8.792 -0.0475  0.3823 -0.2004
 3264POPC   C1A77134  28.502  24.503   8.709 -0.1281 -0.0300 -0.0686
 3264POPC   D2A77135  28.752  24.548   9.097  0.4245  0.2121  0.1603
 3264POPC   C3A77136  28.952  24.632   9.524  0.3202  0.0211 -0.2682
 3264POPC   C4A77137  29.229  24.916   9.812  0.3548  0.1281 -0.0998
 3264POPC   C1B77138  28.179  24.572   9.138  0.2226  0.0718 -0.1660
 3264POPC   C2B77139  28.313  24.842   9.477  0.0359 -0.4081  0.2373
 3264POPC   C3B77140  28.508  25.137   9.772  0.0997  0.1906 -0.1459
 3264POPC   C4B77141  28.817  25.101  10.098  0.0636 -0.1906 -0.0218
 3265POPC   NC377142  24.489   0.185   4.803  0.0736 -0.0618 -0.3054
 3265POPC   PO477143  24.785   0.331   5.046  0.2248 -0.1710 -0.0499
 3265POPC   GL177144  24.630   0.332   5.458  0.1220  0.3333 -0.0096
 3265POPC   GL277145  24.922   0.253   5.538  0.1515  0.1196  0.1095
 3265POPC   C1A77146  24.345   0.078   5.695  0.0599  0.1499  0.2268
 3265POPC   D2A77147  23.872   0.046   5.801  0.0649  0.0596 -0.0792
 3265POPC   C3A77148  23.678  -0.012   6.255  0.2461  0.2648 -0.0007
 3265POPC   C4A77149  23.589  -0.188   6.673  0.3001  0.3567 -0.3094
 3265POPC   C1B77150  24.736   0.268   5.974  0.1009  0.0447  0.3064
 3265POPC   C2B77151  24.657   0.191   6.461  0.4068  0.2628  0.2353
 3265POPC   C3B77152  24.592  -0.258   6.685  0.2338 -0.3309  0.3045
 3265POPC   C4B77153  24.834  -0.641   6.602  0.0595  0.0195  0.1288
 3266POPC   NC377154  30.296  30.045   4.128  0.2034  0.1963 -0.0237
 3266POPC   PO477155  30.685  29.934   4.078 -0.0798 -0.1297  0.1525
 3266POPC   GL177156  30.951  29.803   4.443  0.3354 -0.1581  0.1664
 3266POPC   GL277157  30.626  29.730   4.566  0.0213  0.1473 -0.1115
 3266POPC   C1A77158  31.257  29.566   4.701 -0.0522  0.1528  0.1491
 3266POPC   D2A77159  31.598  29.554   5.065  0.2100  0.0483 -0.0887
 3266POPC   C3A77160  31.694  29.269   5.403 -0.0034 -0.0543  0.2183
 3266POPC   C4A77161  31.848  28.960   5.726  0.0118  0.1563 -0.1671
 3266POPC   C1B77162  30.786  29.958   4.945  0.0530  0.0185  0.1071
 3266POPC   C2B77163  30.796  30.290   5.227 -0.2813  0.0631 -0.0007
 3266POPC   C3B77164  30.448  30.508   5.473  0.2788 -0.1006 -0.1576
 3266POPC   C4B77165  30.261  30.910   5.659  0.0835  0.0076 -0.1480
 3267POPC   NC377166  27.740  23.792   9.096  0.2115  0.1470  0.2574
 3267POPC   PO477167  27.680  23.658   9.456  0.0745 -0.0046 -0.1811
 3267POPC   GL177168  27.844  24.029   9.608  0.0362  0.2112 -0.3619
 3267POPC   GL277169  27.641  24.202   9.409 -0.2012  0.1585 -0.4726
 3267POPC   C1A77170  28.120  24.345   9.780 -0.0461 -0.0448 -0.0342
 3267POPC   D2A77171  28.193  24.396  10.230  0.3214  0.0231  0.3365
 3267POPC   C3A77172  28.648  24.366  10.337 -0.0146 -0.1021 -0.0384
 3267POPC   C4A77173  29.080  24.457  10.190  0.0273  0.0472 -0.1383
 3267POPC   C1B77174  27.730  24.699   9.490 -0.0490  0.0242 -0.1003
 3267POPC   C2B77175  27.849  25.109   9.462 -0.1868 -0.0061  0.0144
 3267POPC   C3B77176  27.722  25.522   9.562 -0.2141  0.0694 -0.0904
 3267POPC   C4B77177  27.751  25.715   9.975 -0.0582 -0.3569  0.2553
 3268POPC   NC377178  23.482  25.297   6.210  0.0432  0.1531 -0.1918
 3268POPC   PO477179  23.844  25.095   6.363  0.0960 -0.1476  0.2283
 3268POPC   GL177180  23.756  25.292   6.679  0.1297  0.0082 -0.1003
 3268POPC   GL277181  23.559  25.142   6.824  0.2072 -0.3116  0.0304
 3268POPC   C1A77182  23.585  25.714   6.824  0.2773  0.0626  0.0591
 3268POPC   D2A77183  23.379  26.031   7.179  0.1728 -0.0881 -0.0852
 3268POPC   C3A77184  23.365  25.895   7.629  0.0655 -0.0200 -0.0180
 3268POPC   C4A77185  23.569  25.787   8.034  0.0818 -0.0200 -0.0536
 3268POPC   C1B77186  23.597  25.334   7.247 -0.2302  0.0593 -0.2799
 3268POPC   C2B77187  23.369  25.393   7.659 -0.0056 -0.2733  0.4036
 3268POPC   C3B77188  23.101  25.612   7.991  0.0860  0.1846  0.3965
 3268POPC   C4B77189  22.960  25.715   8.433  0.0408 -0.1458  0.3947
 3269POPC   NC377190  32.188  23.557   4.929  0.0115 -0.0708 -0.1448
 3269POPC   PO477191  32.142  23.709   5.278  0.0424  0.0490 -0.1789
 3269POPC   GL177192  32.337  23.690   5.624 -0.0959  0.0477  0.1806
 3269POPC   GL277193  32.468  23.389   5.632 -0.2061  0.1516  0.2319
 3269POPC   C1A77194  32.116  23.563   6.016  0.0851 -0.2571 -0.1880
 3269POPC   D2A77195  31.725  23.529   6.245 -0.1045 -0.1115 -0.0260
 3269POPC   C3A77196  31.570  23.117   6.393  0.1956 -0.3720  0.0395
 3269POPC   C4A77197  31.150  22.852   6.408  0.4263  0.2199  0.1255
 3269POPC   C1B77198  32.676  23.467   6.046  0.3179 -0.4378 -0.0071
 3269POPC   C2B77199  32.617  23.612   6.489  0.1314  0.2939 -0.0941
 3269POPC   C3B77200  32.890  23.784   6.852  0.1934  0.2609 -0.2049
 3269POPC   C4B77201  33.274  24.003   6.895  0.1173 -0.1336  0.1993
 3270POPC   NC377202  21.607  30.648   3.884 -0.0342  0.2000  0.1729
 3270POPC   PO477203  21.678  30.253   3.992  0.2256  0.1044 -0.0386
 3270POPC   GL177204  21.779  30.412   4.314 -0.2917  0.0842 -0.0575
 3270POPC   GL277205  21.657  30.680   4.410 -0.1870 -0.3386  0.1510
 3270POPC   C1A77206  21.483  30.351   4.716  0.1452 -0.2810 -0.0282
 3270POPC   D2A77207  21.175  30.288   4.991  0.0296  0.1582 -0.0782
 3270POPC   C3A77208  21.186  30.007   5.314  0.1045  0.2004  0.2349
 3270POPC   C4A77209  21.195  29.871   5.724 -0.1231  0.0188 -0.2628
 3270POPC   C1B77210  21.560  30.899   4.811  0.2605  0.4741  0.3238
 3270POPC   C2B77211  21.341  31.132   5.052 -0.0165  0.0143 -0.1203
 3270POPC   C3B77212  21.141  31.173   5.455  0.2423 -0.2592  0.2262
 3270POPC   C4B77213  21.063  30.966   5.895  0.1079 -0.0343  0.1694
 3271POPC   NC377214  17.058  30.728   3.735 -0.1580 -0.2354  0.3014
 3271POPC   PO477215  16.794  30.983   3.865 -0.3630  0.0110 -0.0892
 3271POPC   GL177216  16.813  30.925   4.229 -0.1299  0.3200 -0.0257
 3271POPC   GL277217  16.516  30.984   4.313  0.0173  0.0913  0.2768
 3271POPC   C1A77218  17.074  30.955   4.575 -0.1251 -0.1149 -0.0087
 3271POPC   D2A77219  17.233  31.171   4.929 -0.1055  0.1306 -0.0431
 3271POPC   C3A77220  17.015  31.480   5.223  0.0909  0.1030 -0.2227
 3271POPC   C4A77221  16.610  31.690   5.256  0.1256  0.0418  0.3350
 3271POPC   C1B77222  16.636  30.692   4.669 -0.1113 -0.0400 -0.1478
 3271POPC   C2B77223  16.985  30.661   4.947  0.0225  0.2248  0.0205
 3271POPC   C3B77224  17.226  30.739   5.363 -0.0576  0.0464 -0.2500
 3271POPC   C4B77225  17.200  31.187   5.572  0.0047 -0.3864 -0.0320
 3272POPC   NC377226  17.915  30.881   3.921 -0.0476 -0.1663  0.0728
 3272POPC   PO477227  18.282  30.715   3.870 -0.4050  0.1277 -0.1915
 3272POPC   GL177228  18.237  30.638   4.223  0.1456 -0.2508  0.0394
 3272POPC   GL277229  18.229  30.909   4.355  0.1092  0.1006  0.2636
 3272POPC   C1A77230  18.162  30.242   4.464 -0.3442  0.1093 -0.0599
 3272POPC   D2A77231  18.316  29.896   4.752 -0.0307  0.1963 -0.0902
 3272POPC   C3A77232  18.684  29.885   5.079 -0.1187  0.0820  0.2902
 3272POPC   C4A77233  18.561  29.948   5.546 -0.0548 -0.3325  0.3355
 3272POPC   C1B77234  18.192  31.080   4.794 -0.0160 -0.0801  0.3474
 3272POPC   C2B77235  18.192  30.977   5.242 -0.2136  0.0838  0.1800
 3272POPC   C3B77236  18.154  30.812   5.638 -0.0607  0.1174 -0.1148
 3272POPC   C4B77237  18.183  30.732   6.072 -0.0415 -0.1845 -0.0539
 3273POPC   NC377238  25.951  23.880   9.645  0.2898 -0.0033  0.1908
 3273POPC   PO477239  25.712  23.562   9.768  0.1108 -0.3034  0.0662
 3273POPC   GL177240  25.498  23.888   9.883 -0.3510 -0.1810 -0.0736
 3273POPC   GL277241  25.260  23.741  10.059 -0.2991  0.3606  0.1424
 3273POPC   C1A77242  25.444  24.148  10.275 -0.2194  0.0707  0.0459
 3273POPC   D2A77243  25.394  24.111  10.732 -0.2587  0.3745 -0.0833
 3273POPC   C3A77244  25.029  24.469  10.863 -0.1721  0.0266  0.0751
 3273POPC   C4A77245  25.090  24.840  11.121 -0.0173  0.4200  0.0438
 3273POPC   C1B77246  24.942  23.972  10.343 -0.1290  0.1455  0.0508
 3273POPC   C2B77247  24.788  24.355  10.470 -0.2906  0.0565  0.3588
 3273POPC   C3B77248  24.600  24.719  10.446  0.2019  0.1393  0.0841
 3273POPC   C4B77249  24.280  24.982  10.616 -0.1381 -0.1140 -0.2920
 3274POPC   NC377250  30.373  30.956   4.328 -0.0465 -0.2375  0.0337
 3274POPC   PO477251  30.672  30.736   4.089  0.0635 -0.1054  0.0635
 3274POPC   GL177252  30.764  30.713   4.533  0.0245  0.3255  0.0074
 3274POPC   GL277253  31.043  30.698   4.361  0.3103  0.1225  0.2174
 3274POPC   C1A77254  31.075  30.554   4.860 -0.1728  0.0712 -0.0226
 3274POPC   D2A77255  31.064  30.677   5.297 -0.0801 -0.2872 -0.4510
 3274POPC   C3A77256  30.841  30.668   5.701 -0.2581  0.0298  0.2450
 3274POPC   C4A77257  30.546  30.415   5.935  0.2231  0.0065 -0.2672
 3274POPC   C1B77258  31.463  30.762   4.580  0.1721  0.0578  0.0948
 3274POPC   C2B77259  31.569  30.641   4.960 -0.3566 -0.1193 -0.1366
 3274POPC   C3B77260  31.672  30.851   5.395  0.0450  0.1874  0.1422
 3274POPC   C4B77261  32.063  31.039   5.607  0.0175  0.0832  0.2060
 3275POPC   NC377262  19.507  18.344   4.627  0.2302  0.0280  0.0369
 3275POPC   PO477263  19.309  18.013   4.493 -0.4364 -0.1270  0.1250
 3275POPC   GL177264  19.087  17.844   4.780  0.0152  0.1585 -0.6317
 3275POPC   GL277265  19.091  18.122   4.940 -0.1940  0.0352 -0.2276
 3275POPC   C1A77266  18.824  17.720   5.186 -0.0390 -0.2073 -0.1073
 3275POPC   D2A77267  18.453  17.618   5.483 -0.3197  0.1713  0.0467
 3275POPC   C3A77268  18.612  17.731   5.887  0.0883 -0.4042 -0.0264
 3275POPC   C4A77269  18.711  17.935   6.285 -0.0144  0.0294 -0.1167
 3275POPC   C1B77270  19.135  18.326   5.359  0.2098  0.4904 -0.0321
 3275POPC   C2B77271  19.073  18.480   5.738 -0.0801  0.2946 -0.2140
 3275POPC   C3B77272  19.129  18.664   6.155 -0.2571 -0.0559 -0.1987
 3275POPC   C4B77273  19.336  18.622   6.541 -0.0235 -0.0322  0.0785
 3276POPC   NC377274  22.839  22.142   7.088  0.0890 -0.1880  0.2796
 3276POPC   PO477275  22.536  22.290   6.919 -0.0567 -0.1376 -0.0044
 3276POPC   GL177276  22.417  22.429   7.335 -0.1149 -0.0607 -0.0139
 3276POPC   GL277277  22.228  22.679   7.398  0.1878  0.1669  0.0842
 3276POPC   C1A77278  22.385  22.457   7.827 -0.1289  0.0908  0.1898
 3276POPC   D2A77279  22.258  22.540   8.280 -0.2039  0.1109  0.2984
 3276POPC   C3A77280  22.322  22.428   8.707  0.2347 -0.1532 -0.1088
 3276POPC   C4A77281  22.326  22.162   9.128  0.1838 -0.1272  0.2411
 3276POPC   C1B77282  22.226  22.944   7.737 -0.0855 -0.2215 -0.1114
 3276POPC   C2B77283  22.044  22.970   8.091  0.1887 -0.0256 -0.0872
 3276POPC   C3B77284  21.560  22.928   8.241 -0.0240  0.0939  0.1082
 3276POPC   C4B77285  21.165  22.644   8.306  0.2098 -0.1539 -0.3359
 3277POPC   NC377286  29.385  27.596   4.851  0.2696  0.0234 -0.1750
 3277POPC   PO477287  29.287  27.951   4.928 -0.0779 -0.0253  0.1604
 3277POPC   GL177288  29.259  27.932   5.285 -0.3933 -0.1689 -0.4119
 3277POPC   GL277289  29.535  27.805   5.357 -0.1095  0.2565  0.0727
 3277POPC   C1A77290  29.284  28.258   5.622 -0.0412 -0.1469  0.0290
 3277POPC   D2A77291  29.355  28.298   6.064 -0.3219  0.1182  0.0959
 3277POPC   C3A77292  29.561  28.625   6.354 -0.2127  0.3289 -0.2243
 3277POPC   C4A77293  29.503  28.765   6.749  0.1861  0.2617  0.0886
 3277POPC   C1B77294  29.599  27.898   5.798  0.0935 -0.0603  0.4132
 3277POPC   C2B77295  29.655  27.996   6.274  0.1967 -0.2814  0.0370
 3277POPC   C3B77296  29.714  28.240   6.670  0.0508 -0.0521  0.0750
 3277POPC   C4B77297  29.920  28.319   7.108 -0.1181  0.1715 -0.1323
 3278POPC   NC377298  30.522  21.048   5.822  0.4141  0.0789 -0.0892
 3278POPC   PO477299  30.537  21.436   5.944 -0.2467 -0.0263  0.1509
 3278POPC   GL177300  30.763  21.147   6.215  0.3405 -0.0813  0.0571
 3278POPC   GL277301  30.997  21.018   6.297 -0.2300  0.0735 -0.0401
 3278POPC   C1A77302  30.608  20.963   6.637 -0.1821  0.2529 -0.1459
 3278POPC   D2A77303  30.608  20.666   6.993  0.0791  0.0479  0.0371
 3278POPC   C3A77304  30.891  20.519   7.307  0.5507  0.1067 -0.1778
 3278POPC   C4A77305  30.889  20.254   7.687  0.1765 -0.1317  0.1330
 3278POPC   C1B77306  31.094  20.814   6.757 -0.1777 -0.0639 -0.0064
 3278POPC   C2B77307  31.271  20.469   6.956 -0.1229  0.0625  0.0110
 3278POPC   C3B77308  31.489  20.078   7.053 -0.1049 -0.1395  0.2949
 3278POPC   C4B77309  31.573  19.580   7.132 -0.3998  0.2003 -0.0423
 3279POPC   NC377310  22.077  19.475   5.141 -0.2537 -0.6416  0.0124
 3279POPC   PO477311  21.853  19.697   5.402  0.1371 -0.0174  0.0519
 3279POPC   GL177312  21.844  19.448   5.640  0.1038 -0.1436 -0.1990
 3279POPC   GL277313  21.845  19.677   5.891 -0.1547 -0.2900 -0.0937
 3279POPC   C1A77314  21.896  19.166   6.022  0.1024  0.0337  0.0659
 3279POPC   D2A77315  22.052  18.779   6.360  0.4142  0.3586  0.1958
 3279POPC   C3A77316  21.763  18.753   6.760  0.2202 -0.1753  0.0568
 3279POPC   C4A77317  21.442  18.733   7.115 -0.1705  0.3321 -0.1353
 3279POPC   C1B77318  21.570  19.805   6.255 -0.1006  0.2799  0.0403
 3279POPC   C2B77319  21.572  19.935   6.717  0.0269  0.0221  0.4503
 3279POPC   C3B77320  21.175  19.972   6.959 -0.0129 -0.0686  0.2175
 3279POPC   C4B77321  20.840  20.044   7.295  0.3155  0.0848 -0.3376
 3280POPC   NC377322  22.261  27.266   5.043  0.0667 -0.1667  0.1405
 3280POPC   PO477323  22.063  26.936   4.978  0.2079  0.1295 -0.0374
 3280POPC   GL177324  21.903  27.174   5.366 -0.3694 -0.1530 -0.2851
 3280POPC   GL277325  22.147  27.129   5.581 -0.1668  0.0094  0.0767
 3280POPC   C1A77326  21.522  27.188   5.599  0.1463  0.0122  0.2208
 3280POPC   D2A77327  21.084  27.173   5.693 -0.2529 -0.1803  0.0793
 3280POPC   C3A77328  20.979  27.317   6.146  0.3182  0.3817 -0.0198
 3280POPC   C4A77329  20.798  27.377   6.527  0.2426 -0.3065 -0.1958
 3280POPC   C1B77330  22.112  27.303   5.952 -0.0412  0.0866  0.1485
 3280POPC   C2B77331  22.096  27.076   6.341 -0.1878 -0.0277 -0.1388
 3280POPC   C3B77332  21.857  26.900   6.655  0.0618  0.1409 -0.2722
 3280POPC   C4B77333  21.675  26.591   6.900  0.0088  0.0974 -0.1642
 3281POPC   NC377334  29.769  21.678   5.748  0.1071 -0.1871 -0.0269
 3281POPC   PO477335  29.883  21.602   6.120  0.0043 -0.1233  0.0601
 3281POPC   GL177336  29.791  21.354   6.444 -0.3862  0.0495 -0.3354
 3281POPC   GL277337  29.787  21.103   6.388  0.0647  0.2955 -0.1135
 3281POPC   C1A77338  29.713  21.300   6.921  0.1091  0.1227 -0.0908
 3281POPC   D2A77339  30.013  21.140   7.234 -0.0202  0.0631 -0.2990
 3281POPC   C3A77340  30.304  20.897   7.456 -0.0097  0.1284 -0.1630
 3281POPC   C4A77341  30.545  20.757   7.852 -0.2383 -0.2395  0.1821
 3281POPC   C1B77342  30.082  20.886   6.669  0.1203  0.2927  0.0326
 3281POPC   C2B77343  30.053  20.680   7.056 -0.0743 -0.0901  0.4329
 3281POPC   C3B77344  29.893  20.308   7.234 -0.1909 -0.3908  0.0586
 3281POPC   C4B77345  30.066  19.929   7.357  0.1275  0.0879  0.0824
 3282POPC   NC377346  24.031  31.651   4.503  0.0723  0.0577 -0.1004
 3282POPC   PO477347  24.097  31.888   4.802 -0.3902  0.3546 -0.1080
 3282POPC   GL177348  24.235  32.067   5.086 -0.0930  0.1089 -0.0569
 3282POPC   GL277349  24.491  32.258   5.024 -0.0137  0.0306 -0.0088
 3282POPC   C1A77350  24.149  32.032   5.549 -0.1026 -0.1046 -0.1430
 3282POPC   D2A77351  24.037  31.941   5.990  0.1410  0.0671  0.1533
 3282POPC   C3A77352  24.054  31.823   6.453  0.4036  0.0310  0.1966
 3282POPC   C4A77353  24.091  31.709   6.877  0.0323 -0.0172  0.2839
 3282POPC   C1B77354  24.616  32.118   5.440 -0.0745 -0.3372  0.2831
 3282POPC   C2B77355  24.576  32.057   5.908  0.1237 -0.0673  0.0263
 3282POPC   C3B77356  24.564  31.868   6.333  0.0442 -0.0538 -0.1840
 3282POPC   C4B77357  24.550  31.677   6.735 -0.0144 -0.2727  0.1802
 3283POPC   NC377358  18.291  26.326   3.858 -0.1495  0.2049  0.0510
 3283POPC   PO477359  18.637  26.406   4.088  0.2016 -0.0623  0.0379
 3283POPC   GL177360  18.745  26.389   4.527 -0.3195  0.3021  0.1495
 3283POPC   GL277361  18.750  26.643   4.672 -0.0523  0.0079  0.2225
 3283POPC   C1A77362  18.424  26.260   4.837 -0.0417 -0.2052 -0.0592
 3283POPC   D2A77363  18.113  26.150   5.184 -0.0108 -0.1206 -0.1605
 3283POPC   C3A77364  18.260  26.215   5.566 -0.2632 -0.1771  0.2880
 3283POPC   C4A77365  18.337  26.495   5.906 -0.3219 -0.4881 -0.3465
 3283POPC   C1B77366  18.808  27.094   4.734  0.0626 -0.1541  0.1983
 3283POPC   C2B77367  18.565  27.432   5.024 -0.1395  0.1077 -0.1071
 3283POPC   C3B77368  18.770  27.767   5.302 -0.2043  0.0915  0.0782
 3283POPC   C4B77369  18.983  27.914   5.687 -0.0189 -0.2515  0.1135
 3284POPC   NC377370  27.364  22.023  10.080  0.0073  0.0020 -0.2684
 3284POPC   PO477371  27.076  21.763   9.987 -0.0665  0.0937  0.1481
 3284POPC   GL177372  27.390  21.528   9.884 -0.0253  0.0468  0.1888
 3284POPC   GL277373  27.627  21.764   9.757 -0.1400  0.2933 -0.1517
 3284POPC   C1A77374  27.722  21.307  10.064 -0.2187 -0.0058 -0.0247
 3284POPC   D2A77375  28.058  21.010  10.172 -0.3661 -0.0058 -0.0824
 3284POPC   C3A77376  28.205  20.654  10.438  0.2098 -0.0635 -0.1941
 3284POPC   C4A77377  28.147  20.260  10.664  0.0347  0.1945  0.0785
 3284POPC   C1B77378  28.048  21.572   9.746 -0.1048 -0.1852  0.3080
 3284POPC   C2B77379  28.540  21.680   9.772 -0.0036 -0.2753 -0.0443
 3284POPC   C3B77380  28.988  21.611   9.590  0.2384 -0.2121  0.1163
 3284POPC   C4B77381  29.439  21.703   9.615  0.1215 -0.5008 -0.1044
 3285POPC   NC377382  32.098  25.308   5.301  0.0514  0.2071  0.0847
 3285POPC   PO477383  32.480  25.151   5.291  0.0636  0.3093  0.1773
 3285POPC   GL177384  32.446  25.209   5.658 -0.2002 -0.0074 -0.0919
 3285POPC   GL277385  32.208  25.290   5.761 -0.0413 -0.2061  0.1019
 3285POPC   C1A77386  32.615  25.435   6.006 -0.0914 -0.0742  0.0417
 3285POPC   D2A77387  33.088  25.569   6.015 -0.0158 -0.0046 -0.0774
 3285POPC   C3A77388  33.123  25.418   6.462 -0.2804  0.0215  0.0519
 3285POPC   C4A77389  33.071  25.341   6.889  0.1742 -0.0906  0.0919
 3285POPC   C1B77390  32.150  25.350   6.232  0.1379  0.2831  0.0059
 3285POPC   C2B77391  32.201  25.393   6.711 -0.0576 -0.5047  0.0396
 3285POPC   C3B77392  32.486  25.195   6.976  0.0461 -0.0017 -0.1260
 3285POPC   C4B77393  32.814  25.008   7.187 -0.2670 -0.1301 -0.0018
 3286POPC   NC377394  18.850  31.551   3.909 -0.0588 -0.0148  0.2060
 3286POPC   PO477395  18.808  31.914   3.940 -0.0702 -0.0929  0.2456
 3286POPC   GL177396  18.985  31.983   4.287 -0.1031  0.3622  0.0897
 3286POPC   GL277397  18.856  32.176   4.439 -0.1469  0.0991  0.1977
 3286POPC   C1A77398  19.098  31.885   4.715  0.1982  0.1350 -0.0782
 3286POPC   D2A77399  19.205  32.228   5.090  0.1643  0.4550  0.0961
 3286POPC   C3A77400  19.279  32.416   5.565  0.2242 -0.3968  0.3348
 3286POPC   C4A77401  19.428  32.326   6.005  0.1208  0.0496  0.1544
 3286POPC   C1B77402  18.784  32.351   4.853 -0.0745 -0.5430  0.0904
 3286POPC   C2B77403  18.813  32.374   5.333 -0.2965 -0.0460 -0.3043
 3286POPC   C3B77404  18.874  32.287   5.796 -0.1728  0.1193 -0.2933
 3286POPC   C4B77405  19.034  32.102   6.216  0.1160  0.0725 -0.2569
 3287POPC   NC377406  27.259  26.565   5.726  0.0961  0.2061 -0.2269
 3287POPC   PO477407  27.172  26.472   6.105 -0.0060  0.1509 -0.5254
 3287POPC   GL177408  27.339  26.716   6.365 -0.1948 -0.0099  0.3230
 3287POPC   GL277409  27.571  26.870   6.173 -0.1815 -0.0198  0.1547
 3287POPC   C1A77410  27.492  26.561   6.785  0.2418  0.2784 -0.1145
 3287POPC   D2A77411  27.307  26.607   7.197 -0.2381 -0.2875  0.0347
 3287POPC   C3A77412  27.226  26.406   7.532 -0.0460 -0.1242  0.2445
 3287POPC   C4A77413  27.133  25.949   7.558 -0.2545 -0.0938 -0.1003
 3287POPC   C1B77414  27.803  26.946   6.574  0.3588  0.3482  0.0399
 3287POPC   C2B77415  28.145  26.995   6.874 -0.4071  0.1056  0.2028
 3287POPC   C3B77416  28.496  26.820   6.948  0.1408 -0.2039 -0.1338
 3287POPC   C4B77417  28.688  26.496   6.630  0.3731 -0.3072 -0.0701
 3288POPC   NC377418  21.200  19.869   5.181 -0.0097  0.0208 -0.0957
 3288POPC   PO477419  20.856  19.796   5.007 -0.1861  0.0436 -0.1067
 3288POPC   GL177420  20.771  19.730   5.424 -0.2557  0.0607  0.2171
 3288POPC   GL277421  20.864  19.589   5.682  0.0532 -0.0491  0.1117
 3288POPC   C1A77422  20.376  19.764   5.636 -0.2454  0.1342  0.0352
 3288POPC   D2A77423  19.961  19.884   5.787 -0.2921  0.0090 -0.1126
 3288POPC   C3A77424  19.785  19.904   6.222  0.2968 -0.2004  0.0456
 3288POPC   C4A77425  19.538  20.098   6.666  0.0252  0.0808  0.0840
 3288POPC   C1B77426  20.772  19.543   6.089 -0.2641  0.1316 -0.1283
 3288POPC   C2B77427  20.670  19.501   6.503  0.0857  0.2066  0.1772
 3288POPC   C3B77428  20.561  19.261   6.835  0.0611 -0.1600 -0.2274
 3288POPC   C4B77429  20.238  19.012   6.838  0.0176  0.0112  0.4428
 3289POPC   NC377430  16.311  27.370   4.438  0.1777  0.0427 -0.2572
 3289POPC   PO477431  16.698  27.549   4.377 -0.0984  0.1612  0.1357
 3289POPC   GL177432  16.564  27.696   4.759 -0.0673 -0.1046  0.0205
 3289POPC   GL277433  16.470  27.450   4.996 -0.1278  0.1886 -0.2139
 3289POPC   C1A77434  16.854  27.937   4.997  0.0256  0.0994  0.2963
 3289POPC   D2A77435  17.007  28.227   5.369 -0.2122  0.0338  0.3015
 3289POPC   C3A77436  17.165  27.890   5.623 -0.0362  0.1413 -0.1107
 3289POPC   C4A77437  17.204  27.644   5.983 -0.3028 -0.1829  0.1218
 3289POPC   C1B77438  16.432  27.754   5.298  0.4031  0.0513  0.0308
 3289POPC   C2B77439  16.639  27.981   5.635 -0.3304  0.1457  0.1962
 3289POPC   C3B77440  16.790  28.108   6.057 -0.0168 -0.1445 -0.3888
 3289POPC   C4B77441  16.685  28.344   6.508 -0.0116 -0.0928  0.1213
 3290POPC   NC377442  26.245  20.925   8.107 -0.0718  0.3213  0.1726
 3290POPC   PO477443  25.806  20.978   8.064 -0.1038  0.1655 -0.1338
 3290POPC   GL177444  25.929  20.681   8.411 -0.0649  0.4084 -0.3470
 3290POPC   GL277445  25.728  20.642   8.462  0.1677 -0.0119  0.2290
 3290POPC   C1A77446  26.300  20.412   8.496 -0.1283 -0.3145  0.4265
 3290POPC   D2A77447  26.483  20.240   8.888 -0.1308 -0.2110 -0.0754
 3290POPC   C3A77448  26.195  19.861   9.066  0.2288  0.2124 -0.0363
 3290POPC   C4A77449  26.027  19.468   9.245 -0.2643  0.0124 -0.0212
 3290POPC   C1B77450  25.799  20.166   8.332  0.0760  0.1745  0.0331
 3290POPC   C2B77451  25.812  19.691   8.413 -0.1864 -0.0429  0.2508
 3290POPC   C3B77452  26.012  19.246   8.347  0.2227  0.2183 -0.0535
 3290POPC   C4B77453  26.377  19.030   8.414  0.0922  0.1434  0.0353
 3291POPC   NC377454  24.819  23.760   8.828  0.0395  0.0276  0.2284
 3291POPC   PO477455  24.921  24.035   8.565  0.2058  0.1271  0.3139
 3291POPC   GL177456  24.751  24.273   8.812  0.0414 -0.1572 -0.0715
 3291POPC   GL277457  24.915  24.449   8.943 -0.2728  0.1594  0.0370
 3291POPC   C1A77458  24.420  24.571   8.938 -0.0464  0.3099 -0.0358
 3291POPC   D2A77459  23.949  24.623   8.916 -0.0571  0.0655  0.2795
 3291POPC   C3A77460  23.808  24.450   9.301  0.1086 -0.0486  0.0878
 3291POPC   C4A77461  23.758  24.188   9.691  0.0597 -0.1940  0.0450
 3291POPC   C1B77462  24.791  24.606   9.318  0.1305 -0.0259 -0.0697
 3291POPC   C2B77463  24.401  24.812   9.428  0.0893 -0.1879  0.1052
 3291POPC   C3B77464  24.032  24.989   9.413  0.1937  0.1950  0.3177
 3291POPC   C4B77465  23.611  25.119   9.403 -0.1928  0.2298  0.0038
 3292POPC   NC377466  32.101  21.760   4.901  0.0804 -0.1176  0.0747
 3292POPC   PO477467  32.138  22.085   5.107 -0.1534  0.1377 -0.3499
 3292POPC   GL177468  32.428  22.193   5.382  0.2238  0.1285  0.2320
 3292POPC   GL277469  32.611  22.462   5.356 -0.2388 -0.0012  0.0018
 3292POPC   C1A77470  32.782  21.929   5.419 -0.2841  0.1477 -0.1673
 3292POPC   D2A77471  32.857  21.500   5.490 -0.0162 -0.2309  0.0681
 3292POPC   C3A77472  32.929  21.240   5.866 -0.0010 -0.1467 -0.1952
 3292POPC   C4A77473  33.149  21.001   6.279  0.0079 -0.2544  0.2079
 3292POPC   C1B77474  32.610  22.323   5.795  0.1525  0.0566  0.2726
 3292POPC   C2B77475  32.629  22.178   6.212  0.0843  0.0099 -0.0928
 3292POPC   C3B77476  32.700  22.486   6.559  0.0540  0.1288 -0.0725
 3292POPC   C4B77477  32.645  22.763   6.918  0.0850  0.3407  0.2232
 3293POPC   NC377478  26.900  30.254   4.571 -0.1508  0.1291  0.1569
 3293POPC   PO477479  27.299  30.183   4.536 -0.1154  0.1407 -0.0499
 3293POPC   GL177480  27.232  30.035   4.876 -0.3594 -0.0472  0.1808
 3293POPC   GL277481  27.040  30.128   5.041 -0.2119  0.2141  0.0375
 3293POPC   C1A77482  27.465  29.633   5.028 -0.2326 -0.0775 -0.0750
 3293POPC   D2A77483  27.793  29.388   5.252  0.0009  0.2374 -0.2172
 3293POPC   C3A77484  28.021  29.627   5.579 -0.1548  0.1012 -0.2896
 3293POPC   C4A77485  28.033  29.727   6.014 -0.0495 -0.0726  0.1581
 3293POPC   C1B77486  27.395  30.292   5.292  0.0423  0.3472  0.2461
 3293POPC   C2B77487  27.721  29.997   5.447  0.2210  0.1188  0.2093
 3293POPC   C3B77488  28.066  30.142   5.707  0.1683  0.1174 -0.4039
 3293POPC   C4B77489  28.341  30.331   6.098 -0.0369  0.3376  0.0392
 3294POPC   NC377490  25.389  22.449  12.615 -0.0499  0.0029  0.3794
 3294POPC   PO477491  25.716  22.366  12.395 -0.0503  0.0724  0.2218
 3294POPC   GL177492  25.526  22.037  12.439 -0.2979  0.0261  0.0007
 3294POPC   GL277493  25.653  21.746  12.467 -0.0882 -0.1771  0.0094
 3294POPC   C1A77494  25.074  22.007  12.491 -0.0189 -0.2294  0.0261
 3294POPC   D2A77495  24.826  21.883  12.124 -0.0760  0.0955 -0.4479
 3294POPC   C3A77496  24.668  22.071  11.798 -0.0456  0.0877  0.0142
 3294POPC   C4A77497  24.213  22.015  11.672 -0.0313 -0.0979 -0.0798
 3294POPC   C1B77498  25.777  21.300  12.287  0.4106  0.2740  0.1779
 3294POPC   C2B77499  25.749  20.915  12.186  0.3537 -0.0037  0.1932
 3294POPC   C3B77500  25.622  20.674  11.782  0.1363 -0.0016 -0.0057
 3294POPC   C4B77501  25.508  20.530  11.361 -0.1548  0.0500  0.1033
 3295POPC   NC377502  20.212  29.611   3.958  0.2423  0.3703 -0.2042
 3295POPC   PO477503  20.131  29.623   3.551  0.0139  0.1575  0.0520
 3295POPC   GL177504  19.774  29.498   3.790 -0.0834 -0.0035 -0.2052
 3295POPC   GL277505  19.575  29.710   3.870  0.0881  0.2999  0.0251
 3295POPC   C1A77506  19.609  29.150   4.069  0.0174 -0.1833  0.0516
 3295POPC   D2A77507  19.645  28.824   4.305 -0.4075 -0.0578 -0.0537
 3295POPC   C3A77508  19.990  28.802   4.582  0.3364  0.1986  0.0337
 3295POPC   C4A77509  20.447  28.830   4.577  0.0349 -0.0252  0.0151
 3295POPC   C1B77510  19.815  29.795   4.190  0.2447  0.1085 -0.1098
 3295POPC   C2B77511  19.939  29.675   4.597  0.1078 -0.1362 -0.3796
 3295POPC   C3B77512  19.918  29.476   5.058 -0.0149  0.1841  0.0065
 3295POPC   C4B77513  19.975  29.285   5.459 -0.1992  0.2141  0.1114
 3296POPC   NC377514  28.254  20.080   6.024  0.0892  0.0883  0.3552
 3296POPC   PO477515  28.249  20.382   6.262 -0.2505 -0.0761  0.2576
 3296POPC   GL177516  28.478  20.196   6.537  0.0872  0.0546  0.0041
 3296POPC   GL277517  28.282  19.967   6.586 -0.1459  0.1093  0.2899
 3296POPC   C1A77518  28.881  20.050   6.660  0.1968 -0.1824 -0.1837
 3296POPC   D2A77519  29.258  19.743   6.830  0.3281 -0.0683 -0.0358
 3296POPC   C3A77520  29.350  19.906   7.289 -0.2189 -0.1570  0.0094
 3296POPC   C4A77521  29.199  19.861   7.661 -0.1023 -0.0338  0.0740
 3296POPC   C1B77522  28.351  19.745   7.022 -0.3316  0.4320 -0.2663
 3296POPC   C2B77523  28.417  19.461   7.407 -0.1539 -0.1762  0.1335
 3296POPC   C3B77524  28.509  19.525   7.870 -0.5840 -0.1447 -0.1681
 3296POPC   C4B77525  28.650  19.553   8.320  0.1634 -0.0984  0.1960
 3297POPC   NC377526  25.153  27.008   5.721 -0.1363  0.0070  0.3273
 3297POPC   PO477527  24.752  27.075   5.633 -0.0078  0.1195  0.2223
 3297POPC   GL177528  24.760  27.010   6.053  0.1200 -0.2702 -0.1945
 3297POPC   GL277529  24.873  26.763   6.111  0.1779 -0.0907  0.0651
 3297POPC   C1A77530  24.508  27.039   6.472  0.3540  0.0872 -0.1288
 3297POPC   D2A77531  24.255  27.339   6.749  0.0459 -0.0219  0.0558
 3297POPC   C3A77532  24.030  27.272   7.124 -0.0297 -0.1418  0.0879
 3297POPC   C4A77533  24.066  27.072   7.560 -0.3367  0.1933 -0.0860
 3297POPC   C1B77534  24.862  26.708   6.564 -0.1394  0.0973 -0.0136
 3297POPC   C2B77535  24.936  26.976   6.892  0.0102  0.0263  0.0606
 3297POPC   C3B77536  24.754  27.092   7.330  0.0890 -0.1334  0.0284
 3297POPC   C4B77537  24.520  26.909   7.659 -0.1824  0.0924  0.1850
 3298POPC   NC377538  26.741  21.111   8.566 -0.1374  0.0236 -0.0347
 3298POPC   PO477539  26.351  21.201   8.541 -0.0738  0.0937  0.2230
 3298POPC   GL177540  26.284  20.849   8.688  0.1050 -0.0079 -0.0960
 3298POPC   GL277541  26.033  20.925   8.792  0.0937  0.0389  0.0743
 3298POPC   C1A77542  26.598  20.699   8.918 -0.2260 -0.1542  0.0845
 3298POPC   D2A77543  27.009  20.854   8.982  0.2316 -0.0888 -0.2789
 3298POPC   C3A77544  27.193  20.878   9.385 -0.0254 -0.4501 -0.2086
 3298POPC   C4A77545  27.486  21.077   9.737  0.1645  0.1213  0.0187
 3298POPC   C1B77546  25.936  20.500   8.888 -0.0545  0.2811  0.0594
 3298POPC   C2B77547  25.663  20.156   8.856  0.4858  0.2142 -0.0234
 3298POPC   C3B77548  25.646  19.710   8.929  0.1320 -0.3059 -0.1536
 3298POPC   C4B77549  25.337  19.438   9.004 -0.0727 -0.4939  0.2709
 3299POPC   NC377550  25.630  21.123   7.527  0.3223 -0.0075 -0.2385
 3299POPC   PO477551  25.306  21.058   7.769  0.1122 -0.2099 -0.0357
 3299POPC   GL177552  24.917  21.027   7.807  0.1673  0.1464 -0.3234
 3299POPC   GL277553  24.892  21.126   8.062 -0.3579  0.1620 -0.0760
 3299POPC   C1A77554  24.721  20.627   8.022 -0.2209  0.3217  0.0094
 3299POPC   D2A77555  24.555  20.171   7.836  0.0372 -0.2912 -0.1675
 3299POPC   C3A77556  24.200  19.961   7.977 -0.0107 -0.0998 -0.1678
 3299POPC   C4A77557  23.738  19.793   8.141 -0.2250 -0.2113  0.4261
 3299POPC   C1B77558  24.776  20.963   8.458 -0.5022  0.1056  0.2586
 3299POPC   C2B77559  24.742  20.565   8.743 -0.2472 -0.1492  0.5375
 3299POPC   C3B77560  24.856  20.191   9.039 -0.3237 -0.1308  0.0303
 3299POPC   C4B77561  25.195  19.906   9.164  0.4358  0.1306  0.0620
 3300POPC   NC377562  26.119   0.657   5.095  0.0123 -0.2292  0.0386
 3300POPC   PO477563  26.263   0.365   5.295  0.0540  0.0726  0.3132
 3300POPC   GL177564  26.359   0.311   5.693 -0.2410  0.2104  0.2972
 3300POPC   GL277565  26.131   0.196   5.778  0.0535  0.2034 -0.0383
 3300POPC   C1A77566  26.664   0.102   5.946 -0.0793 -0.0340  0.0743
 3300POPC   D2A77567  26.989   0.138   6.233  0.1237  0.0132 -0.0764
 3300POPC   C3A77568  27.361   0.115   6.530 -0.0890  0.0245 -0.1134
 3300POPC   C4A77569  27.307  -0.076   6.941 -0.3223 -0.1396  0.2730
 3300POPC   C1B77570  26.272   0.107   6.225  0.0529  0.3372  0.0792
 3300POPC   C2B77571  26.294   0.127   6.698  0.1720  0.1611  0.0519
 3300POPC   C3B77572  26.446   0.217   7.153  0.1104  0.0851  0.2170
 3300POPC   C4B77573  26.208   0.408   7.569 -0.0842  0.0744  0.0047
 3301POPC   NC377574  24.815  19.435   5.923 -0.0692 -0.0047 -0.1975
 3301POPC   PO477575  24.807  19.321   6.270 -0.3158 -0.0646 -0.0886
 3301POPC   GL177576  24.985  19.071   6.520 -0.0321 -0.0534  0.1967
 3301POPC   GL277577  24.782  19.083   6.713  0.0282 -0.2551  0.0332
 3301POPC   C1A77578  25.130  18.856   6.932  0.0436  0.0768  0.1539
 3301POPC   D2A77579  25.153  18.539   7.262  0.2746  0.1868  0.0494
 3301POPC   C3A77580  25.055  18.317   7.640 -0.1051 -0.1114 -0.0097
 3301POPC   C4A77581  25.130  17.978   7.926 -0.0843 -0.0027 -0.0471
 3301POPC   C1B77582  24.756  19.093   7.239  0.2078 -0.2101  0.2681
 3301POPC   C2B77583  24.608  18.951   7.641  0.2534 -0.2082 -0.2620
 3301POPC   C3B77584  24.708  18.703   8.008  0.1388  0.3270 -0.0162
 3301POPC   C4B77585  24.855  18.426   8.375  0.0529  0.0271 -0.3860
 3302POPC   NC377586  20.364  31.482   4.046  0.2820  0.0871  0.0275
 3302POPC   PO477587  20.718  31.623   4.136  0.1178  0.2193  0.0352
 3302POPC   GL177588  20.559  31.439   4.478  0.2268 -0.0515 -0.2962
 3302POPC   GL277589  20.621  31.665   4.680  0.1008  0.1934  0.4118
 3302POPC   C1A77590  20.586  31.141   4.811 -0.0087 -0.0703 -0.2463
 3302POPC   D2A77591  20.618  30.965   5.232 -0.1104  0.0127  0.2148
 3302POPC   C3A77592  20.671  31.242   5.528 -0.0257 -0.1556 -0.2959
 3302POPC   C4A77593  20.933  31.621   5.606  0.0107 -0.0475 -0.1253
 3302POPC   C1B77594  20.521  31.958   4.968 -0.1598 -0.2115  0.0073
 3302POPC   C2B77595  20.563  31.890   5.403  0.2911 -0.2629  0.0029
 3302POPC   C3B77596  20.508  31.695   5.824 -0.1653  0.0934 -0.0500
 3302POPC   C4B77597  20.782  31.402   6.084  0.1376  0.0292  0.0938
 3303POPC   NC377598  30.826  29.004   4.014  0.1272  0.1965  0.1536
 3303POPC   PO477599  30.909  28.806   4.371  0.3275 -0.1718  0.3004
 3303POPC   GL177600  31.113  28.847   4.697  0.0502 -0.3982 -0.2710
 3303POPC   GL277601  30.848  28.922   4.885 -0.0276 -0.1220 -0.0011
 3303POPC   C1A77602  31.496  28.724   5.051  0.0678  0.2209  0.1776
 3303POPC   D2A77603  31.783  28.484   5.307  0.0007 -0.2204  0.0411
 3303POPC   C3A77604  32.100  28.505   5.609  0.1500  0.1749  0.0846
 3303POPC   C4A77605  32.091  28.696   6.067 -0.0052 -0.1123  0.1085
 3303POPC   C1B77606  30.749  29.297   5.111 -0.2646 -0.0128  0.1764
 3303POPC   C2B77607  30.862  29.658   5.371 -0.1406 -0.0868 -0.0642
 3303POPC   C3B77608  30.999  29.687   5.811  0.1758 -0.0327  0.1340
 3303POPC   C4B77609  31.116  29.522   6.196  0.0377 -0.0446  0.0236
 3304POPC   NC377610  19.622  19.325   4.563 -0.0315 -0.1630  0.1104
 3304POPC   PO477611  19.262  19.187   4.591 -0.1432  0.0793  0.0665
 3304POPC   GL177612  19.246  19.011   4.934 -0.3398 -0.1304 -0.1011
 3304POPC   GL277613  19.248  18.724   4.973 -0.3296  0.1179 -0.3524
 3304POPC   C1A77614  19.014  19.282   5.269 -0.0967  0.2786  0.0659
 3304POPC   D2A77615  18.799  19.438   5.642  0.0504 -0.0691 -0.1845
 3304POPC   C3A77616  18.509  19.654   5.962  0.1116 -0.0867 -0.1359
 3304POPC   C4A77617  18.321  20.047   6.253  0.1339 -0.1746  0.0658
 3304POPC   C1B77618  19.466  18.964   5.312  0.1167 -0.0138  0.2467
 3304POPC   C2B77619  19.604  19.135   5.702 -0.1233  0.1560 -0.1295
 3304POPC   C3B77620  19.854  19.465   5.886  0.0098 -0.0252 -0.0908
 3304POPC   C4B77621  20.206  19.637   6.116 -0.1074  0.1600 -0.3404
 3305POPC   NC377622  25.716  21.453   9.895 -0.0556  0.0464 -0.0022
 3305POPC   PO477623  26.096  21.504   9.857 -0.2402 -0.0264  0.1563
 3305POPC   GL177624  26.044  21.191   9.651 -0.1131 -0.2816 -0.3464
 3305POPC   GL277625  26.210  21.187   9.395 -0.0824  0.3639  0.1855
 3305POPC   C1A77626  26.019  20.731   9.714 -0.0830  0.1672  0.0882
 3305POPC   D2A77627  25.771  20.444   9.975  0.2567  0.3085 -0.1594
 3305POPC   C3A77628  25.578  20.076   9.856 -0.0057 -0.1694 -0.1335
 3305POPC   C4A77629  25.220  19.855   9.659  0.0907  0.0691 -0.1824
 3305POPC   C1B77630  26.227  20.738   9.268 -0.0691 -0.0074 -0.3722
 3305POPC   C2B77631  26.063  20.276   9.365  0.2867 -0.0702  0.5038
 3305POPC   C3B77632  25.666  20.044   9.368 -0.4454  0.0396  0.0411
 3305POPC   C4B77633  25.581  19.544   9.475 -0.1472 -0.0362  0.2678
 3306POPC   NC377634  28.675  22.824   7.355  0.0189  0.1559  0.1409
 3306POPC   PO477635  29.014  22.950   7.224  0.1349  0.1062 -0.1896
 3306POPC   GL177636  29.344  22.845   7.420  0.0373 -0.3315  0.2327
 3306POPC   GL277637  29.372  23.066   7.549  0.2413  0.0141 -0.0488
 3306POPC   C1A77638  29.684  22.568   7.643  0.1846  0.0461  0.0303
 3306POPC   D2A77639  29.766  22.266   8.002  0.2074 -0.1759  0.2657
 3306POPC   C3A77640  29.828  22.363   8.429  0.0527 -0.0963 -0.1883
 3306POPC   C4A77641  30.042  22.398   8.890  0.3903  0.2661 -0.0836
 3306POPC   C1B77642  29.541  23.311   7.913 -0.0593  0.0799  0.4646
 3306POPC   C2B77643  29.614  23.621   8.271  0.1364 -0.0671  0.0260
 3306POPC   C3B77644  29.787  23.579   8.667 -0.2102  0.0633 -0.0935
 3306POPC   C4B77645  29.924  23.849   8.984  0.0281  0.3428  0.3047
 3307POPC   NC377646  29.207  24.123   7.017 -0.0311  0.4502  0.1348
 3307POPC   PO477647  29.218  24.466   6.803  0.0644  0.0854  0.3937
 3307POPC   GL177648  29.400  24.597   7.037 -0.0579 -0.2862 -0.5064
 3307POPC   GL277649  29.322  24.621   7.329  0.0369  0.2227 -0.1665
 3307POPC   C1A77650  29.620  25.005   7.122 -0.2773  0.3031 -0.0689
 3307POPC   D2A77651  29.761  25.203   7.512  0.0218 -0.4256  0.1432
 3307POPC   C3A77652  29.654  25.229   7.924 -0.2196 -0.1214 -0.0875
 3307POPC   C4A77653  29.595  25.434   8.294  0.3952  0.0853  0.2727
 3307POPC   C1B77654  29.481  24.793   7.729  0.0833 -0.1686  0.2778
 3307POPC   C2B77655  29.701  24.672   8.120  0.0580 -0.0347 -0.1205
 3307POPC   C3B77656  30.104  24.537   8.201 -0.1584  0.1396 -0.4165
 3307POPC   C4B77657  30.548  24.542   8.416  0.1308 -0.0256  0.2085
 3308POPC   NC377658  18.272  17.358   4.272  0.0924 -0.3976 -0.1573
 3308POPC   PO477659  18.531  17.059   4.294  0.1148 -0.0542 -0.0860
 3308POPC   GL177660  18.368  16.868   4.613 -0.2698 -0.0036 -0.2567
 3308POPC   GL277661  18.143  16.994   4.719  0.3841  0.0258  0.3683
 3308POPC   C1A77662  18.246  16.413   4.587 -0.1832 -0.0465  0.0232
 3308POPC   D2A77663  18.097  16.066   4.781  0.0614  0.0746 -0.1729
 3308POPC   C3A77664  18.241  16.176   5.189  0.1943 -0.2061 -0.0856
 3308POPC   C4A77665  18.441  15.857   5.478 -0.0047 -0.0698 -0.0836
 3308POPC   C1B77666  17.956  16.629   4.969  0.1252  0.0323  0.3403
 3308POPC   C2B77667  17.839  16.462   5.371 -0.1538  0.1128 -0.1411
 3308POPC   C3B77668  17.523  16.227   5.686  0.1146 -0.2596  0.0806
 3308POPC   C4B77669  17.134  15.997   5.778  0.2272 -0.0626 -0.0972
 3309POPC   NC377670  31.735  22.331   5.256 -0.1637  0.0167 -0.1443
 3309POPC   PO477671  31.565  22.166   5.571  0.0230  0.1785 -0.1921
 3309POPC   GL177672  31.880  21.967   5.762  0.3518 -0.1426 -0.2336
 3309POPC   GL277673  32.096  22.072   5.673 -0.2657 -0.0020  0.0830
 3309POPC   C1A77674  32.125  21.869   6.149  0.3654  0.1070 -0.1355
 3309POPC   D2A77675  32.243  21.642   6.519  0.0801  0.1223 -0.0573
 3309POPC   C3A77676  32.588  21.857   6.727  0.1646 -0.0060  0.0689
 3309POPC   C4A77677  32.656  22.205   7.046  0.0666 -0.1452  0.2992
 3309POPC   C1B77678  32.444  21.854   5.793 -0.1774  0.1042 -0.1407
 3309POPC   C2B77679  32.862  21.884   5.888 -0.1975 -0.2710 -0.0087
 3309POPC   C3B77680  33.213  21.812   6.123  0.0759 -0.0126 -0.2364
 3309POPC   C4B77681  33.460  21.797   6.461  0.0075  0.2420  0.1293
 3310POPC   NC377682  24.017  23.974   6.990 -0.2170 -0.0890  0.2080
 3310POPC   PO477683  23.867  23.751   7.272  0.3093 -0.0170  0.1006
 3310POPC   GL177684  23.686  23.864   7.604  0.1963  0.1545  0.0469
 3310POPC   GL277685  23.401  23.876   7.545  0.1465  0.3033 -0.1070
 3310POPC   C1A77686  23.617  24.203   7.894 -0.2225  0.0121  0.0964
 3310POPC   D2A77687  23.362  24.458   8.156 -0.1634 -0.1445 -0.0821
 3310POPC   C3A77688  23.206  24.512   8.579  0.2854  0.0283 -0.0741
 3310POPC   C4A77689  23.042  24.771   8.910  0.2487 -0.2415  0.1101
 3310POPC   C1B77690  23.079  24.185   7.738  0.1147  0.0382  0.1598
 3310POPC   C2B77691  22.681  24.287   7.906  0.3229 -0.1162  0.2094
 3310POPC   C3B77692  22.498  24.375   8.331  0.0246 -0.0542 -0.0066
 3310POPC   C4B77693  22.171  24.160   8.604 -0.2162 -0.2489 -0.0178
 3311POPC   NC377694  26.861  32.398   4.423 -0.1052  0.0479  0.1478
 3311POPC   PO477695  27.014  32.106   4.677  0.3925 -0.0578  0.0082
 3311POPC   GL177696  27.185  32.271   5.087  0.0268 -0.2858 -0.1392
 3311POPC   GL277697  27.308  32.497   5.151 -0.2978 -0.2947  0.2174
 3311POPC   C1A77698  26.929  32.404   5.462  0.0995 -0.0696  0.1586
 3311POPC   D2A77699  26.934  32.569   5.867  0.1423 -0.0751 -0.1160
 3311POPC   C3A77700  26.708  32.407   6.260  0.0771  0.0664 -0.1277
 3311POPC   C4A77701  26.444  32.069   6.483  0.0982 -0.0560  0.0397
 3311POPC   C1B77702  27.419  32.305   5.526 -0.0312 -0.1524  0.0469
 3311POPC   C2B77703  27.307  32.027   5.825  0.0448 -0.3669 -0.4102
 3311POPC   C3B77704  27.406  32.033   6.277  0.1508 -0.1064  0.0723
 3311POPC   C4B77705  27.439  31.915   6.722  0.0115  0.1736 -0.1918
 3312POPC   NC377706  23.597  23.857   6.289  0.1897  0.0168 -0.1956
 3312POPC   PO477707  23.642  24.128   6.580 -0.3944 -0.1374  0.0830
 3312POPC   GL177708  23.538  24.322   6.805 -0.2879  0.5101 -0.2746
 3312POPC   GL277709  23.576  24.180   7.081  0.1787 -0.1540  0.4131
 3312POPC   C1A77710  23.251  24.604   6.986 -0.0770  0.1736 -0.1301
 3312POPC   D2A77711  23.213  25.011   7.214  0.0047 -0.2952 -0.1078
 3312POPC   C3A77712  22.794  25.035   7.403  0.1740 -0.0745  0.2068
 3312POPC   C4A77713  22.328  25.039   7.636 -0.1916  0.2099 -0.0478
 3312POPC   C1B77714  23.464  24.422   7.449  0.3494  0.1071 -0.0484
 3312POPC   C2B77715  23.065  24.674   7.637 -0.0972 -0.2787 -0.0422
 3312POPC   C3B77716  22.814  24.755   8.039  0.1920 -0.0676  0.0383
 3312POPC   C4B77717  22.399  24.986   8.159 -0.2076 -0.0448  0.1270
 3313POPC   NC377718  16.277  19.758   4.698 -0.0365 -0.0905  0.0858
 3313POPC   PO477719  16.633  19.830   4.609 -0.2219 -0.0227  0.1106
 3313POPC   GL177720  16.594  19.628   4.984  0.1155 -0.1708 -0.1740
 3313POPC   GL277721  16.822  19.777   5.052  0.2321  0.2625  0.2589
 3313POPC   C1A77722  16.496  19.835   5.410 -0.0703 -0.0378 -0.0528
 3313POPC   D2A77723  16.605  19.820   5.859  0.5982  0.0236 -0.0032
 3313POPC   C3A77724  16.608  19.683   6.318 -0.0207 -0.4401 -0.0471
 3313POPC   C4A77725  16.833  19.337   6.431  0.0437  0.1924  0.3048
 3313POPC   C1B77726  17.014  19.769   5.431  0.0211 -0.0154  0.0737
 3313POPC   C2B77727  17.075  19.585   5.858  0.0684  0.1039  0.1977
 3313POPC   C3B77728  17.081  19.118   5.955 -0.2880  0.0955  0.0456
 3313POPC   C4B77729  17.293  18.742   5.947  0.1482 -0.3638 -0.0729
 3314POPC   NC377730  24.770  20.073   7.277 -0.0134  0.0998  0.0855
 3314POPC   PO477731  24.912  19.765   7.035  0.0407 -0.0868 -0.2684
 3314POPC   GL177732  25.124  19.498   7.263 -0.0631 -0.1250  0.0844
 3314POPC   GL277733  24.925  19.487   7.500 -0.0053  0.2091  0.1664
 3314POPC   C1A77734  25.494  19.441   7.579 -0.0298 -0.0672  0.1643
 3314POPC   D2A77735  25.768  19.086   7.673  0.0481  0.0370  0.1079
 3314POPC   C3A77736  25.998  18.904   7.976  0.1188  0.2007 -0.0048
 3314POPC   C4A77737  26.274  18.572   8.052 -0.0152 -0.0266 -0.2689
 3314POPC   C1B77738  24.932  19.294   7.873  0.1473  0.1576 -0.0349
 3314POPC   C2B77739  25.036  19.085   8.274  0.3305 -0.1210 -0.1630
 3314POPC   C3B77740  25.179  18.848   8.609  0.0302 -0.0768 -0.2460
 3314POPC   C4B77741  25.306  18.735   9.066  0.2641  0.1095 -0.0113
 3315POPC   NC377742  28.645  21.450   7.627  0.0039  0.0558  0.3762
 3315POPC   PO477743  28.239  21.436   7.575  0.1331  0.0063 -0.1821
 3315POPC   GL177744  28.342  21.126   7.745  0.0375 -0.0889  0.1397
 3315POPC   GL277745  28.052  21.078   7.924  0.0813 -0.1628 -0.0430
 3315POPC   C1A77746  28.415  20.669   7.731 -0.2124  0.1035 -0.1192
 3315POPC   D2A77747  28.259  20.246   7.815 -0.1146 -0.2152 -0.0234
 3315POPC   C3A77748  28.308  19.975   8.186 -0.1433  0.3567 -0.0967
 3315POPC   C4A77749  28.340  19.741   8.600  0.2566  0.1454 -0.0067
 3315POPC   C1B77750  28.409  20.921   8.203 -0.0177  0.2575 -0.0082
 3315POPC   C2B77751  28.610  20.732   8.584  0.1105 -0.0188 -0.2316
 3315POPC   C3B77752  28.722  20.586   9.051  0.2851  0.0966  0.5080
 3315POPC   C4B77753  28.626  20.784   9.463  0.2979  0.2128  0.0613
 3316POPC   NC377754  27.776  32.379   4.110 -0.3016  0.0303  0.0857
 3316POPC   PO477755  27.793  32.064   4.368 -0.1882  0.0519 -0.2465
 3316POPC   GL177756  27.871  32.204   4.756  0.0843  0.4448  0.0728
 3316POPC   GL277757  27.746  32.383   4.984  0.4133  0.1654  0.2642
 3316POPC   C1A77758  28.190  32.176   5.085 -0.0784 -0.0086  0.1182
 3316POPC   D2A77759  28.381  32.132   5.525 -0.1808  0.0581 -0.3732
 3316POPC   C3A77760  28.714  32.434   5.678  0.1478 -0.3053  0.0087
 3316POPC   C4A77761  29.037  32.643   5.926  0.0503  0.1725 -0.2728
 3316POPC   C1B77762  27.787  32.014   5.248  0.1625  0.1558 -0.0436
 3316POPC   C2B77763  27.912  31.954   5.689 -0.1427  0.0031 -0.3758
 3316POPC   C3B77764  28.231  31.982   6.053 -0.3103 -0.1385 -0.0907
 3316POPC   C4B77765  28.424  32.185   6.472 -0.3242  0.4316  0.1891
 3317POPC   NC377766  16.730  29.105   4.452  0.0256 -0.0217 -0.3043
 3317POPC   PO477767  17.049  29.170   4.239  0.0021  0.2172  0.1888
 3317POPC   GL177768  17.206  29.413   4.484 -0.0404  0.3698 -0.0234
 3317POPC   GL277769  17.464  29.337   4.482  0.2109  0.4965 -0.2190
 3317POPC   C1A77770  17.200  29.500   4.939 -0.2349  0.2253 -0.2501
 3317POPC   D2A77771  17.397  29.373   5.391 -0.1544 -0.2699 -0.0532
 3317POPC   C3A77772  17.429  29.103   5.715  0.2442 -0.0108 -0.1539
 3317POPC   C4A77773  17.287  28.795   5.997  0.0094  0.1075 -0.0236
 3317POPC   C1B77774  17.491  29.076   4.867  0.2081  0.0743  0.0798
 3317POPC   C2B77775  17.628  28.959   5.274  0.2372  0.2058 -0.0992
 3317POPC   C3B77776  17.643  28.643   5.641 -0.1420  0.3141 -0.0321
 3317POPC   C4B77777  17.681  28.539   6.083  0.0635 -0.0591  0.2464
 3318POPC   NC377778  24.400  21.434   8.122  0.1426  0.3925 -0.0905
 3318POPC   PO477779  24.697  21.659   8.274 -0.0526 -0.1760 -0.1641
 3318POPC   GL177780  24.637  21.411   8.523  0.1124  0.0215  0.5626
 3318POPC   GL277781  24.355  21.479   8.619 -0.1131  0.3394  0.2383
 3318POPC   C1A77782  24.547  21.118   8.867  0.0204 -0.0284  0.0112
 3318POPC   D2A77783  24.507  21.076   9.318  0.3096 -0.2555 -0.0531
 3318POPC   C3A77784  24.245  21.239   9.640  0.0643 -0.1958 -0.1760
 3318POPC   C4A77785  23.912  21.209   9.955  0.4025 -0.1825 -0.0425
 3318POPC   C1B77786  24.116  21.446   8.978  0.2881  0.4037  0.0467
 3318POPC   C2B77787  23.959  21.055   9.138 -0.2586 -0.1374  0.1544
 3318POPC   C3B77788  23.731  20.662   9.133 -0.2655 -0.0076 -0.1447
 3318POPC   C4B77789  23.482  20.355   9.266  0.1941  0.2779  0.1353
 3319POPC   NC377790  23.938  24.780   6.716 -0.0792 -0.2333  0.4316
 3319POPC   PO477791  24.010  24.412   6.827  0.0242 -0.2516  0.1079
 3319POPC   GL177792  23.850  24.522   7.217  0.4049 -0.3364 -0.1857
 3319POPC   GL277793  23.698  24.786   7.235 -0.5449 -0.5714 -0.1413
 3319POPC   C1A77794  23.897  24.599   7.740  0.1175 -0.0525  0.2870
 3319POPC   D2A77795  23.816  24.850   8.095  0.0367  0.0883  0.2636
 3319POPC   C3A77796  23.750  25.270   8.021  0.0862  0.1009 -0.1176
 3319POPC   C4A77797  23.877  25.489   7.654 -0.0528  0.1725  0.0854
 3319POPC   C1B77798  23.544  24.945   7.617 -0.1202 -0.0148  0.1118
 3319POPC   C2B77799  23.280  24.995   7.991 -0.0129  0.1926  0.2673
 3319POPC   C3B77800  22.983  25.149   8.310  0.0511 -0.1955  0.1629
 3319POPC   C4B77801  22.847  25.277   8.714 -0.0091  0.2879 -0.0335
 3320POPC   NC377802  17.740  27.875   4.162 -0.2661  0.0328  0.1314
 3320POPC   PO477803  17.565  27.524   4.082  0.0835  0.0694  0.3369
 3320POPC   GL177804  17.472  27.704   4.474 -0.1764 -0.3230 -0.2326
 3320POPC   GL277805  17.258  27.938   4.564 -0.0920 -0.0174 -0.1507
 3320POPC   C1A77806  17.763  28.007   4.704  0.1437  0.4738 -0.1316
 3320POPC   D2A77807  17.874  27.953   5.156 -0.1024 -0.0011 -0.5856
 3320POPC   C3A77808  18.058  28.277   5.481  0.0267 -0.1293 -0.1242
 3320POPC   C4A77809  18.113  28.249   5.945  0.0129 -0.0336 -0.0813
 3320POPC   C1B77810  17.381  28.003   5.064 -0.0873  0.0909 -0.0323
 3320POPC   C2B77811  17.505  28.216   5.463  0.0312  0.0526 -0.0233
 3320POPC   C3B77812  17.426  28.201   5.899  0.1527  0.2435 -0.2359
 3320POPC   C4B77813  17.197  28.390   6.305 -0.0940  0.3218  0.2676
 3321POPC   NC377814  19.775  21.267   4.963  0.0130 -0.1568 -0.0390
 3321POPC   PO477815  19.581  21.509   5.170  0.5030  0.0532  0.0585
 3321POPC   GL177816  19.370  21.516   5.488  0.3766 -0.2983 -0.1017
 3321POPC   GL277817  19.130  21.449   5.460  0.2568 -0.3328  0.0084
 3321POPC   C1A77818  19.307  21.504   5.934 -0.2835  0.0078 -0.1701
 3321POPC   D2A77819  19.115  21.706   6.343 -0.1587  0.0422 -0.1254
 3321POPC   C3A77820  19.006  21.455   6.777 -0.1094 -0.0839  0.2647
 3321POPC   C4A77821  18.685  21.435   7.121  0.0396  0.1655  0.2615
 3321POPC   C1B77822  18.859  21.518   5.820  0.0274 -0.2252 -0.2302
 3321POPC   C2B77823  18.842  21.289   6.227 -0.1613  0.1320 -0.0016
 3321POPC   C3B77824  18.574  21.154   6.583  0.2644  0.1801 -0.0985
 3321POPC   C4B77825  18.254  21.180   6.903  0.2015 -0.0304  0.0123
 3322POPC   NC377826  28.604  23.566   7.709 -0.1024 -0.0082  0.2946
 3322POPC   PO477827  28.769  23.745   7.392 -0.2761 -0.4841  0.0670
 3322POPC   GL177828  29.147  23.616   7.645  0.0237 -0.1161 -0.2894
 3322POPC   GL277829  29.277  23.887   7.495  0.1448  0.2203 -0.0984
 3322POPC   C1A77830  29.176  23.900   8.013 -0.0981 -0.0934  0.0650
 3322POPC   D2A77831  29.261  23.968   8.482 -0.0977 -0.2308 -0.2001
 3322POPC   C3A77832  29.429  24.171   8.880  0.1807 -0.0508 -0.1575
 3322POPC   C4A77833  29.401  24.249   9.352 -0.0438  0.1343 -0.0239
 3322POPC   C1B77834  29.641  23.803   7.760  0.2101 -0.1459  0.0815
 3322POPC   C2B77835  30.019  23.752   8.024  0.0665  0.2136  0.1328
 3322POPC   C3B77836  30.279  24.082   8.259 -0.0924 -0.1019 -0.1678
 3322POPC   C4B77837  30.717  24.111   8.457  0.0738  0.1917 -0.3696
 3323POPC   NC377838  26.394  32.273   5.244 -0.1512  0.0654 -0.0067
 3323POPC   PO477839  26.533  32.001   4.961  0.0140  0.2427  0.1689
 3323POPC   GL177840  26.870  31.913   5.103 -0.2617  0.0144  0.1063
 3323POPC   GL277841  26.769  31.901   5.428 -0.1695  0.0618 -0.2005
 3323POPC   C1A77842  27.283  31.833   5.330  0.0673  0.0696 -0.1068
 3323POPC   D2A77843  27.586  31.635   5.546 -0.2387 -0.0859  0.0034
 3323POPC   C3A77844  27.645  31.635   6.021 -0.0560 -0.0165  0.0440
 3323POPC   C4A77845  27.766  31.687   6.424 -0.0660 -0.0898  0.0457
 3323POPC   C1B77846  27.033  31.602   5.716  0.1090 -0.1446  0.1298
 3323POPC   C2B77847  26.963  31.335   6.051  0.1939  0.1792 -0.1281
 3323POPC   C3B77848  26.833  31.141   6.441 -0.2726  0.1366  0.1489
 3323POPC   C4B77849  27.140  30.858   6.620 -0.1718  0.1806 -0.2828
 3324POPC   NC377850  30.996  23.987   5.846  0.1431  0.1282  0.2042
 3324POPC   PO477851  30.698  23.716   5.970  0.1571  0.0907 -0.0111
 3324POPC   GL177852  30.894  23.586   6.286  0.4740 -0.0173 -0.1370
 3324POPC   GL277853  30.694  23.670   6.544  0.3054 -0.0998 -0.1454
 3324POPC   C1A77854  31.267  23.703   6.492  0.0119  0.2981 -0.0511
 3324POPC   D2A77855  31.612  23.959   6.532 -0.0585 -0.2438 -0.0036
 3324POPC   C3A77856  31.958  24.145   6.793  0.0662 -0.2971 -0.1578
 3324POPC   C4A77857  32.154  24.122   7.188 -0.3586 -0.0252  0.1446
 3324POPC   C1B77858  31.019  23.815   6.923  0.0621 -0.0413  0.1751
 3324POPC   C2B77859  31.415  23.948   7.027 -0.1134  0.3211  0.1718
 3324POPC   C3B77860  31.526  23.969   7.476 -0.0092  0.0187 -0.0841
 3324POPC   C4B77861  31.926  24.056   7.697  0.0721 -0.1225  0.1972
 3325POPC   NC377862  16.509  22.024   4.627 -0.3133  0.3859  0.2993
 3325POPC   PO477863  16.281  22.173   4.910 -0.0647  0.2709 -0.2225
 3325POPC   GL177864  16.411  22.173   5.252  0.0736 -0.0275 -0.0081
 3325POPC   GL277865  16.155  22.192   5.371 -0.1674 -0.3756  0.0029
 3325POPC   C1A77866  16.518  21.894   5.622  0.2376  0.1030 -0.1887
 3325POPC   D2A77867  16.796  21.529   5.744  0.0844 -0.2193  0.0608
 3325POPC   C3A77868  17.183  21.503   6.082 -0.0027 -0.0344 -0.1509
 3325POPC   C4A77869  17.390  21.415   6.515 -0.2790  0.0858  0.0386
 3325POPC   C1B77870  16.106  22.106   5.807  0.0904 -0.2089  0.1414
 3325POPC   C2B77871  16.023  21.893   6.209  0.1162 -0.0404 -0.0360
 3325POPC   C3B77872  15.991  21.745   6.667  0.0425 -0.0068 -0.1518
 3325POPC   C4B77873  16.143  21.545   7.080 -0.0757 -0.2471 -0.0056
 3326POPC   NC377874  19.140  26.348   4.369  0.0523  0.3101  0.2056
 3326POPC   PO477875  19.296  26.031   4.481  0.1012  0.2745  0.3278
 3326POPC   GL177876  19.125  26.078   4.849 -0.0568  0.2364 -0.2238
 3326POPC   GL277877  18.957  26.258   4.889 -0.0181 -0.0850  0.0501
 3326POPC   C1A77878  19.270  26.344   5.226  0.1611 -0.1082  0.2594
 3326POPC   D2A77879  19.667  26.229   5.489  0.0026  0.0161 -0.1941
 3326POPC   C3A77880  19.971  26.571   5.650  0.0185  0.0878 -0.1543
 3326POPC   C4A77881  20.078  26.780   5.992 -0.0687 -0.1969 -0.1201
 3326POPC   C1B77882  18.824  26.614   5.161 -0.0429 -0.0312  0.2007
 3326POPC   C2B77883  18.675  26.842   5.598  0.0569 -0.1757 -0.0619
 3326POPC   C3B77884  18.549  26.906   6.074 -0.1799 -0.1001  0.3217
 3326POPC   C4B77885  18.677  27.030   6.526 -0.1571 -0.0018 -0.0797
 3327POPC   NC377886  27.445  22.681   9.960 -0.2612 -0.0980  0.0320
 3327POPC   PO477887  27.674  22.447  10.234 -0.0426 -0.1006  0.0648
 3327POPC   GL177888  28.082  22.264  10.280 -0.0949  0.1332 -0.0622
 3327POPC   GL277889  28.040  22.083  10.564 -0.0134 -0.0027 -0.0711
 3327POPC   C1A77890  28.350  21.895  10.186  0.1968 -0.1121 -0.1557
 3327POPC   D2A77891  28.711  21.700  10.381 -0.0628 -0.2656 -0.0990
 3327POPC   C3A77892  29.149  21.527  10.241  0.0455  0.1600 -0.1476
 3327POPC   C4A77893  29.456  21.338  10.033  0.0197  0.2788  0.2180
 3327POPC   C1B77894  28.200  21.709  10.751  0.2522 -0.1556 -0.2552
 3327POPC   C2B77895  28.586  21.452  10.862  0.0301 -0.3851  0.1423
 3327POPC   C3B77896  29.012  21.550  10.981  0.1335 -0.2009  0.3466
 3327POPC   C4B77897  29.395  21.276  10.911 -0.2929 -0.0263  0.3735
 3328POPC   NC377898  24.833  24.653   6.980  0.2858  0.1511 -0.2376
 3328POPC   PO477899  24.909  24.359   7.239 -0.4141  0.0663 -0.1194
 3328POPC   GL177900  25.160  24.649   7.369  0.2934  0.1951  0.0488
 3328POPC   GL277901  25.354  24.756   7.511  0.2030  0.0949 -0.0406
 3328POPC   C1A77902  24.856  24.982   7.498  0.1079 -0.0075  0.2599
 3328POPC   D2A77903  24.862  25.442   7.422  0.3740 -0.1500 -0.2844
 3328POPC   C3A77904  25.002  25.648   7.802  0.2010  0.1266 -0.1247
 3328POPC   C4A77905  25.262  26.017   8.005  0.2252  0.3835 -0.1230
 3328POPC   C1B77906  25.330  25.172   7.624  0.0600  0.0553  0.1914
 3328POPC   C2B77907  25.513  25.559   7.759  0.1338 -0.3727  0.0908
 3328POPC   C3B77908  25.769  25.765   8.099 -0.2016 -0.2315  0.0873
 3328POPC   C4B77909  25.738  25.907   8.558 -0.2635 -0.2579  0.1001
 3329POPC   NC377910  29.639   0.116   4.130 -0.0468  0.3300 -0.1066
 3329POPC   PO477911  29.540  -0.256   4.294 -0.2715  0.1729  0.1497
 3329POPC   GL177912  29.598  -0.074   4.643 -0.0463 -0.2717 -0.1528
 3329POPC   GL277913  29.359  -0.174   4.804  0.0513  0.0879 -0.1593
 3329POPC   C1A77914  29.417   0.348   4.782 -0.2978 -0.1724  0.3779
 3329POPC   D2A77915  29.198   0.533   5.174 -0.0669 -0.1436 -0.2083
 3329POPC   C3A77916  29.388   0.543   5.544 -0.1415 -0.0161 -0.0540
 3329POPC   C4A77917  29.843   0.570   5.757  0.5723 -0.3458 -0.1405
 3329POPC   C1B77918  29.362  -0.221   5.231 -0.0057 -0.0548  0.0320
 3329POPC   C2B77919  29.347   0.031   5.616  0.4138  0.1995  0.2808
 3329POPC   C3B77920  29.525   0.196   5.994 -0.1292 -0.0412  0.0190
 3329POPC   C4B77921  29.368   0.253   6.390 -0.0926  0.0146  0.0103
 3330POPC   NC377922  32.404  31.136   4.099 -0.3259 -0.1025  0.2858
 3330POPC   PO477923  32.130  31.401   4.055 -0.0871  0.0833  0.1364
 3330POPC   GL177924  32.057  31.391   4.433 -0.0414 -0.0714  0.2429
 3330POPC   GL277925  31.903  31.588   4.547 -0.2200  0.0319  0.2609
 3330POPC   C1A77926  32.351  31.218   4.716 -0.0735  0.0667  0.1788
 3330POPC   D2A77927  32.341  31.170   5.192 -0.3918  0.1996  0.1147
 3330POPC   C3A77928  32.585  30.873   5.432 -0.2221 -0.1925 -0.1061
 3330POPC   C4A77929  32.655  30.431   5.529 -0.2442 -0.1508  0.3229
 3330POPC   C1B77930  32.079  31.544   4.986 -0.1003  0.2162  0.0048
 3330POPC   C2B77931  32.196  31.617   5.403  0.2020  0.0316 -0.0597
 3330POPC   C3B77932  32.307  31.952   5.807  0.0623 -0.3032  0.2284
 3330POPC   C4B77933  32.503  32.004   6.218 -0.0918 -0.0490  0.2754
 3331POPC   NC377934  19.446  22.580   5.614 -0.0949  0.0073 -0.2240
 3331POPC   PO477935  19.753  22.303   5.643  0.2988 -0.0637 -0.0422
 3331POPC   GL177936  19.721  22.278   6.051  0.0074  0.2547 -0.3577
 3331POPC   GL277937  19.440  22.541   6.133 -0.1265  0.1233 -0.3062
 3331POPC   C1A77938  19.678  22.262   6.499  0.3459 -0.0646  0.2998
 3331POPC   D2A77939  19.640  22.218   6.974 -0.1096  0.2089 -0.1345
 3331POPC   C3A77940  19.954  21.991   7.238 -0.0735  0.2571  0.0302
 3331POPC   C4A77941  20.363  21.730   7.276  0.0543  0.0244  0.1826
 3331POPC   C1B77942  19.374  22.651   6.569 -0.1182  0.1054  0.0552
 3331POPC   C2B77943  19.430  22.787   7.004 -0.0623  0.1022 -0.0314
 3331POPC   C3B77944  19.640  22.661   7.408  0.0202  0.4786 -0.0166
 3331POPC   C4B77945  20.072  22.420   7.600 -0.1743 -0.1612  0.2363
 3332POPC   NC377946  27.539  24.924   6.568 -0.0086  0.0627  0.2222
 3332POPC   PO477947  27.711  24.770   6.921 -0.1561  0.0895 -0.2215
 3332POPC   GL177948  27.972  24.884   7.214  0.6964 -0.0022 -0.3088
 3332POPC   GL277949  27.994  24.886   7.516 -0.0790 -0.3560 -0.1030
 3332POPC   C1A77950  28.171  25.302   7.280  0.1178  0.1157  0.0995
 3332POPC   D2A77951  28.133  25.653   7.555 -0.1208 -0.0823  0.1730
 3332POPC   C3A77952  28.323  25.929   7.867  0.1302  0.2942  0.0403
 3332POPC   C4A77953  28.116  26.345   8.058 -0.2779  0.0491  0.0213
 3332POPC   C1B77954  27.772  25.299   7.580  0.0919  0.2385  0.0694
 3332POPC   C2B77955  27.467  25.530   7.858  0.1538  0.1502 -0.1944
 3332POPC   C3B77956  27.283  25.874   8.055  0.0118 -0.1392 -0.0871
 3332POPC   C4B77957  27.106  26.310   8.039 -0.2633  0.5008 -0.0589
 3333POPC   NC377958  30.487  26.823   4.866 -0.2279  0.0970  0.1427
 3333POPC   PO477959  30.818  27.058   4.886  0.2385  0.0577  0.0754
 3333POPC   GL177960  30.667  27.259   5.245 -0.0356 -0.1202 -0.0617
 3333POPC   GL277961  30.654  26.962   5.336  0.1539  0.2812 -0.3590
 3333POPC   C1A77962  30.616  27.400   5.685 -0.2159 -0.1500 -0.3003
 3333POPC   D2A77963  30.623  27.220   6.117 -0.2918 -0.3103 -0.1089
 3333POPC   C3A77964  30.942  27.280   6.442 -0.1946  0.2813 -0.5067
 3333POPC   C4A77965  31.295  27.408   6.721 -0.0813 -0.3429  0.0346
 3333POPC   C1B77966  30.910  26.979   5.727 -0.0755  0.3988  0.0815
 3333POPC   C2B77967  31.234  26.868   6.096 -0.0817 -0.1317 -0.2010
 3333POPC   C3B77968  31.403  26.882   6.582  0.0493  0.0223  0.0134
 3333POPC   C4B77969  31.539  26.830   7.005 -0.0228 -0.0824 -0.1908
 3334POPC   NC377970  25.349  29.232   5.292  0.3143  0.0305 -0.1555
 3334POPC   PO477971  25.097  29.006   5.105 -0.0816  0.0083  0.0210
 3334POPC   GL177972  25.085  28.911   5.566 -0.1073 -0.2758 -0.0346
 3334POPC   GL277973  25.050  29.236   5.659 -0.2240  0.1210  0.0814
 3334POPC   C1A77974  25.308  28.976   5.990 -0.2040  0.0179  0.1667
 3334POPC   D2A77975  25.290  29.077   6.457  0.0522 -0.1258  0.1239
 3334POPC   C3A77976  25.277  29.095   6.959  0.0030 -0.2303  0.1325
 3334POPC   C4A77977  25.014  28.926   7.328  0.2123 -0.0494  0.2857
 3334POPC   C1B77978  24.628  29.135   5.807  0.0536  0.0288  0.1621
 3334POPC   C2B77979  24.366  28.962   6.123 -0.2658 -0.0621 -0.1365
 3334POPC   C3B77980  24.441  28.849   6.555 -0.1485 -0.0484 -0.0866
 3334POPC   C4B77981  24.685  28.817   6.937 -0.0512 -0.1250  0.1364
 3335POPC   NC377982  23.836  27.153   5.389 -0.0890 -0.2081 -0.1492
 3335POPC   PO477983  24.198  27.037   5.511  0.0478  0.2146  0.3683
 3335POPC   GL177984  24.323  27.131   5.949 -0.3429  0.1728  0.4494
 3335POPC   GL277985  24.254  26.890   6.050  0.0526  0.1011 -0.1449
 3335POPC   C1A77986  24.270  27.479   6.219 -0.2538  0.0825 -0.6043
 3335POPC   D2A77987  24.571  27.770   6.477 -0.0067 -0.0807  0.1007
 3335POPC   C3A77988  24.348  27.843   6.876  0.4717  0.0694 -0.0145
 3335POPC   C4A77989  23.984  27.995   7.178  0.0178 -0.0502  0.2799
 3335POPC   C1B77990  23.941  27.102   6.336 -0.1731  0.0223  0.1441
 3335POPC   C2B77991  23.740  27.316   6.730 -0.1485  0.0778 -0.0938
 3335POPC   C3B77992  23.540  27.448   7.189  0.0754 -0.1917 -0.0042
 3335POPC   C4B77993  23.570  27.219   7.589 -0.0178  0.0284 -0.0028
 3336POPC   NC377994  27.965  25.303   5.960 -0.1779  0.1650  0.2294
 3336POPC   PO477995  28.056  25.356   6.372  0.1770 -0.1413 -0.1726
 3336POPC   GL177996  28.245  25.535   6.708  0.0612  0.1627 -0.0272
 3336POPC   GL277997  28.028  25.577   6.917 -0.0164  0.2078 -0.4944
 3336POPC   C1A77998  28.549  25.576   7.095  0.1951 -0.3467 -0.0636
 3336POPC   D2A77999  28.992  25.536   7.144 -0.0915 -0.0477  0.1945
 3336POPC   C3A78000  29.175  25.742   7.546 -0.0726  0.1461 -0.1699
 3336POPC   C4A78001  29.529  25.718   7.821  0.1868 -0.3637  0.0360
 3336POPC   C1B78002  28.231  25.913   7.187  0.2478  0.0040 -0.0563
 3336POPC   C2B78003  28.235  26.216   7.488 -0.1498 -0.0793 -0.1261
 3336POPC   C3B78004  28.191  26.676   7.514 -0.2215  0.1582  0.3573
 3336POPC   C4B78005  28.354  27.075   7.334 -0.0534 -0.0696 -0.3151
 3337POPC   NC378006  32.228  26.519   4.915  0.2073  0.1247  0.1494
 3337POPC   PO478007  32.549  26.755   4.836 -0.2644  0.0082 -0.0293
 3337POPC   GL178008  32.491  26.904   5.175 -0.2252  0.3900 -0.3216
 3337POPC   GL278009  32.778  26.737   5.300 -0.3210 -0.1283  0.0773
 3337POPC   C1A78010  32.308  27.055   5.573 -0.1727 -0.2424  0.3241
 3337POPC   D2A78011  32.111  26.805   5.941 -0.1062  0.0774 -0.1925
 3337POPC   C3A78012  32.288  27.090   6.238 -0.2283 -0.0322  0.1237
 3337POPC   C4A78013  32.267  27.445   6.536  0.0643  0.1478  0.4500
 3337POPC   C1B78014  33.043  26.927   5.678 -0.1035  0.2155 -0.0664
 3337POPC   C2B78015  33.062  26.935   6.139  0.0135  0.1245  0.1068
 3337POPC   C3B78016  33.250  27.120   6.510 -0.1354  0.1311 -0.0382
 3337POPC   C4B78017  33.610  27.158   6.844  0.2251 -0.0139  0.0503
 3338POPC   NC378018  25.006  20.539   6.917  0.4408 -0.1326  0.2261
 3338POPC   PO478019  24.620  20.611   7.080 -0.0969 -0.0699  0.1296
 3338POPC   GL178020  24.333  20.326   7.314 -0.0482  0.0950  0.4475
 3338POPC   GL278021  24.039  20.414   7.386  0.3939 -0.0805  0.0824
 3338POPC   C1A78022  24.321  19.900   7.502  0.0153 -0.2763 -0.0476
 3338POPC   D2A78023  24.549  19.693   7.882  0.1865 -0.2980  0.1056
 3338POPC   C3A78024  24.344  19.495   8.253  0.1190  0.2997 -0.2119
 3338POPC   C4A78025  23.993  19.260   8.450 -0.0423 -0.1696 -0.1272
 3338POPC   C1B78026  24.143  20.520   7.852 -0.3367 -0.0653 -0.0414
 3338POPC   C2B78027  24.348  20.419   8.261  0.3235  0.0266  0.2385
 3338POPC   C3B78028  24.119  20.286   8.636 -0.1286  0.1042 -0.1843
 3338POPC   C4B78029  23.886  20.184   9.021 -0.0954  0.1685  0.1737
 3339POPC   NC378030  27.817  22.202  11.540  0.0382  0.1408  0.0330
 3339POPC   PO478031  27.779  22.373  11.186 -0.1684  0.2830  0.0759
 3339POPC   GL178032  28.119  22.197  11.170  0.2566  0.2100  0.0347
 3339POPC   GL278033  28.292  22.321  11.345 -0.0943 -0.0039 -0.1223
 3339POPC   C1A78034  28.282  21.859  11.443  0.2846  0.1404  0.0160
 3339POPC   D2A78035  28.288  21.524  11.725 -0.2499 -0.2082  0.2349
 3339POPC   C3A78036  28.683  21.555  11.959  0.4570  0.0943 -0.0863
 3339POPC   C4A78037  28.747  21.205  12.220 -0.2019 -0.3123  0.2258
 3339POPC   C1B78038  28.730  22.454  11.463 -0.0417 -0.0760  0.0559
 3339POPC   C2B78039  28.989  22.799  11.710  0.0884 -0.0985  0.2293
 3339POPC   C3B78040  29.244  23.100  11.941 -0.1820 -0.1506 -0.0029
 3339POPC   C4B78041  29.317  23.351  12.318 -0.1173  0.3702 -0.0357
 3340POPC   NC378042  31.047   0.044   3.584 -0.1565 -0.1250 -0.0186
 3340POPC   PO478043  31.004  -0.293   3.775  0.0894  0.0245 -0.1218
 3340POPC   GL178044  30.902  -0.325   4.105 -0.1658  0.3236 -0.1262
 3340POPC   GL278045  31.144  -0.133   4.217 -0.0745 -0.0253 -0.1766
 3340POPC   C1A78046  31.020  -0.595   4.471  0.0502  0.5260 -0.2019
 3340POPC   D2A78047  31.131  -0.911   4.764 -0.2078 -0.0467  0.0635
 3340POPC   C3A78048  31.047  -1.369   4.752 -0.0689  0.4323  0.4149
 3340POPC   C4A78049  30.961  -1.796   4.675 -0.2170 -0.1571  0.2697
 3340POPC   C1B78050  31.273  -0.153   4.639 -0.1068  0.3610  0.0009
 3340POPC   C2B78051  31.258  -0.177   5.085  0.3659  0.0370  0.1674
 3340POPC   C3B78052  31.381  -0.250   5.510  0.1364  0.0188  0.0466
 3340POPC   C4B78053  31.267  -0.593   5.818 -0.2928  0.0210  0.1711
 3341POPC   NC378054  21.152   0.816   4.468  0.1274 -0.1278 -0.1100
 3341POPC   PO478055  21.456   0.734   4.691 -0.1149 -0.1104 -0.1232
 3341POPC   GL178056  21.620   0.492   4.916  0.0129 -0.3301 -0.0509
 3341POPC   GL278057  21.542   0.630   5.154 -0.1355 -0.1098 -0.1910
 3341POPC   C1A78058  21.940   0.430   5.258  0.1809  0.2491  0.0376
 3341POPC   D2A78059  21.904   0.453   5.708  0.0389 -0.1813 -0.2285
 3341POPC   C3A78060  21.700   0.785   5.986  0.0025 -0.0693 -0.1448
 3341POPC   C4A78061  21.454   0.878   6.345  0.3314 -0.1457  0.2885
 3341POPC   C1B78062  21.394   0.768   5.524  0.0511  0.2309 -0.1975
 3341POPC   C2B78063  21.219   0.607   5.960 -0.0558  0.2028  0.4853
 3341POPC   C3B78064  21.503   0.314   6.137 -0.1378 -0.1930 -0.0491
 3341POPC   C4B78065  21.942   0.208   6.184  0.0439 -0.0383 -0.0149
 3342POPC   NC378066  25.437  21.581  10.779  0.3162  0.0411  0.0990
 3342POPC   PO478067  25.758  21.580  10.515  0.2319 -0.0622  0.0268
 3342POPC   GL178068  25.907  21.237  10.700  0.0478  0.2916  0.1917
 3342POPC   GL278069  25.773  21.274  10.943  0.1254 -0.0023 -0.1371
 3342POPC   C1A78070  26.123  20.866  10.556  0.3102 -0.0362 -0.0439
 3342POPC   D2A78071  26.185  20.725  10.128 -0.5569 -0.0841 -0.2258
 3342POPC   C3A78072  26.297  20.370   9.850  0.2005  0.5884 -0.0473
 3342POPC   C4A78073  26.480  20.126   9.503 -0.2447  0.2732  0.4183
 3342POPC   C1B78074  25.682  20.831  10.855 -0.0510  0.0770  0.0179
 3342POPC   C2B78075  25.617  20.425  10.744  0.1547 -0.0257 -0.0617
 3342POPC   C3B78076  25.738  20.085  11.072  0.1939 -0.0727  0.2856
 3342POPC   C4B78077  25.973  19.916  11.339 -0.3544 -0.0617  0.1045
 3343POPC   NC378078  20.426  25.022   5.023  0.2126 -0.1524 -0.0824
 3343POPC   PO478079  20.574  25.227   4.721 -0.1373  0.2165 -0.2498
 3343POPC   GL178080  20.472  25.456   5.084  0.1946  0.0993  0.1575
 3343POPC   GL278081  20.737  25.297   5.335 -0.0413 -0.3984  0.2622
 3343POPC   C1A78082  20.109  25.300   5.307 -0.1168  0.0308 -0.2209
 3343POPC   D2A78083  19.797  25.186   5.612 -0.0633  0.3710 -0.3594
 3343POPC   C3A78084  19.618  25.463   5.944  0.1103  0.1041 -0.2138
 3343POPC   C4A78085  19.252  25.577   6.159  0.0919  0.0198  0.0878
 3343POPC   C1B78086  20.438  25.202   5.623  0.2807 -0.0873  0.1096
 3343POPC   C2B78087  20.257  24.890   5.887  0.0179  0.1106 -0.0976
 3343POPC   C3B78088  20.012  24.634   6.237 -0.1475 -0.3593 -0.1165
 3343POPC   C4B78089  19.542  24.490   6.220  0.1746  0.0461 -0.0858
 3344POPC   NC378090  25.978  28.821   4.984 -0.0888 -0.1965 -0.1590
 3344POPC   PO478091  25.610  28.839   5.127  0.1417  0.1769  0.0198
 3344POPC   GL178092  25.753  28.996   5.381  0.0595  0.0947 -0.1533
 3344POPC   GL278093  25.977  28.916   5.483  0.0314 -0.0864 -0.1473
 3344POPC   C1A78094  25.664  29.316   5.794 -0.1852  0.1376  0.0203
 3344POPC   D2A78095  25.788  29.588   6.124  0.1478 -0.0456  0.2567
 3344POPC   C3A78096  25.629  30.019   6.254  0.1754  0.1862  0.1015
 3344POPC   C4A78097  25.298  30.374   6.308  0.0896  0.3587  0.0633
 3344POPC   C1B78098  26.235  28.954   5.811  0.1646  0.0441 -0.0179
 3344POPC   C2B78099  26.539  28.778   6.157  0.1796 -0.0308  0.2013
 3344POPC   C3B78100  27.002  28.730   6.238  0.1530  0.1492 -0.2060
 3344POPC   C4B78101  27.242  28.360   6.068 -0.1650  0.0090  0.0010
 3345POPC   NC378102  28.366  31.133   4.373 -0.3329 -0.1187 -0.1793
 3345POPC   PO478103  28.581  30.897   4.144 -0.2883  0.1565  0.1774
 3345POPC   GL178104  28.860  30.986   4.380 -0.2562 -0.0876  0.0420
 3345POPC   GL278105  28.971  30.699   4.495  0.0277 -0.0787  0.0864
 3345POPC   C1A78106  28.888  30.923   4.904 -0.1253  0.1377 -0.0487
 3345POPC   D2A78107  29.287  31.020   5.208  0.1644  0.1499 -0.1656
 3345POPC   C3A78108  29.408  30.890   5.638  0.1226  0.3052 -0.1021
 3345POPC   C4A78109  29.728  30.933   5.999 -0.2179 -0.1751  0.1524
 3345POPC   C1B78110  29.352  30.880   4.686  0.3848  0.1984 -0.2417
 3345POPC   C2B78111  29.688  30.868   5.051 -0.0464  0.2540  0.0358
 3345POPC   C3B78112  29.832  31.024   5.416  0.3896  0.1338  0.0120
 3345POPC   C4B78113  29.928  31.273   5.724  0.4695  0.2555  0.2851
 3346POPC   NC378114  22.422  20.984   6.212  0.1223  0.1927  0.0241
 3346POPC   PO478115  22.696  20.734   6.339 -0.0503 -0.1623  0.1721
 3346POPC   GL178116  22.950  20.621   6.620 -0.1297  0.1912  0.4813
 3346POPC   GL278117  22.710  20.502   6.755  0.0111 -0.1034 -0.5153
 3346POPC   C1A78118  23.216  20.732   7.010 -0.2222  0.0351 -0.2839
 3346POPC   D2A78119  23.133  20.790   7.462 -0.0353  0.0814  0.2947
 3346POPC   C3A78120  23.175  20.375   7.596  0.2207 -0.1304  0.3093
 3346POPC   C4A78121  22.828  20.040   7.720  0.0642 -0.0355 -0.3263
 3346POPC   C1B78122  22.829  20.455   7.229  0.1587 -0.1457  0.4438
 3346POPC   C2B78123  22.651  20.520   7.637  0.3048  0.0138 -0.0927
 3346POPC   C3B78124  22.577  20.631   8.075  0.0289 -0.2055 -0.0771
 3346POPC   C4B78125  22.278  20.462   8.417  0.0383  0.0308 -0.1021
 3347POPC   NC378126  32.279  19.379   4.834 -0.1189 -0.0846  0.0049
 3347POPC   PO478127  32.667  19.378   4.852  0.0192  0.1039  0.2676
 3347POPC   GL178128  32.693  19.177   5.155 -0.1382 -0.1408 -0.1216
 3347POPC   GL278129  32.990  19.115   5.219  0.3207  0.0653  0.0956
 3347POPC   C1A78130  32.503  19.224   5.547  0.0540  0.3054 -0.0342
 3347POPC   D2A78131  32.428  19.334   5.970  0.1132 -0.1240  0.0765
 3347POPC   C3A78132  32.466  19.109   6.333 -0.2926 -0.0506 -0.0214
 3347POPC   C4A78133  32.197  18.808   6.418 -0.0188 -0.1790 -0.4117
 3347POPC   C1B78134  33.257  18.952   5.550  0.0773 -0.0209  0.0353
 3347POPC   C2B78135  33.166  18.671   5.871  0.0494  0.0214  0.2931
 3347POPC   C3B78136  33.339  18.216   5.966 -0.2621  0.1633  0.1927
 3347POPC   C4B78137  33.325  17.765   5.983 -0.1212  0.1774  0.2204
 3348POPC   NC378138  28.494   0.169   4.522  0.0491  0.2504 -0.1048
 3348POPC   PO478139  28.160   0.293   4.687 -0.0193 -0.1690  0.2120
 3348POPC   GL178140  28.361   0.106   5.070 -0.2208  0.0580  0.1254
 3348POPC   GL278141  28.308   0.324   5.279 -0.1316 -0.1036 -0.0178
 3348POPC   C1A78142  28.307  -0.188   5.450 -0.1788 -0.3391  0.4794
 3348POPC   D2A78143  27.911  -0.416   5.524 -0.4541 -0.0346 -0.1091
 3348POPC   C3A78144  27.745  -0.463   5.933 -0.1646 -0.0511  0.2933
 3348POPC   C4A78145  27.853  -0.654   6.347  0.1611  0.1575  0.1224
 3348POPC   C1B78146  28.093   0.426   5.635 -0.0590  0.0153 -0.3955
 3348POPC   C2B78147  27.865   0.440   6.068  0.0082  0.0223 -0.0072
 3348POPC   C3B78148  27.900   0.051   6.345  0.1649 -0.4485 -0.0831
 3348POPC   C4B78149  28.161  -0.278   6.550  0.0068 -0.0595  0.3080
 3349POPC   NC378150  20.118  21.964   5.639 -0.0177  0.0017  0.0194
 3349POPC   PO478151  20.462  22.079   5.665 -0.1263 -0.3682  0.1856
 3349POPC   GL178152  20.503  21.910   6.006 -0.4428 -0.2391  0.1759
 3349POPC   GL278153  20.611  22.023   6.223 -0.0404 -0.0535  0.1033
 3349POPC   C1A78154  20.402  21.533   6.227  0.1166 -0.2119 -0.0209
 3349POPC   D2A78155  20.547  21.278   6.596  0.0998 -0.3584 -0.1044
 3349POPC   C3A78156  20.349  21.249   6.994 -0.0590  0.0280  0.2188
 3349POPC   C4A78157  20.123  21.298   7.352  0.0619 -0.0423  0.1446
 3349POPC   C1B78158  20.456  22.357   6.496 -0.1359 -0.2005 -0.1650
 3349POPC   C2B78159  20.364  22.664   6.809  0.0629  0.0443 -0.0930
 3349POPC   C3B78160  20.310  22.832   7.246  0.3384  0.0701 -0.0510
 3349POPC   C4B78161  20.449  22.790   7.695 -0.1559 -0.2652  0.1630
 3350POPC   NC378162  19.624  27.031   4.047 -0.0896  0.0712  0.2752
 3350POPC   PO478163  19.426  26.762   4.286 -0.0277  0.1360 -0.1029
 3350POPC   GL178164  19.432  26.848   4.698  0.3020 -0.1181  0.0255
 3350POPC   GL278165  19.222  26.725   4.866  0.0297 -0.1313  0.4076
 3350POPC   C1A78166  19.673  27.049   5.084 -0.0521  0.3081  0.0510
 3350POPC   D2A78167  19.775  27.097   5.486 -0.2816 -0.1176 -0.2138
 3350POPC   C3A78168  19.618  26.903   5.921  0.3383 -0.1043  0.1661
 3350POPC   C4A78169  19.815  27.126   6.262 -0.2666  0.0601  0.1394
 3350POPC   C1B78170  19.162  27.065   5.122 -0.0171  0.1388 -0.1355
 3350POPC   C2B78171  18.855  27.299   5.416  0.0227  0.0079 -0.1037
 3350POPC   C3B78172  18.950  27.417   5.837 -0.0634  0.3256  0.1495
 3350POPC   C4B78173  18.967  27.202   6.193  0.0291  0.0776  0.0638
 3351POPC   NC378174  29.046  19.901   5.427  0.2554 -0.0704  0.1648
 3351POPC   PO478175  28.828  19.671   5.192 -0.0667 -0.0644  0.0786
 3351POPC   GL178176  29.064  19.434   5.429 -0.4183  0.0022  0.3155
 3351POPC   GL278177  29.047  19.444   5.711 -0.2456  0.2813 -0.3464
 3351POPC   C1A78178  29.490  19.435   5.523 -0.0779  0.0138  0.2332
 3351POPC   D2A78179  29.719  19.553   5.904 -0.0755  0.0050  0.0725
 3351POPC   C3A78180  29.699  19.894   6.241 -0.1295 -0.0486  0.0365
 3351POPC   C4A78181  29.620  20.070   6.689 -0.1377 -0.0141  0.2455
 3351POPC   C1B78182  29.290  19.225   5.996  0.0470 -0.1107  0.1384
 3351POPC   C2B78183  29.651  18.876   6.153  0.0520 -0.0253  0.0731
 3351POPC   C3B78184  29.864  18.790   6.532  0.0382  0.0418 -0.5217
 3351POPC   C4B78185  30.179  18.636   6.895 -0.1682  0.1151 -0.5165
 3352POPC   NC378186  27.800  23.204   9.390  0.3147 -0.0343 -0.1614
 3352POPC   PO478187  27.871  23.300   9.033  0.2619  0.4048  0.2758
 3352POPC   GL178188  28.264  23.402   9.158  0.2018 -0.2649 -0.1127
 3352POPC   GL278189  28.185  23.568   9.336  0.0075 -0.3112 -0.2679
 3352POPC   C1A78190  28.677  23.611   9.060 -0.1812 -0.3656 -0.1850
 3352POPC   D2A78191  29.024  23.359   9.352 -0.2158 -0.1936 -0.2904
 3352POPC   C3A78192  29.209  23.449   9.760  0.0114 -0.0638  0.1889
 3352POPC   C4A78193  29.461  23.281  10.149  0.1248  0.0489 -0.1773
 3352POPC   C1B78194  28.477  23.893   9.507 -0.0219 -0.3275 -0.0816
 3352POPC   C2B78195  28.564  24.364   9.503 -0.1093 -0.0528  0.0832
 3352POPC   C3B78196  28.586  24.624   9.871  0.1011  0.2817  0.0614
 3352POPC   C4B78197  28.424  24.813  10.259  0.0564 -0.0630 -0.3789
 3353POPC   NC378198  22.770  26.587   5.057  0.0397  0.0676 -0.0174
 3353POPC   PO478199  22.669  26.973   5.006  0.3387 -0.0354  0.0566
 3353POPC   GL178200  22.772  27.271   5.141 -0.0278  0.4896 -0.1502
 3353POPC   GL278201  22.720  27.158   5.441  0.1703  0.0713 -0.1055
 3353POPC   C1A78202  22.865  27.722   5.053 -0.1093  0.0273 -0.0231
 3353POPC   D2A78203  22.633  28.095   5.061  0.0778 -0.2688 -0.1536
 3353POPC   C3A78204  22.629  28.206   5.480 -0.0192  0.0839 -0.1097
 3353POPC   C4A78205  23.068  28.268   5.715 -0.1209  0.1500 -0.1923
 3353POPC   C1B78206  22.593  27.259   5.813  0.2077 -0.1560  0.2742
 3353POPC   C2B78207  22.487  27.514   6.208 -0.3238  0.1872 -0.1007
 3353POPC   C3B78208  22.099  27.682   6.301 -0.2597 -0.0804  0.1143
 3353POPC   C4B78209  21.880  28.085   6.368  0.0497 -0.1046 -0.3603
 3354POPC   NC378210  16.775  27.030   5.045  0.1967 -0.3487 -0.1825
 3354POPC   PO478211  16.711  27.066   4.647 -0.1230  0.0037  0.0846
 3354POPC   GL178212  16.900  27.425   4.833 -0.2234 -0.1816 -0.0322
 3354POPC   GL278213  17.137  27.413   4.733  0.1885 -0.0102 -0.1056
 3354POPC   C1A78214  16.938  27.548   5.290  0.0035 -0.0738 -0.3202
 3354POPC   D2A78215  16.813  27.559   5.765 -0.2076 -0.1894  0.1161
 3354POPC   C3A78216  16.588  27.654   6.165 -0.0300  0.1259 -0.0432
 3354POPC   C4A78217  16.765  27.878   6.533  0.0656  0.0446  0.0538
 3354POPC   C1B78218  17.507  27.584   4.909 -0.2670 -0.0017 -0.0522
 3354POPC   C2B78219  17.544  27.645   5.387  0.1830 -0.0089 -0.1232
 3354POPC   C3B78220  17.750  27.861   5.700 -0.1390  0.0786 -0.0790
 3354POPC   C4B78221  18.060  27.782   6.009 -0.1555 -0.0323  0.1653
 3355POPC   NC378222  26.614  22.782  12.127  0.2978 -0.1472  0.1020
 3355POPC   PO478223  26.278  22.934  12.037  0.2723  0.0442 -0.0764
 3355POPC   GL178224  26.406  23.320  12.152 -0.0424  0.0031  0.2221
 3355POPC   GL278225  26.745  23.354  12.044  0.1040 -0.1068  0.0712
 3355POPC   C1A78226  26.382  23.756  12.023 -0.1503 -0.1245  0.0199
 3355POPC   D2A78227  26.315  24.178  11.921 -0.1011 -0.0120  0.2576
 3355POPC   C3A78228  26.252  24.541  12.116  0.0258 -0.0199  0.0714
 3355POPC   C4A78229  26.169  24.747  12.488  0.2250  0.0448 -0.0863
 3355POPC   C1B78230  26.869  23.799  12.173  0.3460  0.1395  0.2074
 3355POPC   C2B78231  26.833  24.239  12.126  0.2877  0.3314 -0.0048
 3355POPC   C3B78232  26.874  24.516  11.743  0.1827 -0.5095 -0.0570
 3355POPC   C4B78233  26.757  24.804  11.412  0.0595 -0.0512 -0.1418
 3356POPC   NC378234  25.496  23.983   8.331  0.1513  0.2145 -0.2144
 3356POPC   PO478235  25.746  24.288   8.294 -0.1221 -0.2529  0.1275
 3356POPC   GL178236  25.493  24.534   8.417  0.3393  0.2140  0.5726
 3356POPC   GL278237  25.288  24.442   8.541 -0.1304 -0.0275 -0.2870
 3356POPC   C1A78238  25.609  24.947   8.513  0.2101  0.0408 -0.3376
 3356POPC   D2A78239  25.734  25.411   8.636 -0.2609 -0.1426  0.0979
 3356POPC   C3A78240  25.786  25.351   9.122 -0.0037 -0.1194 -0.3805
 3356POPC   C4A78241  25.932  25.554   9.489  0.1730 -0.1454 -0.0232
 3356POPC   C1B78242  25.364  24.651   8.922 -0.1211  0.0006 -0.2610
 3356POPC   C2B78243  25.322  25.120   8.988 -0.1848 -0.0349  0.0535
 3356POPC   C3B78244  25.298  25.480   9.247  0.1391 -0.0243  0.1376
 3356POPC   C4B78245  25.445  25.667   9.658  0.1455  0.0159  0.1201
 3357POPC   NC378246  21.151  24.716   5.771  0.1869 -0.0900  0.1651
 3357POPC   PO478247  20.889  24.778   5.459 -0.0396 -0.0777  0.0611
 3357POPC   GL178248  20.756  24.915   5.854  0.0670 -0.1692 -0.0088
 3357POPC   GL278249  20.841  25.164   5.979  0.2336  0.0319  0.3702
 3357POPC   C1A78250  20.568  24.760   6.266 -0.2812 -0.1764  0.1038
 3357POPC   D2A78251  20.312  24.716   6.641 -0.0715  0.1186 -0.0320
 3357POPC   C3A78252  20.388  24.324   6.893  0.0451  0.0239  0.0833
 3357POPC   C4A78253  20.378  24.149   7.306  0.0422 -0.2652 -0.0387
 3357POPC   C1B78254  20.487  25.330   6.204  0.0275 -0.4053 -0.0845
 3357POPC   C2B78255  20.061  25.246   6.436 -0.3058  0.0809 -0.0175
 3357POPC   C3B78256  19.792  24.837   6.624  0.0712 -0.1813 -0.1239
 3357POPC   C4B78257  19.418  24.560   6.727 -0.1636  0.1561 -0.0105
 3358POPC   NC378258  24.539  18.006   5.838 -0.2617 -0.0951 -0.0454
 3358POPC   PO478259  24.337  17.828   5.567 -0.0165 -0.1023  0.0880
 3358POPC   GL178260  24.048  17.553   5.771 -0.0420 -0.1368 -0.0580
 3358POPC   GL278261  24.294  17.467   6.016 -0.1570  0.0628 -0.2403
 3358POPC   C1A78262  23.805  17.246   6.054  0.3560 -0.1218 -0.0017
 3358POPC   D2A78263  23.476  17.167   6.437  0.1194  0.0698 -0.2863
 3358POPC   C3A78264  23.251  16.866   6.163  0.1546 -0.1412 -0.2915
 3358POPC   C4A78265  22.961  16.606   5.883  0.0155  0.2643  0.0043
 3358POPC   C1B78266  23.976  17.599   6.339 -0.0486  0.1469  0.0998
 3358POPC   C2B78267  23.796  17.396   6.690 -0.1275 -0.2816 -0.0035
 3358POPC   C3B78268  23.583  17.110   6.996  0.0411  0.2782  0.1270
 3358POPC   C4B78269  23.531  16.967   7.449 -0.1040  0.0524 -0.0211
 3359POPC   NC378270  22.124  29.433   4.006  0.0395 -0.1192  0.5583
 3359POPC   PO478271  21.740  29.628   4.004 -0.0001  0.0480  0.0229
 3359POPC   GL178272  21.655  29.654   4.377 -0.1547  0.0064 -0.0915
 3359POPC   GL278273  21.644  29.954   4.415 -0.1832 -0.0850 -0.0310
 3359POPC   C1A78274  21.722  29.370   4.789  0.2043  0.1761  0.0261
 3359POPC   D2A78275  21.553  29.014   5.103 -0.3501  0.0480 -0.0109
 3359POPC   C3A78276  21.291  28.931   5.470 -0.2336  0.1170  0.2060
 3359POPC   C4A78277  21.236  28.685   5.831 -0.1737  0.0571 -0.2435
 3359POPC   C1B78278  21.236  29.965   4.507 -0.0862 -0.0729  0.0767
 3359POPC   C2B78279  20.797  30.015   4.695  0.3899  0.0330  0.0413
 3359POPC   C3B78280  20.617  30.101   5.133  0.1056  0.0819  0.0030
 3359POPC   C4B78281  20.764  30.276   5.526 -0.1094 -0.1956 -0.0419
 3360POPC   NC378282  26.851  27.895   5.088 -0.1632 -0.2245  0.0730
 3360POPC   PO478283  27.056  27.587   5.226 -0.3485 -0.3195  0.2404
 3360POPC   GL178284  27.008  27.893   5.545 -0.2415  0.1833  0.1514
 3360POPC   GL278285  27.316  27.978   5.574  0.1496  0.1856  0.0701
 3360POPC   C1A78286  26.865  28.113   5.884  0.0423  0.0823 -0.3907
 3360POPC   D2A78287  26.758  28.169   6.291  0.1775  0.0824 -0.1846
 3360POPC   C3A78288  26.646  28.534   6.560 -0.0563  0.1260  0.0239
 3360POPC   C4A78289  26.324  28.701   6.889  0.3195 -0.2582 -0.1561
 3360POPC   C1B78290  27.288  27.838   6.015 -0.0836 -0.1026 -0.0333
 3360POPC   C2B78291  27.183  28.055   6.465  0.0556  0.1418 -0.1293
 3360POPC   C3B78292  27.059  28.402   6.762  0.1718 -0.0609 -0.1805
 3360POPC   C4B78293  26.990  28.823   6.760  0.1507 -0.2899 -0.0864
 3361POPC   NC378294  17.965  20.351   4.938  0.0221 -0.2935  0.2037
 3361POPC   PO478295  18.240  20.118   4.763  0.0992  0.1315 -0.5634
 3361POPC   GL178296  18.248  20.073   5.195  0.0877 -0.0437  0.0161
 3361POPC   GL278297  18.382  20.327   5.248  0.0223 -0.2112  0.2151
 3361POPC   C1A78298  17.907  19.764   5.359 -0.0057 -0.1949  0.2955
 3361POPC   D2A78299  17.539  19.815   5.674  0.2696  0.2470  0.1994
 3361POPC   C3A78300  17.534  19.528   6.064  0.1499 -0.0404  0.3378
 3361POPC   C4A78301  17.355  19.247   6.341 -0.1311  0.2633  0.2016
 3361POPC   C1B78302  18.349  20.172   5.667  0.0547 -0.2789 -0.1551
 3361POPC   C2B78303  18.002  19.929   5.857 -0.3181  0.1395  0.0190
 3361POPC   C3B78304  18.061  19.634   6.224  0.0948  0.2805 -0.1677
 3361POPC   C4B78305  18.425  19.585   6.481 -0.3890  0.1741  0.1208
 3362POPC   NC378306  26.097  27.338   6.316  0.0329 -0.0951  0.0302
 3362POPC   PO478307  25.704  27.214   6.212  0.2419 -0.0426  0.1795
 3362POPC   GL178308  25.649  27.499   6.542  0.2607 -0.1980  0.1025
 3362POPC   GL278309  25.846  27.395   6.744 -0.0856  0.1491  0.0282
 3362POPC   C1A78310  25.939  27.851   6.664  0.0229 -0.2699 -0.2175
 3362POPC   D2A78311  25.846  28.237   6.761  0.3270  0.0521  0.1995
 3362POPC   C3A78312  26.045  28.337   7.089  0.1387 -0.3055  0.0414
 3362POPC   C4A78313  26.308  28.569   7.352  0.1514  0.1237  0.0776
 3362POPC   C1B78314  25.624  27.709   6.981  0.2429  0.0249 -0.0153
 3362POPC   C2B78315  25.607  28.159   7.214  0.3519 -0.0950  0.0840
 3362POPC   C3B78316  25.712  28.466   7.489 -0.3756 -0.1264 -0.2437
 3362POPC   C4B78317  26.002  28.773   7.648  0.0525  0.1378 -0.3246
 3363POPC   NC378318  25.528  20.600   7.876  0.3023 -0.1928 -0.1867
 3363POPC   PO478319  25.414  20.331   7.646 -0.3207 -0.1772 -0.1104
 3363POPC   GL178320  25.165  20.294   7.961  0.2026 -0.1724  0.0305
 3363POPC   GL278321  25.292  20.180   8.226  0.0780 -0.2358 -0.3113
 3363POPC   C1A78322  24.869  20.102   8.282  0.4720 -0.2403 -0.3605
 3363POPC   D2A78323  24.506  19.931   8.473  0.1490 -0.1567  0.3320
 3363POPC   C3A78324  24.447  19.916   8.940 -0.5155  0.2353  0.2292
 3363POPC   C4A78325  24.115  19.693   9.105  0.1073  0.0502  0.2327
 3363POPC   C1B78326  25.235  19.886   8.555  0.0230  0.0768 -0.0954
 3363POPC   C2B78327  25.325  19.464   8.494  0.2262 -0.1267 -0.2016
 3363POPC   C3B78328  25.659  19.226   8.683 -0.1582 -0.1277 -0.1162
 3363POPC   C4B78329  25.710  18.782   8.747 -0.1425 -0.0925  0.0261
 3364POPC   NC378330  25.969  18.426   6.222 -0.1141 -0.1086 -0.0471
 3364POPC   PO478331  26.345  18.380   6.101  0.1179  0.0805  0.2911
 3364POPC   GL178332  26.713  18.525   6.239 -0.2948  0.0830  0.1782
 3364POPC   GL278333  26.912  18.355   6.093  0.0498  0.0697 -0.0835
 3364POPC   C1A78334  27.028  18.389   6.582  0.1959  0.0950 -0.1571
 3364POPC   D2A78335  27.098  18.013   6.827  0.0050 -0.1002 -0.0416
 3364POPC   C3A78336  26.778  17.887   7.141 -0.1780 -0.3290  0.2439
 3364POPC   C4A78337  26.650  18.094   7.552 -0.0278 -0.0194  0.2747
 3364POPC   C1B78338  26.788  18.011   6.379 -0.1453  0.2128  0.1938
 3364POPC   C2B78339  26.622  18.194   6.802 -0.0000 -0.1587  0.0830
 3364POPC   C3B78340  26.398  18.347   7.224 -0.1043 -0.3858  0.0790
 3364POPC   C4B78341  26.531  18.673   7.510 -0.4954  0.2891  0.2318
 3365POPC   NC378342  25.313  31.322   4.668  0.3893 -0.0110 -0.0429
 3365POPC   PO478343  25.183  31.628   4.884  0.0184 -0.0636 -0.0997
 3365POPC   GL178344  25.185  31.710   5.234  0.2471 -0.0298 -0.0214
 3365POPC   GL278345  25.337  31.990   5.332 -0.3714  0.3055  0.2464
 3365POPC   C1A78346  25.369  31.629   5.657 -0.1475 -0.1103 -0.0327
 3365POPC   D2A78347  25.369  31.449   6.063  0.1462 -0.1749 -0.1968
 3365POPC   C3A78348  25.602  31.277   6.415 -0.0287 -0.0956  0.1339
 3365POPC   C4A78349  25.967  31.078   6.662  0.1202 -0.1128 -0.0588
 3365POPC   C1B78350  25.049  32.027   5.725 -0.0622  0.1383 -0.3144
 3365POPC   C2B78351  25.085  31.971   6.192 -0.1005  0.0726  0.2967
 3365POPC   C3B78352  25.085  31.751   6.661  0.3131 -0.1839  0.0636
 3365POPC   C4B78353  24.876  31.558   7.101  0.1017  0.2154  0.2147
 3366POPC   NC378354  26.688  24.008   8.291  0.1574  0.0594 -0.0787
 3366POPC   PO478355  27.070  23.999   8.410 -0.0828 -0.0970 -0.1000
 3366POPC   GL178356  27.184  24.108   8.740 -0.1623  0.0230 -0.0642
 3366POPC   GL278357  27.450  24.141   8.843  0.0795 -0.2707  0.0938
 3366POPC   C1A78358  27.119  24.375   9.155  0.1247 -0.3687  0.1955
 3366POPC   D2A78359  27.178  24.626   9.557 -0.4370  0.2700  0.1539
 3366POPC   C3A78360  27.381  24.946   9.819  0.3273 -0.0505 -0.2486
 3366POPC   C4A78361  27.651  25.209  10.149 -0.1048  0.1394  0.3910
 3366POPC   C1B78362  27.677  24.564   8.965  0.1646 -0.0089 -0.0410
 3366POPC   C2B78363  27.819  24.985   9.031 -0.0822 -0.0898  0.1464
 3366POPC   C3B78364  28.009  25.412   9.106 -0.1844  0.1183  0.0928
 3366POPC   C4B78365  28.385  25.700   9.202  0.0232 -0.0695 -0.3755
 3367POPC   NC378366  22.783  32.502   4.924 -0.0182 -0.1748 -0.2019
 3367POPC   PO478367  22.376  32.635   4.932 -0.3844 -0.3430  0.1086
 3367POPC   GL178368  22.253  32.788   5.307 -0.2149  0.0488 -0.0171
 3367POPC   GL278369  22.491  32.530   5.400  0.2098  0.0433 -0.3892
 3367POPC   C1A78370  22.116  32.812   5.750  0.0863  0.0335  0.5050
 3367POPC   D2A78371  22.143  32.584   6.157  0.2104 -0.0886  0.0194
 3367POPC   C3A78372  22.185  32.157   6.306 -0.0346  0.1861 -0.2412
 3367POPC   C4A78373  22.414  31.786   6.251 -0.2095 -0.1438 -0.3188
 3367POPC   C1B78374  22.452  32.468   5.801  0.1779  0.3939  0.0332
 3367POPC   C2B78375  22.654  32.414   6.242 -0.0293  0.3064 -0.1099
 3367POPC   C3B78376  23.018  32.465   6.567 -0.0154 -0.1043 -0.0434
 3367POPC   C4B78377  23.328  32.213   6.751  0.2686 -0.0364  0.1786
 3368POPC   NC378378  23.063  24.542   5.922 -0.0055  0.1001  0.1799
 3368POPC   PO478379  22.939  24.902   5.918 -0.0038 -0.3096  0.0146
 3368POPC   GL178380  23.051  24.906   6.286  0.1095  0.5183  0.0278
 3368POPC   GL278381  22.968  25.236   6.279  0.2952  0.0969 -0.1365
 3368POPC   C1A78382  23.077  25.026   6.710  0.2421 -0.2416  0.0340
 3368POPC   D2A78383  22.690  25.280   6.829  0.0834  0.0265  0.2205
 3368POPC   C3A78384  22.245  25.275   6.759  0.0976  0.1999 -0.0870
 3368POPC   C4A78385  21.834  25.284   6.527 -0.2272  0.1347  0.2268
 3368POPC   C1B78386  23.152  25.503   6.590  0.0682 -0.3294  0.1249
 3368POPC   C2B78387  23.151  25.618   7.064  0.3449 -0.2608  0.1049
 3368POPC   C3B78388  22.950  25.620   7.481 -0.1620 -0.1087  0.0496
 3368POPC   C4B78389  22.510  25.765   7.695 -0.0032 -0.0126  0.0036
 3369POPC   NC378390  26.123   1.186   5.375  0.2549  0.0427  0.1076
 3369POPC   PO478391  25.707   1.184   5.412  0.2937  0.0449  0.1093
 3369POPC   GL178392  25.808   1.057   5.692 -0.1345  0.1543 -0.3049
 3369POPC   GL278393  26.085   1.077   5.872 -0.0820  0.3948 -0.0425
 3369POPC   C1A78394  25.684   0.796   6.036  0.3919 -0.0923  0.2019
 3369POPC   D2A78395  25.700   0.378   6.183 -0.1225  0.1490 -0.2253
 3369POPC   C3A78396  25.712   0.335   6.680  0.1116  0.0814  0.1799
 3369POPC   C4A78397  25.701   0.119   7.073  0.0158  0.1092 -0.0019
 3369POPC   C1B78398  26.259   1.017   6.285 -0.1542  0.0333 -0.0074
 3369POPC   C2B78399  26.278   1.097   6.753 -0.1790  0.1310  0.1540
 3369POPC   C3B78400  26.073   1.253   7.194 -0.3829 -0.1937  0.2855
 3369POPC   C4B78401  25.934   0.985   7.485  0.2103 -0.4354 -0.2090
 3370POPC   NC378402  22.662  25.528   5.903 -0.2529 -0.4029 -0.0628
 3370POPC   PO478403  22.361  25.283   5.780 -0.4302 -0.2824  0.1784
 3370POPC   GL178404  22.503  25.107   6.053  0.0168  0.1722 -0.5900
 3370POPC   GL278405  22.262  25.159   6.266 -0.2638  0.1502 -0.1849
 3370POPC   C1A78406  22.629  24.940   6.473 -0.0948 -0.2604  0.1819
 3370POPC   D2A78407  22.691  24.794   6.925 -0.0985  0.1653 -0.2093
 3370POPC   C3A78408  22.388  24.974   7.122  0.1883  0.1066  0.1371
 3370POPC   C4A78409  22.160  25.373   7.283  0.0185  0.3077  0.0811
 3370POPC   C1B78410  22.508  25.474   6.441  0.2644  0.3538  0.0281
 3370POPC   C2B78411  22.751  25.868   6.601 -0.0441 -0.0738 -0.0250
 3370POPC   C3B78412  23.078  26.041   6.792 -0.0252 -0.0214  0.0155
 3370POPC   C4B78413  23.259  26.472   6.823  0.0835  0.1305 -0.2188
 3371POPC   NC378414  27.634  25.663   6.570  0.0963  0.1011 -0.0618
 3371POPC   PO478415  27.364  25.390   6.629  0.1992 -0.1152 -0.1264
 3371POPC   GL178416  27.219  25.601   6.943 -0.1668  0.3818 -0.1265
 3371POPC   GL278417  27.332  25.460   7.226  0.2531 -0.1630 -0.2714
 3371POPC   C1A78418  27.315  26.052   7.054 -0.0160  0.0183  0.2297
 3371POPC   D2A78419  27.615  26.309   7.305  0.2126 -0.1010 -0.1420
 3371POPC   C3A78420  27.692  26.534   7.647  0.2043  0.1657 -0.2775
 3371POPC   C4A78421  27.538  26.577   8.113  0.3481 -0.2601  0.1345
 3371POPC   C1B78422  27.629  25.785   7.385  0.0265  0.1414  0.1242
 3371POPC   C2B78423  27.799  25.993   7.848  0.2085 -0.2288  0.1058
 3371POPC   C3B78424  27.653  26.146   8.262  0.0802 -0.1418  0.1583
 3371POPC   C4B78425  27.547  26.445   8.620 -0.0280  0.0180 -0.1610
 3372POPC   NC378426  25.195  22.791  10.476 -0.0818 -0.0282  0.0392
 3372POPC   PO478427  25.421  22.451  10.546  0.2157 -0.1688  0.1316
 3372POPC   GL178428  25.122  22.294  10.645  0.0599 -0.0157  0.5790
 3372POPC   GL278429  24.953  22.368  10.897  0.2925 -0.1851  0.0321
 3372POPC   C1A78430  24.959  21.825  10.702  0.3751  0.2274  0.3934
 3372POPC   D2A78431  24.980  21.335  10.829 -0.0611  0.1283  0.2653
 3372POPC   C3A78432  25.330  21.170  11.048  0.1635  0.1361  0.1800
 3372POPC   C4A78433  25.741  20.989  11.321  0.1296 -0.3180  0.0396
 3372POPC   C1B78434  24.517  22.530  11.034 -0.2882 -0.0388  0.1569
 3372POPC   C2B78435  24.228  22.489  11.390  0.2089 -0.3904  0.0569
 3372POPC   C3B78436  23.959  22.490  11.728  0.4636  0.0767  0.0130
 3372POPC   C4B78437  23.867  22.844  12.004 -0.1251  0.0767  0.2879
 3373POPC   NC378438  17.161  29.661   4.081 -0.3401  0.1254  0.0915
 3373POPC   PO478439  16.812  29.570   3.930  0.2229  0.1398  0.1131
 3373POPC   GL178440  16.790  29.656   4.335 -0.0454  0.0331 -0.4137
 3373POPC   GL278441  16.783  29.533   4.706  0.0586  0.0707  0.0163
 3373POPC   C1A78442  17.131  29.882   4.570  0.2793 -0.1900  0.0568
 3373POPC   D2A78443  17.487  29.860   4.888 -0.0318  0.0528  0.0069
 3373POPC   C3A78444  17.617  29.788   5.328 -0.3329  0.0024 -0.1398
 3373POPC   C4A78445  17.711  29.989   5.726  0.0725  0.1004  0.2878
 3373POPC   C1B78446  16.697  29.732   5.074  0.0715  0.0859  0.1109
 3373POPC   C2B78447  16.603  29.935   5.530 -0.1994  0.1577 -0.0526
 3373POPC   C3B78448  16.331  29.908   5.923  0.0602 -0.1847  0.0070
 3373POPC   C4B78449  16.280  30.089   6.316  0.0077  0.0381 -0.1713
 3374POPC   NC378450  26.957  16.941   5.012 -0.1399  0.2307  0.3003
 3374POPC   PO478451  27.123  17.285   4.957 -0.1515  0.0899  0.1880
 3374POPC   GL178452  27.294  17.266   5.280 -0.2375 -0.1021 -0.4295
 3374POPC   GL278453  27.129  17.244   5.519  0.2949  0.1141 -0.2098
 3374POPC   C1A78454  27.632  17.032   5.554  0.1207 -0.1221  0.1791
 3374POPC   D2A78455  27.745  16.979   5.980 -0.0449 -0.2807  0.0260
 3374POPC   C3A78456  27.539  17.114   6.343 -0.2146  0.1126 -0.0394
 3374POPC   C4A78457  27.219  17.100   6.650  0.0242 -0.1599  0.0357
 3374POPC   C1B78458  27.181  17.265   6.011 -0.0050 -0.1086 -0.2409
 3374POPC   C2B78459  26.966  16.901   6.283 -0.4603 -0.0670 -0.1631
 3374POPC   C3B78460  26.709  16.580   6.506  0.1303 -0.0366 -0.0675
 3374POPC   C4B78461  26.475  16.187   6.694 -0.0482  0.1278  0.0310
 3375POPC   NC378462  22.389  22.027   6.474  0.3178 -0.1685  0.0053
 3375POPC   PO478463  22.143  21.872   6.221  0.1489 -0.0268  0.0877
 3375POPC   GL178464  22.064  21.688   6.654  0.2822 -0.2604  0.2878
 3375POPC   GL278465  21.833  21.594   6.491 -0.3523  0.0135 -0.0762
 3375POPC   C1A78466  21.952  21.290   6.883  0.0940  0.1967 -0.0251
 3375POPC   D2A78467  21.757  20.850   7.037  0.2206  0.1322  0.3353
 3375POPC   C3A78468  21.880  20.614   7.420  0.2277 -0.0297  0.1749
 3375POPC   C4A78469  21.767  20.224   7.650  0.3391  0.0062 -0.1675
 3375POPC   C1B78470  21.564  21.547   6.829 -0.5241  0.0391 -0.2472
 3375POPC   C2B78471  21.514  21.333   7.188  0.2139  0.3905  0.1116
 3375POPC   C3B78472  21.168  21.206   7.510 -0.1438  0.0911 -0.1196
 3375POPC   C4B78473  21.246  20.838   7.874 -0.0434 -0.2472  0.4621
 3376POPC   NC378474  21.516  23.434   6.332  0.0359  0.4059  0.0824
 3376POPC   PO478475  21.774  23.139   6.326 -0.1048 -0.3828  0.0092
 3376POPC   GL178476  21.816  23.149   6.747 -0.3015  0.0724 -0.2965
 3376POPC   GL278477  22.069  23.132   6.930  0.1812 -0.1024  0.0245
 3376POPC   C1A78478  21.516  23.277   7.071 -0.1232  0.2446 -0.3088
 3376POPC   D2A78479  21.205  23.290   7.434 -0.0617 -0.0128 -0.0131
 3376POPC   C3A78480  21.287  23.490   7.882  0.2341 -0.0548  0.0229
 3376POPC   C4A78481  21.238  23.701   8.296 -0.0051 -0.0223 -0.2911
 3376POPC   C1B78482  21.847  23.092   7.380  0.2625  0.0079 -0.1255
 3376POPC   C2B78483  21.613  23.085   7.751 -0.0242 -0.0730  0.0790
 3376POPC   C3B78484  21.751  23.372   8.128  0.1099  0.1962 -0.0316
 3376POPC   C4B78485  21.893  23.751   8.347 -0.3069  0.0953  0.0801
 3377POPC   NC378486  30.359  32.078   3.729 -0.1080  0.0410 -0.0191
 3377POPC   PO478487  30.505  32.347   3.954  0.0183 -0.2701  0.0552
 3377POPC   GL178488  30.599  32.333   4.399  0.2750 -0.1264 -0.1786
 3377POPC   GL278489  30.351  32.336   4.528 -0.3285 -0.0454 -0.4171
 3377POPC   C1A78490  30.621  31.972   4.715 -0.1882  0.0212 -0.3240
 3377POPC   D2A78491  30.587  31.577   5.010 -0.1111 -0.0458  0.1617
 3377POPC   C3A78492  30.367  31.282   4.736  0.2305 -0.3527  0.0334
 3377POPC   C4A78493  30.048  30.873   4.736 -0.0101  0.1725 -0.0179
 3377POPC   C1B78494  30.301  32.436   4.985 -0.0117  0.1302  0.0888
 3377POPC   C2B78495  30.469  32.427   5.402  0.1032 -0.3904  0.0618
 3377POPC   C3B78496  30.634  32.348   5.854  0.1130 -0.1222  0.0286
 3377POPC   C4B78497  30.899  32.195   6.226  0.1491  0.3717  0.1697
 3378POPC   NC378498  18.983   0.335   3.853  0.2465  0.0889 -0.0168
 3378POPC   PO478499  19.146   0.054   4.029  0.1127 -0.2708 -0.0171
 3378POPC   GL178500  19.136  -0.112   4.450  0.0671 -0.3890 -0.0898
 3378POPC   GL278501  18.862  -0.185   4.405 -0.1841 -0.3252 -0.0091
 3378POPC   C1A78502  19.299  -0.430   4.658 -0.2012  0.1675 -0.1526
 3378POPC   D2A78503  19.603  -0.775   4.804 -0.0618  0.0385 -0.0430
 3378POPC   C3A78504  19.612  -0.843   5.254 -0.0096  0.3442  0.2138
 3378POPC   C4A78505  19.649  -0.904   5.721  0.0719  0.0202 -0.1567
 3378POPC   C1B78506  18.956  -0.012   4.832 -0.1237  0.1224  0.0690
 3378POPC   C2B78507  18.968  -0.016   5.270  0.1799 -0.0056  0.1799
 3378POPC   C3B78508  18.861  -0.094   5.664 -0.2645 -0.0298  0.0357
 3378POPC   C4B78509  18.783  -0.167   6.127 -0.1763  0.2424 -0.0243
 3379POPC   NC378510  28.138  24.419   7.476 -0.1300 -0.2315 -0.0953
 3379POPC   PO478511  28.032  24.096   7.699 -0.2595  0.1327 -0.1045
 3379POPC   GL178512  28.307  24.188   7.995  0.0335 -0.1098  0.0178
 3379POPC   GL278513  28.540  23.963   8.080  0.2072 -0.1764 -0.1392
 3379POPC   C1A78514  28.480  24.603   8.169  0.1936 -0.4511  0.2076
 3379POPC   D2A78515  28.768  24.828   8.440 -0.2365 -0.0825 -0.5049
 3379POPC   C3A78516  28.884  25.000   8.864 -0.0650  0.0698 -0.0013
 3379POPC   C4A78517  28.675  25.123   9.260 -0.3621  0.0708 -0.0029
 3379POPC   C1B78518  28.852  24.266   8.309  0.0244  0.1474 -0.1030
 3379POPC   C2B78519  29.112  24.465   8.608  0.0524 -0.0860  0.0649
 3379POPC   C3B78520  29.284  24.643   9.017 -0.1682 -0.1886 -0.0925
 3379POPC   C4B78521  29.154  24.989   9.300 -0.3491 -0.1119  0.1692
 3380POPC   NC378522  18.286  23.486   5.133  0.0175  0.2266  0.0825
 3380POPC   PO478523  18.682  23.604   5.139  0.0452 -0.0553 -0.0775
 3380POPC   GL178524  18.683  23.389   5.470  0.2753  0.0106 -0.1046
 3380POPC   GL278525  18.793  23.132   5.587 -0.3118  0.0531 -0.1155
 3380POPC   C1A78526  18.574  23.437   5.918 -0.0758  0.0788 -0.1518
 3380POPC   D2A78527  18.332  23.650   6.249  0.1085  0.0160 -0.0585
 3380POPC   C3A78528  18.553  23.827   6.591  0.2136 -0.1937 -0.0517
 3380POPC   C4A78529  18.502  23.858   7.055 -0.3061 -0.0623  0.3043
 3380POPC   C1B78530  18.561  22.888   5.903 -0.0113 -0.1096  0.1506
 3380POPC   C2B78531  18.364  22.861   6.301 -0.1958 -0.2810  0.0344
 3380POPC   C3B78532  18.173  22.809   6.782 -0.2406 -0.1704 -0.0456
 3380POPC   C4B78533  18.040  22.904   7.233  0.1965  0.0919  0.1926
 3381POPC   NC378534  29.337  16.558   4.180 -0.2601  0.1334  0.3042
 3381POPC   PO478535  29.400  16.936   4.093  0.0826 -0.2220  0.0468
 3381POPC   GL178536  29.385  16.962   4.512  0.0718  0.0992 -0.0187
 3381POPC   GL278537  29.559  16.840   4.552  0.2329 -0.0954  0.0648
 3381POPC   C1A78538  29.530  17.119   4.968  0.1095  0.2829  0.0550
 3381POPC   D2A78539  29.931  17.195   4.973  0.0384  0.1684 -0.0635
 3381POPC   C3A78540  30.047  17.545   5.236  0.0388  0.0341  0.1686
 3381POPC   C4A78541  30.073  17.594   5.723 -0.0545 -0.0171  0.1252
 3381POPC   C1B78542  29.409  16.643   4.919  0.2681  0.0376 -0.1288
 3381POPC   C2B78543  29.348  16.360   5.267  0.1794  0.2990 -0.1906
 3381POPC   C3B78544  28.945  16.252   5.494  0.1381 -0.2567  0.3621
 3381POPC   C4B78545  28.794  16.217   5.938 -0.2128  0.0911 -0.1188
 3382POPC   NC378546  25.695  21.571   8.729 -0.1432 -0.1675  0.2472
 3382POPC   PO478547  25.821  21.287   8.531 -0.1239 -0.1146 -0.1555
 3382POPC   GL178548  25.446  21.094   8.712  0.1993  0.2369  0.0260
 3382POPC   GL278549  25.523  20.818   8.899  0.3577  0.1086 -0.1586
 3382POPC   C1A78550  25.267  20.757   8.484  0.3333  0.3683 -0.2452
 3382POPC   D2A78551  25.204  20.379   8.741  0.2407 -0.1229 -0.3267
 3382POPC   C3A78552  25.321  20.435   9.194  0.1733 -0.2735  0.3158
 3382POPC   C4A78553  25.665  20.708   9.390  0.1242  0.0823 -0.1470
 3382POPC   C1B78554  25.055  20.884   8.986  0.0194 -0.0293 -0.0978
 3382POPC   C2B78555  24.759  20.642   9.260 -0.3120 -0.0532 -0.1133
 3382POPC   C3B78556  24.608  20.572   9.654 -0.5713 -0.2711 -0.2513
 3382POPC   C4B78557  24.400  20.881   9.971  0.0687 -0.2523  0.2381
 3383POPC   NC378558  25.698  24.698   7.104  0.0494  0.0767 -0.2221
 3383POPC   PO478559  25.947  24.947   6.954  0.0650  0.0264 -0.0673
 3383POPC   GL178560  26.157  25.101   7.239 -0.2620  0.2732 -0.1282
 3383POPC   GL278561  26.175  25.052   7.519 -0.0702 -0.0843  0.2645
 3383POPC   C1A78562  26.383  25.541   7.292  0.1957 -0.1811 -0.1407
 3383POPC   D2A78563  26.618  25.811   7.585 -0.1511 -0.1122 -0.2236
 3383POPC   C3A78564  26.757  25.899   8.022 -0.3530  0.1938  0.0208
 3383POPC   C4A78565  26.660  26.137   8.429 -0.1158  0.1744 -0.2021
 3383POPC   C1B78566  25.977  25.322   7.819  0.1893  0.0957 -0.0639
 3383POPC   C2B78567  26.030  25.321   8.261  0.2305 -0.5111  0.1674
 3383POPC   C3B78568  26.189  25.183   8.690  0.0182  0.3748 -0.0931
 3383POPC   C4B78569  26.264  25.080   9.174  0.2945  0.0752 -0.2866
 3384POPC   NC378570  27.703   0.331   4.426 -0.0412  0.3676  0.1996
 3384POPC   PO478571  27.349   0.226   4.442  0.0967 -0.2656 -0.1725
 3384POPC   GL178572  27.415   0.040   4.803 -0.1783 -0.1776  0.5609
 3384POPC   GL278573  27.703   0.023   4.840  0.1513 -0.0623 -0.1922
 3384POPC   C1A78574  27.404   0.271   5.198 -0.1327  0.1305  0.0672
 3384POPC   D2A78575  27.528   0.391   5.677  0.0475  0.1972  0.0898
 3384POPC   C3A78576  27.438   0.048   5.989 -0.1131 -0.2393  0.1103
 3384POPC   C4A78577  27.356  -0.311   6.206 -0.1531 -0.1515  0.0727
 3384POPC   C1B78578  27.886   0.087   5.300 -0.0100  0.2199  0.0004
 3384POPC   C2B78579  27.935   0.029   5.789 -0.1258  0.1429 -0.1821
 3384POPC   C3B78580  28.226  -0.258   5.996  0.3044  0.1655 -0.2823
 3384POPC   C4B78581  28.576  -0.153   6.286  0.3520  0.1409 -0.1938
 3385POPC   NC378582  19.727  30.363   3.905  0.1255  0.3812 -0.0548
 3385POPC   PO478583  19.359  30.562   3.971  0.1247 -0.1538  0.2482
 3385POPC   GL178584  19.288  30.364   4.279  0.1803  0.1960 -0.3541
 3385POPC   GL278585  19.380  30.058   4.231  0.1542 -0.0868 -0.0401
 3385POPC   C1A78586  19.010  30.463   4.657 -0.0423 -0.0313  0.0949
 3385POPC   D2A78587  18.920  30.392   5.127 -0.2557  0.2340  0.0644
 3385POPC   C3A78588  19.176  30.589   5.418  0.2809 -0.1369  0.0363
 3385POPC   C4A78589  19.247  30.760   5.834 -0.0146  0.0744 -0.4471
 3385POPC   C1B78590  19.655  30.111   4.613 -0.1013 -0.3945  0.1526
 3385POPC   C2B78591  19.705  29.938   4.987  0.0421  0.5228  0.1916
 3385POPC   C3B78592  19.592  29.689   5.348 -0.1907  0.0972 -0.1480
 3385POPC   C4B78593  19.637  29.448   5.759  0.0610  0.0972 -0.2130
 3386POPC   NC378594  20.693  25.564   4.270  0.2232 -0.1896  0.1154
 3386POPC   PO478595  20.500  25.724   4.584  0.0086 -0.2572 -0.1036
 3386POPC   GL178596  20.197  25.843   4.876 -0.2830 -0.2015 -0.2576
 3386POPC   GL278597  20.438  25.976   5.105 -0.1397  0.3099  0.1754
 3386POPC   C1A78598  19.933  26.169   5.036  0.1238 -0.4466 -0.0270
 3386POPC   D2A78599  19.725  26.574   5.108  0.0409  0.0432  0.1388
 3386POPC   C3A78600  19.505  26.721   5.479 -0.1894  0.0983 -0.0071
 3386POPC   C4A78601  19.174  26.988   5.621 -0.4488 -0.1021 -0.0028
 3386POPC   C1B78602  20.119  26.053   5.479  0.0061  0.1463 -0.0040
 3386POPC   C2B78603  20.112  26.198   5.917 -0.1625  0.1243 -0.1934
 3386POPC   C3B78604  20.103  26.160   6.364 -0.1868 -0.2018  0.0648
 3386POPC   C4B78605  20.220  26.127   6.829 -0.0565  0.3293 -0.0541
 3387POPC   NC378606  27.590  21.453   8.156  0.5158  0.2611  0.0796
 3387POPC   PO478607  27.735  21.792   8.294  0.0298  0.0804 -0.0038
 3387POPC   GL178608  27.894  21.505   8.484 -0.2257  0.3512 -0.1712
 3387POPC   GL278609  28.151  21.572   8.695  0.0828  0.1657 -0.3657
 3387POPC   C1A78610  27.886  21.079   8.446 -0.3547  0.1975 -0.0040
 3387POPC   D2A78611  28.072  20.719   8.643  0.0317 -0.0468  0.2380
 3387POPC   C3A78612  28.176  20.445   8.306 -0.2952  0.1787  0.0374
 3387POPC   C4A78613  28.589  20.371   8.168 -0.0792 -0.0149  0.0273
 3387POPC   C1B78614  28.445  21.237   8.601  0.0863 -0.2640  0.1998
 3387POPC   C2B78615  28.870  21.417   8.648  0.1008  0.0109 -0.1897
 3387POPC   C3B78616  29.299  21.268   8.578  0.1326 -0.1457 -0.1922
 3387POPC   C4B78617  29.773  21.361   8.550 -0.0050 -0.1238 -0.2753
 3388POPC   NC378618  29.375  31.933   3.698 -0.0783  0.1254 -0.1023
 3388POPC   PO478619  29.466  31.727   4.026 -0.0144  0.2298 -0.1417
 3388POPC   GL178620  29.599  31.570   4.315 -0.2021 -0.3766  0.0836
 3388POPC   GL278621  29.497  31.317   4.454  0.2903 -0.0069 -0.2903
 3388POPC   C1A78622  29.636  31.791   4.746  0.1019 -0.0532 -0.1598
 3388POPC   D2A78623  29.384  31.956   5.165 -0.0573  0.0423  0.0111
 3388POPC   C3A78624  29.632  32.044   5.609 -0.1213  0.0437  0.0425
 3388POPC   C4A78625  29.976  31.763   5.696  0.3236  0.2827 -0.0030
 3388POPC   C1B78626  29.393  31.394   4.897 -0.1460 -0.3207  0.0718
 3388POPC   C2B78627  29.018  31.559   5.091 -0.1140  0.1541  0.3309
 3388POPC   C3B78628  28.873  31.775   5.491  0.1745 -0.0349 -0.1628
 3388POPC   C4B78629  28.644  31.760   5.885 -0.1135  0.2288 -0.3431
 3389POPC   NC378630  29.724  29.029   4.686  0.4028 -0.0053  0.0979
 3389POPC   PO478631  29.976  28.830   4.553 -0.1118  0.0289 -0.3543
 3389POPC   GL178632  29.856  28.584   4.765  0.1600  0.0683 -0.2438
 3389POPC   GL278633  30.174  28.455   4.889 -0.0062  0.0866 -0.0159
 3389POPC   C1A78634  29.904  28.660   5.213 -0.0709  0.0460  0.1331
 3389POPC   D2A78635  29.674  28.684   5.642 -0.0597  0.0286  0.0110
 3389POPC   C3A78636  29.738  29.016   5.994  0.1771  0.2229 -0.0918
 3389POPC   C4A78637  29.729  29.156   6.474  0.0841  0.1206 -0.0165
 3389POPC   C1B78638  30.533  28.734   5.205 -0.0568  0.2062  0.1806
 3389POPC   C2B78639  30.925  28.855   5.388 -0.0347  0.0593  0.0065
 3389POPC   C3B78640  31.257  28.758   5.697 -0.0384  0.2032  0.0758
 3389POPC   C4B78641  31.446  29.097   5.989 -0.0967 -0.0109  0.0620
 3390POPC   NC378642  23.687  22.917   8.194 -0.2257  0.0617 -0.3016
 3390POPC   PO478643  23.852  23.136   7.903 -0.0965 -0.3278 -0.0733
 3390POPC   GL178644  23.756  23.385   8.177  0.1178  0.2503 -0.6327
 3390POPC   GL278645  23.804  23.689   8.160 -0.0561  0.2231 -0.1854
 3390POPC   C1A78646  23.385  23.496   8.425  0.1961 -0.0801 -0.2249
 3390POPC   D2A78647  23.032  23.498   8.685  0.1573  0.0939 -0.0312
 3390POPC   C3A78648  22.700  23.196   8.572  0.0115 -0.0723  0.1943
 3390POPC   C4A78649  22.649  23.013   8.152  0.1602 -0.3452 -0.1292
 3390POPC   C1B78650  23.601  24.032   8.381  0.0735  0.0810  0.2164
 3390POPC   C2B78651  23.286  23.996   8.759  0.0556  0.0302 -0.1910
 3390POPC   C3B78652  22.971  24.142   9.107  0.2077  0.1602 -0.3718
 3390POPC   C4B78653  22.802  24.482   9.413  0.2216 -0.3060 -0.0524
 3391POPC   NC378654  17.023  17.866   4.556  0.2671  0.1506  0.1763
 3391POPC   PO478655  17.214  18.203   4.369 -0.0658  0.1752  0.0043
 3391POPC   GL178656  17.495  18.108   4.730 -0.0097  0.0155  0.0939
 3391POPC   GL278657  17.523  18.337   4.897 -0.2772 -0.1257  0.0767
 3391POPC   C1A78658  17.440  17.752   4.975  0.0072 -0.1023  0.0113
 3391POPC   D2A78659  17.342  17.393   5.254  0.0732  0.0555  0.0681
 3391POPC   C3A78660  17.147  17.136   5.646 -0.4577 -0.0946 -0.2379
 3391POPC   C4A78661  16.813  16.888   5.738 -0.0501  0.0277 -0.3076
 3391POPC   C1B78662  17.175  18.163   5.142  0.0759  0.2637  0.0237
 3391POPC   C2B78663  16.809  17.849   4.997 -0.0122  0.0351  0.1271
 3391POPC   C3B78664  16.374  17.648   4.964 -0.1356 -0.1733  0.3134
 3391POPC   C4B78665  16.042  17.325   4.895 -0.0377 -0.3256 -0.2442
 3392POPC   NC378666  27.075  28.361   5.335 -0.0023  0.2846 -0.0166
 3392POPC   PO478667  27.069  28.696   5.095 -0.4769 -0.2675 -0.1703
 3392POPC   GL178668  27.378  28.919   5.333  0.2141  0.1652  0.2240
 3392POPC   GL278669  27.308  29.249   5.377  0.0576 -0.0890  0.0323
 3392POPC   C1A78670  27.741  29.047   5.585 -0.1288  0.0211  0.0219
 3392POPC   D2A78671  27.926  29.121   5.999  0.4562  0.1964  0.3237
 3392POPC   C3A78672  27.949  28.805   6.364 -0.0475  0.2243  0.1861
 3392POPC   C4A78673  27.945  28.644   6.774  0.4987 -0.0097  0.0730
 3392POPC   C1B78674  27.567  29.489   5.695 -0.1989  0.1393  0.1269
 3392POPC   C2B78675  27.671  29.509   6.127  0.2225  0.1112  0.2973
 3392POPC   C3B78676  27.642  29.367   6.557 -0.2857 -0.1239  0.1255
 3392POPC   C4B78677  27.366  29.261   6.906  0.2054  0.2381  0.2821
 3393POPC   NC378678   0.577  18.936   5.049 -0.0366 -0.0433 -0.2938
 3393POPC   PO478679   0.898  19.104   4.881 -0.0394 -0.1492  0.3570
 3393POPC   GL178680   0.850  19.228   5.243 -0.0487  0.2831 -0.0115
 3393POPC   GL278681   0.888  19.051   5.463 -0.1243 -0.0826 -0.0040
 3393POPC   C1A78682   0.490  19.389   5.454  0.3086 -0.0975 -0.2496
 3393POPC   D2A78683   0.146  19.300   5.778  0.4716 -0.1484  0.3526
 3393POPC   C3A78684   0.262  19.030   6.219 -0.1640  0.0050 -0.1010
 3393POPC   C4A78685   0.504  18.670   6.404 -0.2691 -0.1905  0.0300
 3393POPC   C1B78686   0.786  19.122   5.910 -0.2328 -0.0397 -0.0690
 3393POPC   C2B78687   0.835  19.495   6.204 -0.2410 -0.1658  0.0433
 3393POPC   C3B78688   1.031  19.577   6.604 -0.1817 -0.2623 -0.4228
 3393POPC   C4B78689   0.814  19.592   7.020 -0.2577 -0.0294  0.0127
 3394POPC   NC378690  26.301  27.324   5.410  0.1034 -0.1190  0.3445
 3394POPC   PO478691  26.564  27.581   5.354  0.0129  0.1406  0.0817
 3394POPC   GL178692  26.388  27.952   5.539 -0.2685 -0.2558 -0.0037
 3394POPC   GL278693  26.557  28.144   5.451 -0.1233  0.2427  0.0362
 3394POPC   C1A78694  26.182  28.094   5.948  0.2515  0.0826  0.1647
 3394POPC   D2A78695  25.806  28.176   6.187  0.0590 -0.1992  0.1290
 3394POPC   C3A78696  25.499  27.941   6.471  0.1543  0.0787 -0.1285
 3394POPC   C4A78697  25.228  27.672   6.643 -0.2669 -0.0468 -0.0469
 3394POPC   C1B78698  26.717  28.615   5.634 -0.0517 -0.1296 -0.1087
 3394POPC   C2B78699  27.102  28.887   5.767  0.1793 -0.0682 -0.0334
 3394POPC   C3B78700  27.171  29.282   5.870  0.3364 -0.1590 -0.2693
 3394POPC   C4B78701  27.013  29.758   5.865 -0.2328  0.2485 -0.0266
 3395POPC   NC378702  31.422  26.496   4.673  0.1525  0.0759 -0.1924
 3395POPC   PO478703  31.703  26.748   4.627  0.0005  0.0141 -0.6461
 3395POPC   GL178704  31.869  26.831   4.888 -0.0659 -0.0381  0.0270
 3395POPC   GL278705  31.728  27.095   4.997 -0.1033  0.2855  0.0656
 3395POPC   C1A78706  32.004  26.724   5.303 -0.1816 -0.0095 -0.1566
 3395POPC   D2A78707  32.374  26.508   5.451 -0.0708 -0.3404 -0.1697
 3395POPC   C3A78708  32.586  26.677   5.789  0.3342  0.0408 -0.1655
 3395POPC   C4A78709  32.706  26.638   6.217 -0.2070  0.0476  0.0766
 3395POPC   C1B78710  31.788  27.190   5.455  0.0312 -0.1803 -0.1081
 3395POPC   C2B78711  31.878  27.235   5.910 -0.0088  0.3973  0.0150
 3395POPC   C3B78712  31.773  27.155   6.356  0.3178  0.2086  0.1827
 3395POPC   C4B78713  31.786  27.205   6.775 -0.0076  0.1930  0.4204
 3396POPC   NC378714  20.492  21.221   5.302 -0.2293 -0.2293  0.2675
 3396POPC   PO478715  20.205  21.485   5.273  0.1190 -0.0262 -0.2735
 3396POPC   GL178716  19.880  21.250   5.543  0.5297  0.2095 -0.0312
 3396POPC   GL278717  20.016  21.019   5.373  0.1144 -0.4754  0.3748
 3396POPC   C1A78718  19.856  21.454   5.995  0.0783 -0.1594  0.0881
 3396POPC   D2A78719  20.032  21.265   6.420 -0.0412  0.2242 -0.1748
 3396POPC   C3A78720  19.903  21.235   6.835  0.1301 -0.0414 -0.1732
 3396POPC   C4A78721  19.719  21.005   7.187 -0.0143  0.1757 -0.5190
 3396POPC   C1B78722  19.849  20.805   5.729 -0.2600 -0.4266  0.1085
 3396POPC   C2B78723  20.001  20.637   6.140 -0.3297 -0.1574  0.1034
 3396POPC   C3B78724  20.020  20.463   6.558 -0.2265  0.1962 -0.6051
 3396POPC   C4B78725  19.932  20.383   7.045 -0.0621  0.0202 -0.1455
 3397POPC   NC378726  18.150  21.297   5.219 -0.0146 -0.0209 -0.1560
 3397POPC   PO478727  18.057  21.059   4.970  0.4404  0.0227 -0.0762
 3397POPC   GL178728  18.113  20.723   5.234  0.1177 -0.2828  0.1019
 3397POPC   GL278729  17.917  20.901   5.421  0.0682  0.1612 -0.1498
 3397POPC   C1A78730  18.368  20.686   5.595  0.1641  0.0927  0.0210
 3397POPC   D2A78731  18.655  20.454   5.883  0.0504  0.1340  0.2491
 3397POPC   C3A78732  18.730  20.556   6.300  0.0544 -0.1003 -0.0928
 3397POPC   C4A78733  18.480  20.332   6.676 -0.1699 -0.0485  0.1777
 3397POPC   C1B78734  17.975  21.001   5.861  0.1064  0.1729 -0.2494
 3397POPC   C2B78735  17.829  21.038   6.282  0.0708 -0.2614 -0.3440
 3397POPC   C3B78736  17.767  20.935   6.724  0.1045 -0.2602 -0.0067
 3397POPC   C4B78737  17.943  20.698   7.083  0.1447 -0.0906 -0.1083
 3398POPC   NC378738  27.077  18.443   5.574  0.1771  0.1471  0.2793
 3398POPC   PO478739  27.120  18.032   5.686 -0.0647  0.0400  0.1766
 3398POPC   GL178740  27.167  17.736   5.840 -0.0419  0.4191 -0.0073
 3398POPC   GL278741  27.066  17.775   6.108  0.0332  0.6251  0.3133
 3398POPC   C1A78742  27.562  17.502   5.906  0.2465  0.0882 -0.0701
 3398POPC   D2A78743  27.927  17.417   6.120 -0.0436  0.0168 -0.1397
 3398POPC   C3A78744  28.075  17.180   6.472  0.0960 -0.3788  0.0817
 3398POPC   C4A78745  28.253  17.040   6.889 -0.1200 -0.4568 -0.0323
 3398POPC   C1B78746  27.329  17.681   6.504  0.2061  0.2789 -0.1617
 3398POPC   C2B78747  27.621  17.452   6.753  0.0101 -0.2699  0.1427
 3398POPC   C3B78748  27.456  17.191   7.103 -0.2129  0.0204  0.1750
 3398POPC   C4B78749  27.448  16.683   7.166 -0.0416 -0.1007  0.1010
 3399POPC   NC378750  28.608  24.211   7.081 -0.2442 -0.1062 -0.0312
 3399POPC   PO478751  28.911  24.367   7.345  0.4997 -0.1356 -0.1398
 3399POPC   GL178752  29.070  24.562   7.681 -0.4696  0.1353  0.2770
 3399POPC   GL278753  28.891  24.832   7.691 -0.1400  0.0499 -0.0493
 3399POPC   C1A78754  29.188  24.569   8.118 -0.1577 -0.0683 -0.2182
 3399POPC   D2A78755  29.222  24.989   8.281  0.0825 -0.1357  0.0480
 3399POPC   C3A78756  29.455  25.083   8.693  0.2269  0.1314  0.0269
 3399POPC   C4A78757  29.473  25.358   9.099  0.1155 -0.0838 -0.2361
 3399POPC   C1B78758  28.793  25.168   8.026  0.0552  0.2101 -0.2569
 3399POPC   C2B78759  28.900  25.321   8.424  0.4100  0.1080 -0.4997
 3399POPC   C3B78760  29.165  25.541   8.718  0.4522 -0.4515 -0.0495
 3399POPC   C4B78761  29.147  25.930   8.954 -0.0866 -0.0793 -0.1306
 3400POPC   NC378762  20.846  25.736   4.990 -0.0682 -0.1071  0.1954
 3400POPC   PO478763  21.153  25.468   5.064 -0.3610  0.1195  0.2862
 3400POPC   GL178764  21.074  25.598   5.400  0.2435  0.0298  0.2599
 3400POPC   GL278765  21.249  25.834   5.398  0.1671  0.1768  0.1270
 3400POPC   C1A78766  20.739  25.575   5.744 -0.3300  0.3959  0.1948
 3400POPC   D2A78767  20.246  25.657   5.795 -0.0557 -0.0325 -0.0566
 3400POPC   C3A78768  20.019  25.681   6.181 -0.0678  0.1699  0.2497
 3400POPC   C4A78769  19.667  25.860   6.403 -0.2170  0.2869  0.2980
 3400POPC   C1B78770  21.242  26.012   5.774  0.1812  0.1063 -0.0327
 3400POPC   C2B78771  21.053  26.361   6.076 -0.2534 -0.2160  0.1448
 3400POPC   C3B78772  21.019  26.839   6.258  0.3700  0.3191 -0.3809
 3400POPC   C4B78773  21.356  27.033   6.495 -0.0093 -0.1778 -0.1556
 3401POPC   NC378774  26.471  23.030  12.938  0.1880  0.1582 -0.0889
 3401POPC   PO478775  26.231  23.242  12.662  0.0372 -0.1696 -0.0059
 3401POPC   GL178776  26.174  23.516  12.502 -0.1426  0.0988  0.4704
 3401POPC   GL278777  26.461  23.665  12.553  0.0452  0.1935  0.3122
 3401POPC   C1A78778  25.966  23.873  12.281  0.0605 -0.0426  0.0883
 3401POPC   D2A78779  25.660  24.212  12.241 -0.0938 -0.2518  0.3524
 3401POPC   C3A78780  25.473  24.410  11.889  0.3362 -0.1989 -0.1111
 3401POPC   C4A78781  25.287  24.796  11.719 -0.0513  0.1530 -0.2037
 3401POPC   C1B78782  26.438  24.076  12.393  0.3093 -0.0625  0.0934
 3401POPC   C2B78783  26.589  24.503  12.493 -0.3179  0.0031  0.1190
 3401POPC   C3B78784  26.735  24.938  12.558 -0.3265 -0.0831 -0.0076
 3401POPC   C4B78785  26.902  25.344  12.469  0.0787  0.0215  0.1346
 3402POPC   NC378786  17.515  21.964   4.705 -0.2731  0.1665 -0.3948
 3402POPC   PO478787  17.822  21.933   4.967 -0.1931  0.1165 -0.0283
 3402POPC   GL178788  17.575  21.895   5.364 -0.0324  0.0036  0.3761
 3402POPC   GL278789  17.792  21.752   5.410 -0.1331  0.3476 -0.1491
 3402POPC   C1A78790  17.378  22.262   5.620  0.2447  0.2271  0.0894
 3402POPC   D2A78791  17.015  22.509   5.861  0.0487 -0.1698 -0.1859
 3402POPC   C3A78792  16.924  22.423   6.281 -0.1917 -0.0957 -0.2575
 3402POPC   C4A78793  16.862  22.217   6.706 -0.1940  0.1669 -0.2344
 3402POPC   C1B78794  18.000  21.779   5.792 -0.1935  0.4102 -0.2759
 3402POPC   C2B78795  18.133  21.910   6.248  0.0955 -0.0674 -0.0612
 3402POPC   C3B78796  18.025  22.000   6.716 -0.0282 -0.0220  0.1209
 3402POPC   C4B78797  17.744  22.045   7.116 -0.1142 -0.0785 -0.1832
 3403POPC   NC378798  20.136  32.351   3.938  0.0014 -0.1632 -0.0698
 3403POPC   PO478799  20.301  32.522   4.212  0.1204 -0.1080 -0.3212
 3403POPC   GL178800  20.088  32.403   4.506 -0.1617 -0.1605  0.3551
 3403POPC   GL278801  20.255  32.289   4.770 -0.3644  0.0631  0.0900
 3403POPC   C1A78802  19.746  32.595   4.766 -0.1547 -0.0441  0.1028
 3403POPC   D2A78803  19.669  32.645   5.202 -0.1193  0.2008 -0.0242
 3403POPC   C3A78804  19.789  32.469   5.584 -0.1693  0.2197 -0.1014
 3403POPC   C4A78805  19.892  32.399   6.005  0.1105  0.2608  0.1249
 3403POPC   C1B78806  20.049  32.258   5.194  0.0875  0.1328 -0.0996
 3403POPC   C2B78807  20.087  32.035   5.598 -0.0505 -0.1141 -0.3647
 3403POPC   C3B78808  20.014  31.913   6.015 -0.3468  0.1328  0.1665
 3403POPC   C4B78809  19.765  31.515   6.033  0.2165  0.1592 -0.1551
 3404POPC   NC378810  20.958  17.617   4.764 -0.0631  0.0766  0.0681
 3404POPC   PO478811  21.314  17.661   4.975  0.3025  0.0274  0.1689
 3404POPC   GL178812  21.077  17.778   5.341  0.2844  0.2749  0.0849
 3404POPC   GL278813  20.926  17.531   5.299 -0.0211  0.1900 -0.1709
 3404POPC   C1A78814  21.112  17.858   5.770  0.2809 -0.1449 -0.1779
 3404POPC   D2A78815  21.013  17.936   6.276 -0.1490 -0.0653  0.0931
 3404POPC   C3A78816  20.986  17.644   6.643  0.0648  0.3099 -0.0555
 3404POPC   C4A78817  21.115  17.365   6.997 -0.1395 -0.0381 -0.0551
 3404POPC   C1B78818  20.714  17.623   5.715 -0.2112  0.4060 -0.0912
 3404POPC   C2B78819  20.414  17.652   6.090 -0.1356 -0.0050  0.3347
 3404POPC   C3B78820  20.360  17.716   6.554  0.0075 -0.2427 -0.0234
 3404POPC   C4B78821  20.402  17.578   6.996 -0.0690  0.0392  0.1791
 3405POPC   NC378822  29.530  30.081   4.453  0.1515 -0.1399  0.0359
 3405POPC   PO478823  29.837  30.271   4.229 -0.1475  0.1496 -0.1477
 3405POPC   GL178824  30.052  30.193   4.542 -0.0813  0.1848  0.3907
 3405POPC   GL278825  30.020  29.914   4.604 -0.1620  0.0928 -0.0871
 3405POPC   C1A78826  30.298  30.226   4.923  0.2837  0.4110 -0.2256
 3405POPC   D2A78827  30.510  30.646   4.898 -0.2373 -0.0518 -0.0013
 3405POPC   C3A78828  30.352  30.971   5.178  0.1852  0.0358 -0.2140
 3405POPC   C4A78829  30.213  31.375   5.283 -0.0850  0.1257 -0.0133
 3405POPC   C1B78830  30.303  29.736   5.013  0.1703 -0.1295 -0.2451
 3405POPC   C2B78831  30.373  30.009   5.421  0.0120  0.0009 -0.0474
 3405POPC   C3B78832  30.627  29.994   5.750 -0.1708 -0.0462 -0.0511
 3405POPC   C4B78833  31.114  30.139   5.683 -0.0507  0.0706  0.0676
 3406POPC   NC378834  14.558  23.797   5.443  0.0757  0.3338 -0.1396
 3406POPC   PO478835  14.903  23.687   5.665  0.2408  0.0938  0.0502
 3406POPC   GL178836  15.027  23.407   5.843  0.0128  0.1109 -0.5219
 3406POPC   GL278837  15.051  23.550   6.115  0.0115 -0.1210  0.1889
 3406POPC   C1A78838  15.439  23.345   5.899  0.1249 -0.0844 -0.0004
 3406POPC   D2A78839  15.668  23.438   6.287  0.1340 -0.0230  0.0355
 3406POPC   C3A78840  15.695  23.190   6.645 -0.4658 -0.1355  0.1585
 3406POPC   C4A78841  15.689  23.193   7.134  0.2818  0.3869  0.2901
 3406POPC   C1B78842  15.128  23.313   6.498 -0.2839 -0.0616  0.0157
 3406POPC   C2B78843  15.101  23.123   6.924  0.0159 -0.2640 -0.0216
 3406POPC   C3B78844  15.256  23.003   7.351 -0.1467  0.3079 -0.1718
 3406POPC   C4B78845  15.608  23.175   7.629  0.0524  0.0452 -0.1041
 3407POPC   NC378846  25.945  31.459   4.834 -0.0264  0.3133 -0.0739
 3407POPC   PO478847  25.656  31.228   4.995  0.1801 -0.1839 -0.1402
 3407POPC   GL178848  25.407  31.282   5.306  0.5117 -0.1921 -0.0791
 3407POPC   GL278849  25.165  31.256   5.213  0.4597  0.2421 -0.0442
 3407POPC   C1A78850  25.517  31.069   5.662  0.1265  0.0598 -0.1652
 3407POPC   D2A78851  25.388  30.909   6.044 -0.1632  0.1763  0.3690
 3407POPC   C3A78852  25.206  30.926   6.441 -0.1939 -0.2917  0.2119
 3407POPC   C4A78853  25.439  31.071   6.825 -0.0545  0.2792  0.0450
 3407POPC   C1B78854  24.864  31.453   5.503  0.2861  0.2702  0.2217
 3407POPC   C2B78855  24.859  31.599   5.924 -0.2285  0.1390  0.2666
 3407POPC   C3B78856  24.840  31.455   6.341  0.1185  0.0538  0.2290
 3407POPC   C4B78857  24.881  31.149   6.702  0.0604  0.1506  0.0609
 3408POPC   NC378858  23.191  23.295   6.823  0.2122  0.0154 -0.0406
 3408POPC   PO478859  23.011  22.969   6.907  0.0947 -0.0930 -0.1278
 3408POPC   GL178860  22.822  23.101   7.186  0.0571 -0.2320  0.1116
 3408POPC   GL278861  22.947  23.390   7.265 -0.3192  0.2552 -0.1972
 3408POPC   C1A78862  22.401  23.197   7.298 -0.2100  0.2124  0.0616
 3408POPC   D2A78863  22.124  23.443   7.577  0.2382 -0.0241  0.3940
 3408POPC   C3A78864  22.284  23.481   8.004  0.0819  0.1061 -0.0378
 3408POPC   C4A78865  22.154  23.316   8.421  0.1033 -0.1126  0.4025
 3408POPC   C1B78866  22.866  23.829   7.499  0.1160  0.1050  0.0892
 3408POPC   C2B78867  22.623  23.823   7.873  0.0466 -0.0132  0.2056
 3408POPC   C3B78868  22.281  24.021   8.091  0.0954 -0.2421 -0.2469
 3408POPC   C4B78869  21.827  24.204   8.231 -0.0266  0.1364  0.1123
 3409POPC   NC378870  27.745  22.214   9.334  0.1622  0.1618 -0.0730
 3409POPC   PO478871  27.527  22.272   9.636 -0.0781 -0.2355 -0.0632
 3409POPC   GL178872  27.855  22.135   9.875  0.2605 -0.3130  0.0802
 3409POPC   GL278873  28.118  22.058   9.771 -0.2063  0.3022  0.0816
 3409POPC   C1A78874  27.887  21.781  10.177 -0.0204  0.1458  0.0672
 3409POPC   D2A78875  28.182  21.473  10.257 -0.0292 -0.0067 -0.0298
 3409POPC   C3A78876  28.561  21.162  10.274 -0.0225 -0.3345 -0.1155
 3409POPC   C4A78877  28.926  21.203  10.576  0.2742  0.0847  0.2013
 3409POPC   C1B78878  28.499  22.180   9.805 -0.2658  0.4926 -0.1715
 3409POPC   C2B78879  28.903  22.066  10.045 -0.1087 -0.1626 -0.0851
 3409POPC   C3B78880  29.054  21.994  10.536  0.2901 -0.2118 -0.0812
 3409POPC   C4B78881  29.401  21.809  10.768 -0.2686  0.2200  0.3339
 3410POPC   NC378882  27.130  17.691   5.281 -0.1262 -0.2928  0.2774
 3410POPC   PO478883  26.780  17.632   5.513 -0.4117  0.2306  0.2260
 3410POPC   GL178884  26.725  17.512   5.927 -0.1542 -0.0957 -0.3812
 3410POPC   GL278885  26.483  17.371   6.019  0.2975 -0.1664 -0.0984
 3410POPC   C1A78886  26.772  17.380   6.399 -0.0281 -0.1015  0.0627
 3410POPC   D2A78887  26.853  17.407   6.818 -0.0350  0.2387  0.0477
 3410POPC   C3A78888  27.137  17.593   7.042 -0.0177 -0.2602 -0.0368
 3410POPC   C4A78889  27.326  17.937   7.322  0.1287 -0.4225 -0.1126
 3410POPC   C1B78890  26.297  16.947   6.202 -0.0218 -0.1281 -0.3211
 3410POPC   C2B78891  26.107  16.699   6.547 -0.1341 -0.0096 -0.0881
 3410POPC   C3B78892  26.022  16.234   6.728  0.0655  0.0074 -0.0159
 3410POPC   C4B78893  26.120  15.849   6.901 -0.1405  0.0101  0.1809
 3411POPC   NC378894  19.904  27.843   3.731  0.1426  0.1999 -0.1618
 3411POPC   PO478895  20.049  28.227   3.754 -0.0914 -0.2340  0.2092
 3411POPC   GL178896  20.035  28.216   4.150 -0.5572 -0.2591  0.0166
 3411POPC   GL278897  19.945  28.004   4.240 -0.0098 -0.0487 -0.1871
 3411POPC   C1A78898  20.329  28.155   4.525  0.2118  0.1135  0.2034
 3411POPC   D2A78899  20.256  28.459   4.870 -0.2739 -0.1166 -0.1380
 3411POPC   C3A78900  20.148  28.439   5.330  0.0898 -0.1476  0.1765
 3411POPC   C4A78901  19.784  28.385   5.608  0.0672 -0.0035 -0.1985
 3411POPC   C1B78902  19.867  28.298   4.632 -0.1682  0.1633  0.1462
 3411POPC   C2B78903  19.649  28.337   5.052  0.0518  0.1131  0.2403
 3411POPC   C3B78904  19.469  28.615   5.312  0.1296 -0.5201  0.0847
 3411POPC   C4B78905  19.358  28.792   5.739 -0.1761  0.3720  0.1004
 3412POPC   NC378906   0.118  29.482   4.137  0.2216 -0.1222  0.1702
 3412POPC   PO478907  -0.109  29.287   3.908  0.1566  0.1322  0.1475
 3412POPC   GL178908  -0.264  29.155   4.281  0.1576  0.2377 -0.3470
 3412POPC   GL278909  -0.576  29.167   4.290  0.3858  0.2118 -0.0328
 3412POPC   C1A78910   0.089  29.021   4.576  0.0112  0.0831 -0.4466
 3412POPC   D2A78911   0.325  29.082   4.974  0.0696 -0.1308 -0.1472
 3412POPC   C3A78912   0.208  29.356   5.319 -0.1063 -0.0534  0.0442
 3412POPC   C4A78913  -0.084  29.459   5.691 -0.0565 -0.2334  0.2213
 3412POPC   C1B78914  -0.643  29.320   4.720 -0.2232 -0.3369  0.0595
 3412POPC   C2B78915  -0.745  29.395   5.145 -0.1161 -0.0194  0.2263
 3412POPC   C3B78916  -0.786  29.380   5.649 -0.4495 -0.0077 -0.0256
 3412POPC   C4B78917  -0.655  29.613   6.051  0.1523  0.1701  0.1091
 3413POPC   NC378918  20.226  18.222   4.722 -0.0730  0.5503  0.1121
 3413POPC   PO478919  19.945  18.499   4.776 -0.0512 -0.3048  0.2373
 3413POPC   GL178920  19.861  18.281   5.104  0.1327  0.2339 -0.2604
 3413POPC   GL278921  19.609  18.387   5.111 -0.0334 -0.0811 -0.0423
 3413POPC   C1A78922  19.984  18.239   5.587  0.0900 -0.1376 -0.0883
 3413POPC   D2A78923  20.147  18.065   5.988  0.0827  0.0996  0.1481
 3413POPC   C3A78924  19.870  17.859   6.289 -0.2524  0.2524  0.0910
 3413POPC   C4A78925  19.452  17.832   6.530  0.0504 -0.1581  0.1135
 3413POPC   C1B78926  19.531  18.526   5.545 -0.0423 -0.0857 -0.1423
 3413POPC   C2B78927  19.614  18.638   5.995 -0.0741  0.1549  0.2215
 3413POPC   C3B78928  19.706  18.337   6.371 -0.1845  0.2934 -0.3215
 3413POPC   C4B78929  20.066  18.157   6.641 -0.2720  0.0082 -0.0658
 3414POPC   NC378930  23.465  20.498   6.642  0.1250 -0.1510 -0.1328
 3414POPC   PO478931  23.207  20.271   6.448 -0.0508  0.1084 -0.0585
 3414POPC   GL178932  22.976  19.967   6.520 -0.0038  0.0536 -0.3281
 3414POPC   GL278933  23.058  19.759   6.378  0.0555  0.1657 -0.2605
 3414POPC   C1A78934  22.576  20.016   6.785 -0.0614  0.0384  0.2032
 3414POPC   D2A78935  22.265  20.318   6.852 -0.3510 -0.1580  0.0001
 3414POPC   C3A78936  22.271  20.348   7.347  0.1045 -0.0066  0.0430
 3414POPC   C4A78937  22.214  20.334   7.815  0.5147  0.1535 -0.0656
 3414POPC   C1B78938  22.959  19.663   6.792 -0.1685  0.3894 -0.1621
 3414POPC   C2B78939  23.002  19.445   7.137  0.1768 -0.2126 -0.0804
 3414POPC   C3B78940  22.882  19.570   7.558  0.2728  0.0138  0.0726
 3414POPC   C4B78941  22.452  19.720   7.656 -0.2556 -0.0272  0.0629
 3415POPC   NC378942  28.846  21.458   7.135 -0.1006 -0.2229 -0.0306
 3415POPC   PO478943  29.045  21.590   6.811 -0.1487 -0.0023 -0.0673
 3415POPC   GL178944  29.290  21.465   7.059 -0.3426 -0.1068  0.1434
 3415POPC   GL278945  29.372  21.681   7.180  0.0240 -0.0067  0.0220
 3415POPC   C1A78946  29.224  21.199   7.425 -0.1814 -0.3740  0.4565
 3415POPC   D2A78947  28.871  21.038   7.798  0.0040  0.1376  0.1483
 3415POPC   C3A78948  28.905  20.625   7.932 -0.2824  0.1579 -0.0523
 3415POPC   C4A78949  29.228  20.344   8.027  0.0403  0.0602  0.0740
 3415POPC   C1B78950  29.647  21.433   7.438 -0.0257  0.0434  0.0135
 3415POPC   C2B78951  29.839  21.131   7.723 -0.2270  0.1045  0.2787
 3415POPC   C3B78952  30.072  20.969   8.126  0.0914  0.1216  0.1986
 3415POPC   C4B78953  30.135  20.610   8.419  0.0199  0.0814 -0.1046
 3416POPC   NC378954  29.710  26.173   5.420 -0.1286  0.1472  0.1212
 3416POPC   PO478955  29.896  26.482   5.234 -0.1010  0.2393 -0.0663
 3416POPC   GL178956  30.030  26.631   5.654  0.2822  0.1472  0.1113
 3416POPC   GL278957  30.044  26.483   5.903 -0.4077  0.3061 -0.0797
 3416POPC   C1A78958  29.899  26.959   5.986 -0.1344  0.1943  0.0263
 3416POPC   D2A78959  29.968  27.004   6.471  0.3182 -0.0185 -0.1367
 3416POPC   C3A78960  29.928  26.882   6.963  0.0604  0.2086  0.0322
 3416POPC   C4A78961  30.225  26.888   7.343 -0.0704 -0.2874  0.2454
 3416POPC   C1B78962  29.697  26.586   6.202 -0.3332 -0.3572  0.1463
 3416POPC   C2B78963  29.590  26.659   6.631  0.0115  0.0351  0.3682
 3416POPC   C3B78964  29.457  27.001   6.950 -0.0693  0.0297 -0.3232
 3416POPC   C4B78965  29.355  27.315   7.261 -0.0680 -0.3538  0.1794
 3417POPC   NC378966  26.669  26.340   6.383 -0.2778  0.1735  0.0281
 3417POPC   PO478967  26.525  26.662   6.189  0.1056 -0.0395 -0.0381
 3417POPC   GL178968  26.376  27.018   6.450  0.1679  0.2363  0.4225
 3417POPC   GL278969  26.433  26.840   6.681 -0.0518 -0.0341 -0.0977
 3417POPC   C1A78970  26.307  27.311   6.805  0.2833  0.0606 -0.1284
 3417POPC   D2A78971  26.179  27.457   7.188  0.1743 -0.1088  0.1024
 3417POPC   C3A78972  26.537  27.717   7.396 -0.0625  0.0583 -0.0721
 3417POPC   C4A78973  26.559  28.161   7.574 -0.0155  0.1898  0.0225
 3417POPC   C1B78974  26.523  27.063   7.169  0.1075 -0.0935  0.0919
 3417POPC   C2B78975  26.517  27.220   7.625 -0.3242 -0.3546 -0.1247
 3417POPC   C3B78976  26.544  27.408   8.049 -0.2226 -0.1897  0.0977
 3417POPC   C4B78977  26.342  27.300   8.445  0.0332 -0.0261  0.1474
 3418POPC   NC378978  23.555   0.580   5.284  0.0341 -0.0620 -0.0837
 3418POPC   PO478979  23.917   0.647   5.334  0.0925 -0.2445 -0.3189
 3418POPC   GL178980  23.915   0.551   5.797 -0.1093 -0.0476 -0.1205
 3418POPC   GL278981  24.178   0.540   5.869 -0.0670  0.5182 -0.1529
 3418POPC   C1A78982  23.726   0.576   6.201  0.0362  0.2747 -0.0927
 3418POPC   D2A78983  23.661   0.310   6.588 -0.0236 -0.0799  0.1011
 3418POPC   C3A78984  23.335   0.331   6.971  0.3266  0.0394  0.0776
 3418POPC   C4A78985  23.414   0.533   7.416  0.1300  0.1807  0.1824
 3418POPC   C1B78986  24.227   0.195   6.197 -0.2549  0.0889  0.0251
 3418POPC   C2B78987  24.028  -0.068   6.561 -0.1373  0.0842 -0.0458
 3418POPC   C3B78988  24.061  -0.184   7.006  0.0106 -0.2285  0.1189
 3418POPC   C4B78989  24.243   0.016   7.405  0.1177  0.1830 -0.1359
 3419POPC   NC378990  26.526  23.604  11.242 -0.0459  0.0008 -0.2186
 3419POPC   PO478991  26.336  23.576  10.957  0.0049  0.0937 -0.2283
 3419POPC   GL178992  26.090  23.505  11.223  0.0445  0.1799 -0.2844
 3419POPC   GL278993  25.809  23.597  11.087 -0.0220 -0.0898 -0.2134
 3419POPC   C1A78994  26.108  23.843  11.531  0.1220  0.0581 -0.0252
 3419POPC   D2A78995  25.772  23.935  11.829 -0.1607 -0.0999 -0.0930
 3419POPC   C3A78996  25.295  23.931  11.767 -0.1411 -0.0602 -0.0888
 3419POPC   C4A78997  24.833  23.844  11.704  0.1910 -0.0726  0.0974
 3419POPC   C1B78998  25.432  23.848  11.154 -0.0067 -0.0340 -0.2881
 3419POPC   C2B78999  24.995  24.053  11.234 -0.0369 -0.2017  0.0636
 3419POPC   C3B79000  24.658  24.353  11.230 -0.1899 -0.0804  0.1034
 3419POPC   C4B79001  24.387  24.668  11.391  0.1049  0.0199  0.0185
 3420POPC   NC379002  27.453  30.933   4.722  0.2897  0.0796 -0.1515
 3420POPC   PO479003  27.151  30.679   4.689 -0.1088 -0.0303  0.1030
 3420POPC   GL179004  27.168  30.886   5.119  0.2268  0.3001 -0.2941
 3420POPC   GL279005  27.028  30.580   5.195 -0.0459 -0.1670  0.2591
 3420POPC   C1A79006  27.478  31.089   5.420  0.2166 -0.2011 -0.0256
 3420POPC   D2A79007  27.807  31.180   5.708  0.1992  0.1433 -0.1236
 3420POPC   C3A79008  28.002  30.930   6.044  0.2524 -0.2291 -0.0208
 3420POPC   C4A79009  28.505  30.849   6.141 -0.2070 -0.0193 -0.0490
 3420POPC   C1B79010  27.137  30.617   5.602 -0.0346  0.2838 -0.1527
 3420POPC   C2B79011  27.465  30.818   5.834 -0.1927  0.1622  0.2269
 3420POPC   C3B79012  27.509  31.173   6.168  0.1668  0.0022 -0.0853
 3420POPC   C4B79013  27.242  31.535   6.403 -0.0364 -0.0850 -0.0781
 3421POPC   NC379014  25.196  26.359   6.255  0.2900 -0.3164  0.3753
 3421POPC   PO479015  25.325  26.605   5.968 -0.4126  0.2314  0.2279
 3421POPC   GL179016  25.266  26.971   6.143  0.1217  0.3786 -0.2064
 3421POPC   GL279017  25.312  26.882   6.376  0.0181 -0.4432 -0.1900
 3421POPC   C1A79018  24.940  27.187   6.391 -0.1268  0.0166  0.0452
 3421POPC   D2A79019  24.793  27.451   6.780  0.1646  0.2203 -0.2077
 3421POPC   C3A79020  24.521  27.426   7.138  0.1695 -0.0110 -0.0734
 3421POPC   C4A79021  24.229  27.567   7.460 -0.2007 -0.0842  0.1451
 3421POPC   C1B79022  25.403  27.098   6.791  0.0550  0.3810 -0.0432
 3421POPC   C2B79023  25.240  27.361   7.135 -0.2071 -0.0969 -0.0134
 3421POPC   C3B79024  25.297  27.792   7.338  0.0609 -0.2288 -0.1363
 3421POPC   C4B79025  25.153  28.222   7.542  0.0038  0.3936  0.0180
 3422POPC   NC379026  29.359  23.533   6.317  0.0681 -0.1459 -0.0199
 3422POPC   PO479027  29.313  23.562   6.728 -0.2478  0.2555  0.1361
 3422POPC   GL179028  29.491  23.718   7.019  0.0203 -0.0718  0.1872
 3422POPC   GL279029  29.724  23.979   6.923 -0.1004 -0.0220 -0.1036
 3422POPC   C1A79030  29.630  23.502   7.359 -0.0151  0.3111  0.0247
 3422POPC   D2A79031  29.919  23.153   7.605  0.1034  0.2578  0.2481
 3422POPC   C3A79032  30.348  23.313   7.572 -0.0261  0.2595 -0.3683
 3422POPC   C4A79033  30.747  23.558   7.591 -0.1257 -0.1153 -0.0212
 3422POPC   C1B79034  29.654  24.171   7.318 -0.0390  0.4215 -0.1752
 3422POPC   C2B79035  29.416  24.281   7.729  0.0456  0.0742  0.1215
 3422POPC   C3B79036  29.621  24.192   8.169 -0.0120 -0.3556  0.1177
 3422POPC   C4B79037  29.821  24.135   8.521 -0.2190  0.0541  0.0239
 3423POPC   NC379038  18.827  19.337   4.762  0.0310  0.1645 -0.3509
 3423POPC   PO479039  18.506  19.188   4.584 -0.1697  0.0881 -0.1960
 3423POPC   GL179040  18.529  19.048   4.982  0.1822  0.0040  0.0544
 3423POPC   GL279041  18.751  18.916   4.985  0.2166 -0.1332  0.2972
 3423POPC   C1A79042  18.462  19.085   5.429  0.0768  0.0713 -0.2056
 3423POPC   D2A79043  18.527  18.769   5.748 -0.1529 -0.0178  0.2394
 3423POPC   C3A79044  18.647  18.459   6.105 -0.2599 -0.1116 -0.1988
 3423POPC   C4A79045  18.481  18.469   6.572  0.1858  0.1026  0.1076
 3423POPC   C1B79046  18.990  18.827   5.422 -0.2168 -0.1371  0.0005
 3423POPC   C2B79047  19.108  19.059   5.800  0.1472  0.0417 -0.0063
 3423POPC   C3B79048  19.405  19.121   6.148 -0.0739 -0.2245 -0.0001
 3423POPC   C4B79049  19.690  19.463   6.332 -0.1947  0.2551  0.2991
 3424POPC   NC379050  31.652  32.042   3.759  0.0043  0.2666 -0.0516
 3424POPC   PO479051  31.399  31.873   4.020 -0.0860 -0.2959  0.1563
 3424POPC   GL179052  31.498  31.811   4.456  0.1035  0.2383  0.0650
 3424POPC   GL279053  31.626  32.071   4.481 -0.0189  0.3142 -0.1478
 3424POPC   C1A79054  31.597  31.693   4.856  0.0109  0.0610 -0.4037
 3424POPC   D2A79055  31.720  31.916   5.257  0.2158 -0.2995 -0.0018
 3424POPC   C3A79056  31.433  31.834   5.575  0.0024  0.0170  0.3416
 3424POPC   C4A79057  31.378  31.688   6.062  0.0115  0.0087  0.3270
 3424POPC   C1B79058  31.432  32.278   4.870 -0.0076  0.0595 -0.1010
 3424POPC   C2B79059  31.206  32.116   5.230  0.4009  0.1468  0.0848
 3424POPC   C3B79060  31.212  31.661   5.188  0.1131  0.1845 -0.1523
 3424POPC   C4B79061  31.263  31.351   5.519  0.1791  0.0495 -0.0332
 3425POPC   NC379062  20.856  31.543   3.692  0.0637 -0.2070 -0.2712
 3425POPC   PO479063  20.650  31.300   3.426 -0.0941 -0.0268  0.1274
 3425POPC   GL179064  20.639  31.135   3.856 -0.1211  0.0461  0.2881
 3425POPC   GL279065  20.845  31.014   3.899  0.1349  0.5346  0.5142
 3425POPC   C1A79066  20.469  31.027   4.287  0.0213  0.1471 -0.1156
 3425POPC   D2A79067  20.163  30.695   4.484  0.1499  0.0683 -0.1317
 3425POPC   C3A79068  19.974  30.444   4.911 -0.0681 -0.3352 -0.1894
 3425POPC   C4A79069  19.918  30.386   5.345  0.2217 -0.1285  0.0923
 3425POPC   C1B79070  20.967  30.904   4.356  0.2828 -0.0145 -0.1046
 3425POPC   C2B79071  21.037  31.213   4.652 -0.2528 -0.0870  0.1799
 3425POPC   C3B79072  21.170  31.589   4.784  0.1892 -0.1887 -0.0072
 3425POPC   C4B79073  21.016  31.970   4.894 -0.2963 -0.1466 -0.0738
 3426POPC   NC379074  25.566  24.206   8.875 -0.0756 -0.0916 -0.0872
 3426POPC   PO479075  25.843  23.988   8.690  0.0302 -0.0025 -0.1295
 3426POPC   GL179076  26.017  24.316   8.897 -0.4091  0.1801 -0.1014
 3426POPC   GL279077  25.860  24.570   8.696  0.0494  0.1182  0.3176
 3426POPC   C1A79078  26.352  24.649   8.908  0.1543  0.0725 -0.0997
 3426POPC   D2A79079  26.741  24.862   8.803 -0.0557  0.3025 -0.2328
 3426POPC   C3A79080  26.884  25.268   8.945  0.2992  0.1877 -0.0974
 3426POPC   C4A79081  26.780  25.536   9.290  0.2486 -0.2445 -0.1013
 3426POPC   C1B79082  25.827  24.761   9.095  0.1150 -0.4377  0.2755
 3426POPC   C2B79083  25.872  24.936   9.508 -0.0964 -0.0792 -0.0057
 3426POPC   C3B79084  26.001  24.885   9.921  0.0865 -0.4408 -0.0370
 3426POPC   C4B79085  26.234  25.229  10.167  0.3703 -0.1270 -0.0203
 3427POPC   NC379086  25.365  21.662   9.586 -0.0717  0.1138  0.1685
 3427POPC   PO479087  25.392  21.843   9.920 -0.1461  0.0137 -0.1901
 3427POPC   GL179088  25.238  21.590  10.059 -0.1124 -0.2197 -0.0495
 3427POPC   GL279089  25.191  21.343   9.877  0.2451  0.0167 -0.0999
 3427POPC   C1A79090  24.917  21.346  10.360 -0.1197 -0.0250 -0.3061
 3427POPC   D2A79091  24.634  21.062  10.620 -0.0321  0.0734 -0.2724
 3427POPC   C3A79092  24.625  21.025  11.076  0.0495  0.2928 -0.2558
 3427POPC   C4A79093  24.469  21.131  11.466 -0.0578  0.2429  0.0936
 3427POPC   C1B79094  25.101  20.920   9.914  0.1527  0.0750 -0.1320
 3427POPC   C2B79095  24.764  20.608  10.115  0.0023 -0.0654  0.1164
 3427POPC   C3B79096  24.438  20.550  10.393  0.0619  0.0532 -0.0082
 3427POPC   C4B79097  24.115  20.663  10.713 -0.0540 -0.1615  0.0925
 3428POPC   NC379098  21.473  18.200   5.244 -0.3628  0.0664 -0.0482
 3428POPC   PO479099  21.379  18.580   5.245 -0.0745  0.2385  0.2466
 3428POPC   GL179100  21.039  18.699   5.541  0.1397 -0.1472  0.0090
 3428POPC   GL279101  20.827  18.931   5.553  0.2948 -0.2346  0.0384
 3428POPC   C1A79102  21.130  18.911   5.958  0.2569 -0.0910  0.0808
 3428POPC   D2A79103  20.922  19.076   6.351 -0.1488 -0.0489 -0.4645
 3428POPC   C3A79104  20.711  18.789   6.594 -0.1552  0.1652  0.3772
 3428POPC   C4A79105  20.478  18.462   6.876 -0.2366  0.1761 -0.1042
 3428POPC   C1B79106  20.621  18.936   5.992  0.2588  0.0238  0.1146
 3428POPC   C2B79107  20.368  19.141   6.353 -0.1146 -0.1471 -0.0398
 3428POPC   C3B79108  20.136  19.522   6.582 -0.3069  0.0511 -0.1647
 3428POPC   C4B79109  20.096  19.527   7.024 -0.1434  0.1810 -0.0379
 3429POPC   NC379110  26.018  24.712   8.216 -0.1945  0.1831 -0.1187
 3429POPC   PO479111  26.390  24.660   8.077  0.5373 -0.0587  0.3302
 3429POPC   GL179112  26.429  24.959   8.420  0.3517 -0.0960 -0.0722
 3429POPC   GL279113  26.658  25.031   8.297  0.2018  0.1983  0.1201
 3429POPC   C1A79114  26.588  25.432   8.528  0.1351  0.1335 -0.2553
 3429POPC   D2A79115  26.751  25.757   8.819 -0.0667  0.1500 -0.1383
 3429POPC   C3A79116  26.455  26.136   8.894 -0.1271  0.1265 -0.0656
 3429POPC   C4A79117  25.991  26.150   8.989 -0.0457 -0.2477  0.0523
 3429POPC   C1B79118  27.084  25.070   8.475  0.0451 -0.2178  0.2242
 3429POPC   C2B79119  27.402  25.326   8.756 -0.0142  0.3305 -0.1938
 3429POPC   C3B79120  27.594  25.687   9.091 -0.1807 -0.1817  0.0920
 3429POPC   C4B79121  27.637  26.089   9.214 -0.2488 -0.0513 -0.0365
 3430POPC   NC379122  25.265  23.246   8.842  0.0861 -0.0321  0.2009
 3430POPC   PO479123  24.875  23.243   8.808 -0.3672 -0.1942  0.1061
 3430POPC   GL179124  24.575  23.299   8.973 -0.4516  0.0545 -0.1400
 3430POPC   GL279125  24.374  23.412   8.777 -0.1135  0.0145 -0.0727
 3430POPC   C1A79126  24.508  23.607   9.357 -0.2547  0.3736 -0.1610
 3430POPC   D2A79127  24.241  23.853   9.629 -0.0271  0.0688 -0.2115
 3430POPC   C3A79128  24.225  24.142  10.039 -0.1768  0.0129 -0.1187
 3430POPC   C4A79129  24.151  24.427  10.352  0.1353 -0.1080  0.1887
 3430POPC   C1B79130  24.281  23.837   8.987 -0.0296  0.1249  0.3748
 3430POPC   C2B79131  23.952  23.979   9.249  0.0703 -0.0493 -0.0032
 3430POPC   C3B79132  23.473  24.103   9.337 -0.0018  0.2742 -0.0019
 3430POPC   C4B79133  23.219  24.300   9.620 -0.0581 -0.1107  0.2726
 3431POPC   NC379134  29.550  18.476   5.107 -0.1052  0.2279 -0.0017
 3431POPC   PO479135  29.538  18.065   5.033  0.1753  0.1420 -0.2619
 3431POPC   GL179136  29.769  18.131   5.365 -0.3535 -0.1499  0.0052
 3431POPC   GL279137  29.605  18.251   5.574 -0.1484 -0.1222  0.1270
 3431POPC   C1A79138  30.075  18.080   5.677  0.0710  0.2627 -0.0302
 3431POPC   D2A79139  30.368  18.166   5.981  0.2493 -0.2453 -0.1467
 3431POPC   C3A79140  30.553  17.912   6.305  0.0106 -0.2697  0.3823
 3431POPC   C4A79141  30.358  17.542   6.453 -0.2469  0.1030  0.4046
 3431POPC   C1B79142  29.635  17.807   5.713  0.1472 -0.4298  0.0611
 3431POPC   C2B79143  29.566  17.467   6.045  0.1112 -0.1277 -0.1799
 3431POPC   C3B79144  29.318  17.470   6.464  0.2722  0.0873  0.2760
 3431POPC   C4B79145  29.329  17.352   6.919 -0.2400 -0.2289  0.2155
 3432POPC   NC379146  21.115  31.890   4.402  0.2622  0.2756  0.4638
 3432POPC   PO479147  21.494  31.922   4.260  0.1434  0.2418 -0.3845
 3432POPC   GL179148  21.592  32.062   4.605  0.3356 -0.0310 -0.0884
 3432POPC   GL279149  21.387  32.198   4.678 -0.1513 -0.0419  0.0882
 3432POPC   C1A79150  21.627  32.022   5.068  0.0053 -0.3387  0.3015
 3432POPC   D2A79151  21.610  31.865   5.518  0.0184  0.1963  0.2042
 3432POPC   C3A79152  21.406  31.582   5.804  0.1380 -0.0559  0.0085
 3432POPC   C4A79153  21.515  31.341   6.142  0.1706  0.2138 -0.1882
 3432POPC   C1B79154  21.432  32.489   4.994 -0.2215 -0.0537  0.1340
 3432POPC   C2B79155  21.217  32.600   5.369 -0.3743  0.2135  0.2753
 3432POPC   C3B79156  20.961  32.641   5.765  0.0964  0.0518 -0.1861
 3432POPC   C4B79157  20.857  32.944   6.082  0.0523 -0.0398  0.0036
 3433POPC   NC379158  28.793  17.657   4.651  0.1238 -0.0492  0.1803
 3433POPC   PO479159  28.718  18.056   4.619 -0.2044 -0.2003  0.0795
 3433POPC   GL179160  28.797  18.198   4.961  0.2091  0.1306 -0.4220
 3433POPC   GL279161  29.019  18.240   5.096 -0.0689 -0.1080 -0.2344
 3433POPC   C1A79162  28.482  18.198   5.325 -0.2776 -0.0434  0.1600
 3433POPC   D2A79163  28.288  18.225   5.728 -0.0785 -0.1689  0.2654
 3433POPC   C3A79164  28.660  18.127   6.054 -0.2130  0.3220 -0.1033
 3433POPC   C4A79165  28.957  17.950   6.359  0.0018  0.2265 -0.1151
 3433POPC   C1B79166  29.014  18.324   5.531 -0.3116 -0.0168  0.2172
 3433POPC   C2B79167  29.262  18.225   5.914  0.0388  0.0038  0.2403
 3433POPC   C3B79168  29.505  17.944   6.270  0.2310 -0.4228 -0.2695
 3433POPC   C4B79169  29.977  17.864   6.200  0.0738 -0.1486 -0.1599
 3434POPC   NC379170  19.037  25.193   4.652  0.1832  0.1578  0.1214
 3434POPC   PO479171  18.656  25.260   4.627  0.0129  0.1554 -0.1959
 3434POPC   GL179172  18.739  25.488   4.907 -0.0470 -0.0280 -0.1497
 3434POPC   GL279173  18.889  25.283   5.141  0.0562 -0.2373 -0.0856
 3434POPC   C1A79174  18.902  25.745   5.247  0.2319 -0.1836  0.0976
 3434POPC   D2A79175  18.740  26.162   5.341 -0.1507  0.2065 -0.0962
 3434POPC   C3A79176  18.763  26.250   5.798 -0.1770 -0.0376  0.4972
 3434POPC   C4A79177  18.794  26.327   6.278 -0.2265  0.1105  0.4704
 3434POPC   C1B79178  18.706  25.151   5.515  0.0203 -0.0315 -0.0713
 3434POPC   C2B79179  18.675  24.838   5.861  0.0419  0.1353  0.2646
 3434POPC   C3B79180  18.534  24.383   6.014 -0.1187 -0.1255 -0.0327
 3434POPC   C4B79181  18.161  24.076   6.130 -0.1977 -0.1181  0.3895
 3435POPC   NC379182  26.594  18.122   5.695 -0.2636 -0.1845 -0.0378
 3435POPC   PO479183  26.368  17.815   5.813 -0.0868 -0.5637 -0.0604
 3435POPC   GL179184  26.375  17.932   6.210  0.0628 -0.1611  0.1857
 3435POPC   GL279185  26.038  17.905   6.179 -0.2754 -0.0533  0.1578
 3435POPC   C1A79186  26.427  17.747   6.593 -0.4214 -0.0819 -0.0029
 3435POPC   D2A79187  26.317  17.444   6.959 -0.1269  0.1138  0.0289
 3435POPC   C3A79188  26.687  17.451   7.265 -0.0538  0.0156 -0.1477
 3435POPC   C4A79189  27.089  17.545   7.570  0.0301  0.0083 -0.0165
 3435POPC   C1B79190  25.905  17.989   6.614  0.0829  0.3412  0.1996
 3435POPC   C2B79191  26.147  17.927   6.992  0.1030  0.2365 -0.1459
 3435POPC   C3B79192  26.270  17.739   7.395 -0.3053 -0.0404 -0.2175
 3435POPC   C4B79193  26.613  17.637   7.725 -0.1643  0.1531 -0.0525
 3436POPC   NC379194  18.799  22.306   5.234  0.3196  0.2576  0.0218
 3436POPC   PO479195  19.157  22.443   5.299 -0.1192 -0.1794  0.2364
 3436POPC   GL179196  18.833  22.681   5.478  0.1487  0.1540  0.0642
 3436POPC   GL279197  18.866  22.499   5.670  0.2099 -0.4693  0.0116
 3436POPC   C1A79198  18.467  22.731   5.316  0.1033  0.0932 -0.0333
 3436POPC   D2A79199  18.094  22.972   5.213 -0.3146 -0.2030 -0.0657
 3436POPC   C3A79200  17.717  23.111   5.482  0.0381  0.0282 -0.2771
 3436POPC   C4A79201  17.543  23.446   5.681  0.0535  0.1150 -0.2342
 3436POPC   C1B79202  18.894  22.549   6.168 -0.2509 -0.1640  0.2876
 3436POPC   C2B79203  18.725  22.660   6.594 -0.0509 -0.0851  0.3141
 3436POPC   C3B79204  18.641  22.744   7.033  0.2345  0.0007 -0.2212
 3436POPC   C4B79205  18.700  22.872   7.435  0.3869 -0.1893 -0.0078
 3437POPC   NC379206  19.914  23.259   4.866  0.2461  0.0801 -0.2137
 3437POPC   PO479207  20.094  23.246   5.229  0.1228  0.1130 -0.2965
 3437POPC   GL179208  20.010  23.190   5.648 -0.3141  0.0660  0.1800
 3437POPC   GL279209  19.675  23.164   5.587 -0.1176 -0.0417  0.1448
 3437POPC   C1A79210  19.911  23.219   6.100  0.0583 -0.0737  0.3196
 3437POPC   D2A79211  19.661  23.000   6.444  0.1481  0.0401 -0.0293
 3437POPC   C3A79212  19.500  23.236   6.812 -0.1862  0.4013  0.0266
 3437POPC   C4A79213  19.516  23.174   7.288  0.1280 -0.2279 -0.0637
 3437POPC   C1B79214  19.314  23.011   5.852  0.2420  0.2076  0.1897
 3437POPC   C2B79215  18.983  23.004   6.169  0.1144  0.0391 -0.2613
 3437POPC   C3B79216  18.989  23.036   6.614  0.0842  0.3180  0.1060
 3437POPC   C4B79217  19.066  23.116   7.046 -0.1873  0.0709  0.0663
 3438POPC   NC379218  25.030  25.214   6.967  0.0605 -0.2582  0.0194
 3438POPC   PO479219  25.327  25.006   7.019 -0.0870  0.1216 -0.2796
 3438POPC   GL179220  25.529  25.390   7.027 -0.1949 -0.1411  0.0961
 3438POPC   GL279221  25.336  25.515   7.272 -0.1095 -0.0714  0.0772
 3438POPC   C1A79222  25.844  25.583   7.331 -0.0328 -0.2892  0.2404
 3438POPC   D2A79223  26.043  25.815   7.696  0.1480 -0.0120  0.0458
 3438POPC   C3A79224  25.692  26.159   7.806  0.0714 -0.0011 -0.2479
 3438POPC   C4A79225  25.473  26.478   8.077  0.0919 -0.1470  0.0935
 3438POPC   C1B79226  25.343  25.941   7.480  0.1903  0.4533  0.0052
 3438POPC   C2B79227  25.272  26.409   7.614 -0.2041 -0.0933 -0.2975
 3438POPC   C3B79228  24.982  26.630   7.846  0.0704 -0.0347  0.2216
 3438POPC   C4B79229  25.057  26.988   7.988  0.1010 -0.0557 -0.0883
 3439POPC   NC379230  28.986  26.776   5.466  0.5057 -0.1280 -0.3944
 3439POPC   PO479231  28.602  26.693   5.317  0.1995 -0.2080  0.1076
 3439POPC   GL179232  28.592  26.899   5.669  0.0658 -0.2429 -0.2117
 3439POPC   GL279233  28.678  27.156   5.656 -0.0037 -0.0031  0.1280
 3439POPC   C1A79234  28.736  26.984   6.073 -0.0202  0.2052 -0.0628
 3439POPC   D2A79235  28.493  27.081   6.470 -0.0606 -0.0875  0.1971
 3439POPC   C3A79236  28.501  27.424   6.729 -0.0711 -0.1529  0.2805
 3439POPC   C4A79237  28.361  27.733   7.090 -0.2181 -0.1408  0.1777
 3439POPC   C1B79238  29.072  27.337   5.921  0.5209  0.0785  0.0797
 3439POPC   C2B79239  29.264  27.705   6.161 -0.0749 -0.2440  0.2131
 3439POPC   C3B79240  29.194  27.956   6.515 -0.2112 -0.0398  0.0458
 3439POPC   C4B79241  29.168  28.358   6.543  0.1112 -0.0335  0.1688
 3440POPC   NC379242  28.158  29.186   4.414 -0.0993  0.4588  0.0694
 3440POPC   PO479243  27.860  29.448   4.376  0.0757  0.0902  0.3084
 3440POPC   GL179244  27.975  29.413   4.806 -0.1720 -0.0904  0.1282
 3440POPC   GL279245  28.302  29.343   4.923  0.1352  0.2534 -0.1115
 3440POPC   C1A79246  28.098  29.766   5.036  0.1544 -0.0530 -0.1541
 3440POPC   D2A79247  28.413  29.994   5.341 -0.0064  0.2929  0.1905
 3440POPC   C3A79248  28.518  29.978   5.818  0.0617  0.0697 -0.1989
 3440POPC   C4A79249  28.488  29.858   6.241 -0.1723  0.1515 -0.2118
 3440POPC   C1B79250  28.607  29.393   5.227 -0.0769 -0.2881  0.0057
 3440POPC   C2B79251  28.815  29.596   5.554  0.3217 -0.0700 -0.2742
 3440POPC   C3B79252  29.051  29.989   5.717  0.1197 -0.1078  0.0091
 3440POPC   C4B79253  29.446  29.991   6.021  0.2466 -0.0506  0.2793
 3441POPC   NC379254  24.693  24.005   8.056  0.2598  0.1935 -0.2077
 3441POPC   PO479255  25.049  24.208   8.034  0.0034 -0.0669  0.0335
 3441POPC   GL179256  24.887  24.405   8.332  0.0681  0.1446 -0.2791
 3441POPC   GL279257  24.608  24.373   8.368  0.5012 -0.1379 -0.1032
 3441POPC   C1A79258  24.857  24.823   8.560  0.2575  0.2016 -0.1018
 3441POPC   D2A79259  24.800  25.051   8.902  0.1512 -0.2961 -0.0577
 3441POPC   C3A79260  24.897  25.167   9.294 -0.0672  0.3860 -0.0712
 3441POPC   C4A79261  25.077  25.175   9.745  0.1297  0.3608 -0.0291
 3441POPC   C1B79262  24.302  24.727   8.452  0.0726 -0.2461  0.0023
 3441POPC   C2B79263  24.276  25.016   8.879  0.1024  0.2520 -0.1471
 3441POPC   C3B79264  24.407  25.344   9.196  0.0553  0.0343  0.2630
 3441POPC   C4B79265  24.545  25.364   9.642 -0.1587  0.1800 -0.0703
 3442POPC   NC379266  25.000  32.128   5.003  0.0198 -0.0821 -0.0091
 3442POPC   PO479267  25.002  32.530   4.929 -0.0625  0.4277 -0.1413
 3442POPC   GL179268  24.943  32.481   5.300  0.0504 -0.0499 -0.0350
 3442POPC   GL279269  25.093  32.414   5.475 -0.1015 -0.0070  0.3771
 3442POPC   C1A79270  24.722  32.587   5.695 -0.0855  0.0391 -0.1056
 3442POPC   D2A79271  24.724  32.497   6.147 -0.0260 -0.2706 -0.0319
 3442POPC   C3A79272  25.094  32.596   6.446  0.0742 -0.2205 -0.3670
 3442POPC   C4A79273  25.534  32.717   6.658  0.1522 -0.0421 -0.1416
 3442POPC   C1B79274  25.285  32.394   5.911 -0.3650  0.0979  0.3456
 3442POPC   C2B79275  25.493  32.270   6.285 -0.0875 -0.0814 -0.0668
 3442POPC   C3B79276  25.345  32.199   6.770  0.2862 -0.2320  0.1122
 3442POPC   C4B79277  25.288  32.505   7.092  0.1058 -0.0369  0.0163
 3443POPC   NC379278  17.285  27.254   3.855  0.1492  0.1585 -0.2002
 3443POPC   PO479279  17.454  26.944   4.057 -0.1070 -0.0235 -0.1541
 3443POPC   GL179280  17.801  27.138   4.299 -0.0760 -0.0800  0.1104
 3443POPC   GL279281  17.891  26.924   4.521 -0.3584 -0.1619  0.0335
 3443POPC   C1A79282  17.876  27.359   4.726 -0.1593  0.0861  0.0636
 3443POPC   D2A79283  17.879  27.413   5.189 -0.0749  0.0274  0.1012
 3443POPC   C3A79284  18.182  27.657   5.445 -0.0442 -0.1805  0.1291
 3443POPC   C4A79285  18.453  27.979   5.696 -0.1426 -0.2357  0.1949
 3443POPC   C1B79286  17.736  26.921   4.966 -0.0325 -0.3181 -0.2191
 3443POPC   C2B79287  17.728  27.016   5.363 -0.1296 -0.1619 -0.1797
 3443POPC   C3B79288  17.788  27.247   5.731  0.0438  0.3500  0.2266
 3443POPC   C4B79289  17.680  27.463   6.078  0.0547  0.2068  0.0090
 3444POPC   NC379290  23.801  29.441   4.934  0.3258  0.1364  0.1603
 3444POPC   PO479291  23.627  29.158   5.133  0.0331  0.3730  0.1670
 3444POPC   GL179292  23.641  29.283   5.488  0.1439  0.1660  0.0809
 3444POPC   GL279293  23.584  29.586   5.476  0.0971 -0.1291  0.2048
 3444POPC   C1A79294  23.583  29.086   5.930 -0.0824  0.1714  0.1166
 3444POPC   D2A79295  23.579  28.854   6.351  0.0825  0.2421 -0.0380
 3444POPC   C3A79296  23.899  28.928   6.645 -0.0165 -0.1781  0.2269
 3444POPC   C4A79297  24.226  29.003   6.996  0.1946  0.0275 -0.1330
 3444POPC   C1B79298  23.777  29.615   5.894 -0.2866 -0.2777  0.0357
 3444POPC   C2B79299  23.905  29.331   6.327  0.0254  0.1171  0.0827
 3444POPC   C3B79300  24.277  29.352   6.600  0.1524 -0.0177  0.0961
 3444POPC   C4B79301  24.420  29.455   6.977  0.1047  0.1023  0.0133
 3445POPC   NC379302  27.566  26.695   5.017  0.0781 -0.1239 -0.1080
 3445POPC   PO479303  27.657  26.752   5.397  0.1012  0.2123  0.1329
 3445POPC   GL179304  27.848  26.754   5.698  0.1950  0.2654  0.1850
 3445POPC   GL279305  28.057  26.937   5.817  0.0347  0.1563 -0.1439
 3445POPC   C1A79306  27.965  26.610   6.145 -0.1215  0.0397  0.2419
 3445POPC   D2A79307  28.115  26.436   6.604  0.0172  0.2701  0.0829
 3445POPC   C3A79308  27.989  26.614   7.019  0.3903 -0.1026 -0.0102
 3445POPC   C4A79309  27.779  26.874   7.301  0.0383  0.1881 -0.0177
 3445POPC   C1B79310  28.101  27.266   6.164 -0.2298  0.0760  0.0346
 3445POPC   C2B79311  27.999  27.466   6.549  0.1781 -0.0256  0.3505
 3445POPC   C3B79312  27.780  27.420   6.964 -0.0878  0.1296 -0.4245
 3445POPC   C4B79313  27.968  27.472   7.417  0.1796  0.1039  0.0218
 3446POPC   NC379314  27.924  22.105   8.650  0.2609 -0.1216 -0.0711
 3446POPC   PO479315  27.700  21.892   8.893 -0.1485 -0.0594 -0.1456
 3446POPC   GL179316  28.007  21.963   9.055  0.4241 -0.2428  0.0561
 3446POPC   GL279317  27.972  21.713   9.252 -0.1110  0.0783 -0.0630
 3446POPC   C1A79318  28.390  21.961   9.250 -0.0010  0.0829  0.1430
 3446POPC   D2A79319  28.754  22.198   9.407  0.1442 -0.3505  0.1453
 3446POPC   C3A79320  29.132  22.392   9.214 -0.1500 -0.0578  0.2475
 3446POPC   C4A79321  29.104  22.580   8.773 -0.1248  0.0216 -0.1695
 3446POPC   C1B79322  28.367  21.497   9.131 -0.2858 -0.1782  0.2996
 3446POPC   C2B79323  28.814  21.413   9.221  0.1053  0.1005 -0.0075
 3446POPC   C3B79324  29.243  21.419   9.148 -0.3694 -0.1564  0.2588
 3446POPC   C4B79325  29.635  21.164   8.969  0.3897  0.0848 -0.2703
 3447POPC   NC379326  24.338  21.412   7.376  0.1847 -0.0048  0.1241
 3447POPC   PO479327  24.414  21.174   7.695 -0.0304  0.3685  0.0421
 3447POPC   GL179328  24.197  21.081   7.931 -0.0929 -0.0657  0.0910
 3447POPC   GL279329  23.958  21.012   7.996 -0.2345  0.0143 -0.0287
 3447POPC   C1A79330  24.277  21.027   8.387  0.1683  0.0688 -0.3995
 3447POPC   D2A79331  24.046  20.755   8.712  0.1029 -0.1498  0.0327
 3447POPC   C3A79332  24.256  20.664   9.129  0.3178 -0.1326 -0.0353
 3447POPC   C4A79333  24.333  20.281   9.338  0.0903  0.2290  0.1734
 3447POPC   C1B79334  23.605  20.866   8.346 -0.2668 -0.2700  0.4956
 3447POPC   C2B79335  23.615  20.488   8.679  0.0899  0.1345  0.0871
 3447POPC   C3B79336  23.658  20.016   8.550  0.1612 -0.1322 -0.0147
 3447POPC   C4B79337  24.043  19.764   8.520  0.1270  0.2598 -0.0341
 3448POPC   NC379338  27.439  21.624  10.338 -0.0782 -0.1177 -0.0414
 3448POPC   PO479339  27.055  21.532  10.457 -0.2701  0.0881  0.0894
 3448POPC   GL179340  27.182  21.199  10.634 -0.2202 -0.3862 -0.0511
 3448POPC   GL279341  27.461  21.167  10.488  0.2834 -0.4170 -0.3530
 3448POPC   C1A79342  27.395  20.848  10.853 -0.1522 -0.1550 -0.1056
 3448POPC   D2A79343  27.762  20.601  10.915 -0.1215 -0.0710  0.1175
 3448POPC   C3A79344  28.218  20.751  10.916  0.2288 -0.1931  0.2138
 3448POPC   C4A79345  28.259  21.104  10.636  0.0912  0.4398 -0.3499
 3448POPC   C1B79346  27.221  20.913  10.183  0.0321 -0.1970 -0.3124
 3448POPC   C2B79347  27.122  20.599   9.791  0.2735 -0.0450 -0.3563
 3448POPC   C3B79348  26.894  20.229   9.638 -0.0683 -0.2788  0.1071
 3448POPC   C4B79349  26.912  19.812   9.598 -0.0720  0.2516  0.2871
 3449POPC   NC379350  25.890  19.182   6.599  0.1510 -0.0642  0.1514
 3449POPC   PO479351  26.058  19.038   6.297  0.0269  0.0703 -0.1246
 3449POPC   GL179352  26.184  18.849   6.652 -0.3405 -0.3622  0.0097
 3449POPC   GL279353  26.344  18.679   6.509 -0.0095  0.2385 -0.0875
 3449POPC   C1A79354  26.065  18.467   6.843  0.2434  0.1492 -0.1193
 3449POPC   D2A79355  25.890  18.317   7.221  0.1709 -0.2251 -0.1599
 3449POPC   C3A79356  25.776  17.907   7.428  0.0586 -0.1548 -0.0732
 3449POPC   C4A79357  25.691  17.464   7.322  0.0034  0.0581  0.0898
 3449POPC   C1B79358  26.571  18.717   6.949 -0.0982  0.0453 -0.3266
 3449POPC   C2B79359  26.868  18.386   7.229  0.0124  0.1997 -0.0395
 3449POPC   C3B79360  27.220  18.403   7.541 -0.1958 -0.1042  0.1403
 3449POPC   C4B79361  27.480  18.726   7.675  0.0959 -0.0869 -0.2304
 3450POPC   NC379362  23.534  19.889   6.348  0.1068 -0.2433 -0.0581
 3450POPC   PO479363  23.805  20.179   6.465 -0.0207  0.4692  0.0796
 3450POPC   GL179364  23.711  20.175   6.865  0.2011  0.0545 -0.1233
 3450POPC   GL279365  23.443  20.016   6.816 -0.1090 -0.0400  0.0080
 3450POPC   C1A79366  23.845  19.929   7.215  0.0563 -0.0710  0.0708
 3450POPC   D2A79367  23.766  19.723   7.616  0.0049 -0.1757  0.1966
 3450POPC   C3A79368  23.763  20.111   7.749  0.3506  0.3052  0.0401
 3450POPC   C4A79369  23.825  20.353   8.208  0.1188 -0.4010  0.0308
 3450POPC   C1B79370  23.071  20.061   7.043  0.0192 -0.0818  0.0487
 3450POPC   C2B79371  22.724  19.890   7.223  0.0028 -0.2778 -0.0063
 3450POPC   C3B79372  22.311  19.841   7.209 -0.1173  0.4406  0.0447
 3450POPC   C4B79373  21.847  19.953   7.182  0.3359 -0.1496 -0.2445
 3451POPC   NC379374  32.044  18.759   4.789 -0.1838  0.0394  0.1222
 3451POPC   PO479375  32.178  18.441   4.572  0.0657  0.0219  0.1584
 3451POPC   GL179376  32.425  18.281   4.888  0.2687  0.2241 -0.0971
 3451POPC   GL279377  32.320  18.440   5.130 -0.2823 -0.1330  0.0962
 3451POPC   C1A79378  32.848  18.350   5.096  0.0538 -0.0176  0.0709
 3451POPC   D2A79379  33.192  18.492   5.378  0.0244  0.3455 -0.0453
 3451POPC   C3A79380  33.658  18.477   5.431  0.0616 -0.1067 -0.1117
 3451POPC   C4A79381  34.088  18.350   5.547  0.0280  0.1149 -0.0305
 3451POPC   C1B79382  32.216  18.481   5.578 -0.1788  0.0525  0.0164
 3451POPC   C2B79383  31.925  18.507   5.983 -0.0866 -0.0721 -0.0021
 3451POPC   C3B79384  31.831  18.422   6.393  0.1107 -0.0356 -0.3085
 3451POPC   C4B79385  31.798  18.360   6.821 -0.0209 -0.3004  0.0519
 3452POPC   NC379386   0.131  26.583   4.764  0.1791 -0.2446 -0.2625
 3452POPC   PO479387   0.377  26.599   4.471  0.0297 -0.0843 -0.1139
 3452POPC   GL179388   0.586  26.840   4.776  0.1478 -0.1707  0.0530
 3452POPC   GL279389   0.863  26.626   4.738 -0.0628 -0.2283  0.0046
 3452POPC   C1A79390   0.944  27.015   5.068  0.3341 -0.2584 -0.1578
 3452POPC   D2A79391   1.165  27.225   5.462  0.1863 -0.2602 -0.4989
 3452POPC   C3A79392   1.018  27.129   5.866 -0.1808  0.0847  0.0399
 3452POPC   C4A79393   1.319  26.894   6.154  0.1957 -0.0614  0.1647
 3452POPC   C1B79394   0.884  26.472   5.147  0.0121  0.2055 -0.1666
 3452POPC   C2B79395   0.669  26.484   5.561  0.2263 -0.1258  0.2097
 3452POPC   C3B79396   0.672  26.723   5.968 -0.2581  0.0260 -0.0322
 3452POPC   C4B79397   0.873  26.821   6.391  0.0992 -0.0114  0.0047
 3453POPC   NC379398  20.693  18.016   5.026  0.3858  0.2211 -0.0018
 3453POPC   PO479399  21.049  18.153   5.017 -0.0541  0.0889  0.1424
 3453POPC   GL179400  21.067  18.260   5.448 -0.3430  0.1747  0.4459
 3453POPC   GL279401  20.784  18.207   5.448 -0.1441 -0.1126 -0.1290
 3453POPC   C1A79402  21.228  18.304   5.913  0.1518 -0.2065  0.0854
 3453POPC   D2A79403  20.986  18.477   6.263 -0.0312 -0.0433 -0.4674
 3453POPC   C3A79404  21.077  18.372   6.738 -0.0827 -0.3167  0.0161
 3453POPC   C4A79405  21.233  18.014   6.927 -0.2166  0.1965 -0.1415
 3453POPC   C1B79406  20.632  18.327   5.894  0.1107  0.2141  0.0542
 3453POPC   C2B79407  20.519  18.277   6.367 -0.3234  0.1667 -0.0638
 3453POPC   C3B79408  20.710  18.053   6.670  0.0251 -0.0018  0.1071
 3453POPC   C4B79409  20.797  17.938   7.119 -0.1318 -0.0592  0.1645
 3454POPC   NC379410  18.476  27.596   3.896  0.0743 -0.0484  0.0680
 3454POPC   PO479411  18.114  27.449   4.016 -0.2045 -0.1691  0.2160
 3454POPC   GL179412  18.186  27.678   4.358 -0.1637 -0.1240  0.2873
 3454POPC   GL279413  18.352  27.434   4.495 -0.0366 -0.0039 -0.2149
 3454POPC   C1A79414  18.145  27.762   4.819  0.3816  0.2491  0.1053
 3454POPC   D2A79415  18.407  28.005   5.104  0.1332 -0.0141  0.0160
 3454POPC   C3A79416  18.477  28.455   5.125  0.1637 -0.0307 -0.2640
 3454POPC   C4A79417  18.515  28.953   5.097 -0.2847  0.0892 -0.4454
 3454POPC   C1B79418  18.333  26.996   4.735 -0.0934 -0.0659 -0.1116
 3454POPC   C2B79419  18.226  27.021   5.197  0.0474 -0.0513 -0.0522
 3454POPC   C3B79420  18.355  27.257   5.615  0.1226  0.1640  0.0288
 3454POPC   C4B79421  18.511  27.499   5.948  0.0326  0.0372  0.1073
 3455POPC   NC379422  26.613  23.613  10.377 -0.0100  0.0532 -0.0300
 3455POPC   PO479423  26.254  23.467  10.288 -0.2859 -0.0999 -0.3550
 3455POPC   GL179424  26.211  23.787  10.519  0.3494  0.3692 -0.2336
 3455POPC   GL279425  25.972  23.885  10.710 -0.0991 -0.3524  0.1690
 3455POPC   C1A79426  26.354  24.228  10.579  0.3629  0.1913  0.0142
 3455POPC   D2A79427  26.702  24.526  10.466 -0.0957 -0.1643  0.2704
 3455POPC   C3A79428  26.680  24.992  10.318  0.2494 -0.2033  0.2842
 3455POPC   C4A79429  26.702  25.451  10.067 -0.0637  0.1271 -0.0827
 3455POPC   C1B79430  25.845  24.104  11.123 -0.2077  0.1816  0.2390
 3455POPC   C2B79431  25.475  24.327  11.334 -0.2652 -0.1561 -0.1028
 3455POPC   C3B79432  25.060  24.395  11.599 -0.1107  0.1867 -0.2175
 3455POPC   C4B79433  24.580  24.373  11.771  0.0219 -0.2990 -0.0564
 3456POPC   NC379434  21.315  20.351   5.285  0.1794 -0.2185  0.1324
 3456POPC   PO479435  20.955  20.476   5.328 -0.2255 -0.0301  0.1685
 3456POPC   GL179436  21.028  20.145   5.627  0.2566  0.1780  0.2634
 3456POPC   GL279437  20.819  20.295   5.759  0.4541 -0.0865 -0.0497
 3456POPC   C1A79438  21.138  19.919   6.015  0.1398  0.1114 -0.0639
 3456POPC   D2A79439  21.136  19.921   6.457 -0.4925  0.4561  0.1540
 3456POPC   C3A79440  20.765  19.909   6.722  0.3030 -0.0598 -0.0898
 3456POPC   C4A79441  20.416  19.954   7.026  0.0036  0.0843  0.0709
 3456POPC   C1B79442  20.646  20.016   6.113 -0.0002 -0.0033  0.0427
 3456POPC   C2B79443  20.332  20.020   6.453  0.0875 -0.0303 -0.1319
 3456POPC   C3B79444  20.018  19.963   6.730 -0.0792  0.1662  0.0669
 3456POPC   C4B79445  19.667  19.652   6.827 -0.0918 -0.0848 -0.2543
 3457POPC   NC379446  31.510  25.004   4.696 -0.1632  0.1067  0.5643
 3457POPC   PO479447  31.657  25.190   4.979 -0.5163  0.2460 -0.0422
 3457POPC   GL179448  31.678  25.423   5.423 -0.2306 -0.1174  0.1126
 3457POPC   GL279449  31.682  25.150   5.570  0.0742  0.0154 -0.1629
 3457POPC   C1A79450  31.942  25.761   5.648 -0.0174  0.0852 -0.1211
 3457POPC   D2A79451  32.187  25.767   6.040  0.0816 -0.4123  0.3323
 3457POPC   C3A79452  32.056  26.174   6.195 -0.1257 -0.1037 -0.1102
 3457POPC   C4A79453  31.817  26.192   6.607  0.0396 -0.1440 -0.0620
 3457POPC   C1B79454  31.713  25.322   5.943 -0.0890 -0.2512 -0.0608
 3457POPC   C2B79455  31.627  25.120   6.331 -0.2674 -0.1465  0.0068
 3457POPC   C3B79456  31.627  25.198   6.789  0.1220 -0.0222  0.0918
 3457POPC   C4B79457  31.481  25.384   7.221 -0.1518  0.1257 -0.0059
 3458POPC   NC379458  20.618  27.183   4.114 -0.1903 -0.2567 -0.0801
 3458POPC   PO479459  20.912  27.170   4.350 -0.1486  0.0841 -0.0647
 3458POPC   GL179460  20.767  27.452   4.742 -0.3396  0.0109  0.1340
 3458POPC   GL279461  20.661  27.185   4.937 -0.1946  0.0423  0.0769
 3458POPC   C1A79462  20.865  27.704   5.142  0.0091  0.1485  0.3468
 3458POPC   D2A79463  20.913  27.920   5.535  0.0840 -0.1728 -0.2539
 3458POPC   C3A79464  21.277  27.638   5.733 -0.2465 -0.1819  0.1858
 3458POPC   C4A79465  21.670  27.738   5.961  0.0240  0.0637 -0.0512
 3458POPC   C1B79466  20.199  27.206   5.106  0.0938 -0.0557 -0.3255
 3458POPC   C2B79467  19.842  27.510   5.130  0.0595 -0.1062 -0.2523
 3458POPC   C3B79468  19.515  27.869   5.074 -0.2617  0.0206 -0.0941
 3458POPC   C4B79469  19.258  28.120   5.280 -0.3166 -0.2322  0.0425
 3459POPC   NC379470  32.323  25.376   4.727  0.0236 -0.3208 -0.1283
 3459POPC   PO479471  32.375  25.612   5.028 -0.1464  0.1975 -0.0077
 3459POPC   GL179472  32.514  25.889   5.371  0.2464  0.1175 -0.2056
 3459POPC   GL279473  32.475  25.678   5.566 -0.0254 -0.1413  0.0004
 3459POPC   C1A79474  32.791  26.217   5.543  0.2744  0.0302 -0.0450
 3459POPC   D2A79475  33.052  26.406   5.849  0.0434 -0.2272  0.4153
 3459POPC   C3A79476  33.155  26.307   6.271 -0.1994  0.2036 -0.0593
 3459POPC   C4A79477  33.359  26.474   6.570 -0.1601  0.0031  0.0714
 3459POPC   C1B79478  32.974  25.691   5.570  0.3015 -0.2295  0.1283
 3459POPC   C2B79479  33.270  25.975   5.835 -0.0224  0.0012 -0.1399
 3459POPC   C3B79480  33.379  25.879   6.275  0.1685  0.3321 -0.1547
 3459POPC   C4B79481  33.677  25.923   6.674  0.0023 -0.0175 -0.1459
 3460POPC   NC379482  16.531  18.821   4.619  0.2475  0.0621  0.0885
 3460POPC   PO479483  16.191  18.671   4.438  0.0842 -0.1133  0.1709
 3460POPC   GL179484  16.176  18.664   4.893 -0.3112 -0.2215 -0.0270
 3460POPC   GL279485  16.360  18.493   4.990  0.1674  0.1614  0.0559
 3460POPC   C1A79486  15.879  18.643   5.226 -0.2218  0.1703 -0.0239
 3460POPC   D2A79487  15.612  18.909   5.490 -0.1087  0.0545  0.4747
 3460POPC   C3A79488  15.686  18.620   5.809 -0.1648  0.3361 -0.1067
 3460POPC   C4A79489  15.794  18.368   6.150  0.0647  0.2543  0.0327
 3460POPC   C1B79490  16.444  18.093   5.159 -0.0732  0.0884 -0.1284
 3460POPC   C2B79491  16.470  17.763   5.469  0.0001  0.0053  0.0078
 3460POPC   C3B79492  16.231  17.579   5.825 -0.0055  0.0723  0.0053
 3460POPC   C4B79493  16.341  17.209   6.082 -0.0505  0.1149  0.0227
 3461POPC   NC379494  18.704  24.687   4.677  0.0843  0.1751  0.2062
 3461POPC   PO479495  18.542  24.358   4.780 -0.1055 -0.0640  0.0143
 3461POPC   GL179496  18.271  24.582   5.020 -0.3534  0.2213 -0.2963
 3461POPC   GL279497  18.117  24.368   5.266  0.1525 -0.1574 -0.0861
 3461POPC   C1A79498  18.388  24.759   5.449 -0.1052  0.2996 -0.0288
 3461POPC   D2A79499  18.167  24.848   5.907 -0.0052  0.0565  0.2586
 3461POPC   C3A79500  18.261  24.754   6.282 -0.0920 -0.1899  0.1238
 3461POPC   C4A79501  18.294  24.857   6.769  0.2041  0.0199 -0.2134
 3461POPC   C1B79502  17.996  24.360   5.733  0.0541 -0.0999  0.0729
 3461POPC   C2B79503  17.690  24.224   6.102  0.0616 -0.1910  0.3405
 3461POPC   C3B79504  17.762  23.906   6.462  0.1654 -0.3402  0.0672
 3461POPC   C4B79505  18.131  23.969   6.698  0.1433  0.0132 -0.2324
 3462POPC   NC379506  32.283  21.032   4.849 -0.1005  0.0276  0.3023
 3462POPC   PO479507  32.398  21.397   4.888 -0.0702 -0.1620  0.0138
 3462POPC   GL179508  32.539  21.232   5.220  0.0359  0.1543  0.0971
 3462POPC   GL279509  32.373  20.880   5.314  0.1030  0.2756  0.0875
 3462POPC   C1A79510  32.421  21.234   5.644  0.2082 -0.1024 -0.2173
 3462POPC   D2A79511  32.394  21.488   6.061 -0.0675  0.2109 -0.0339
 3462POPC   C3A79512  32.765  21.602   6.314  0.2760  0.0796 -0.3082
 3462POPC   C4A79513  33.118  21.438   6.501 -0.2140  0.0812  0.1711
 3462POPC   C1B79514  32.095  20.842   5.645 -0.1006 -0.1047  0.1576
 3462POPC   C2B79515  32.111  21.088   6.062  0.0831 -0.0695  0.1675
 3462POPC   C3B79516  32.035  21.068   6.560  0.1168 -0.1140  0.1322
 3462POPC   C4B79517  32.028  20.991   7.020  0.0403  0.0883  0.0720
 3463POPC   NC379518  30.402   2.093   5.073  0.3151  0.1642 -0.2214
 3463POPC   PO479519  30.182   1.933   4.783  0.1439  0.1896 -0.1060
 3463POPC   GL179520  30.005   1.840   5.070  0.0209  0.2762  0.2640
 3463POPC   GL279521  29.880   2.039   5.164  0.0968  0.3257  0.0137
 3463POPC   C1A79522  30.290   1.730   5.459 -0.0144 -0.1146  0.1947
 3463POPC   D2A79523  30.446   1.585   5.845 -0.1004  0.1320 -0.0904
 3463POPC   C3A79524  30.477   1.140   5.821  0.5397  0.2205  0.1808
 3463POPC   C4A79525  30.543   0.981   5.413  0.1142  0.0625  0.2441
 3463POPC   C1B79526  29.824   2.131   5.624  0.0476 -0.2367 -0.1547
 3463POPC   C2B79527  30.015   2.341   6.024  0.2390 -0.0897 -0.1348
 3463POPC   C3B79528  30.447   2.415   6.222 -0.2870  0.1697  0.2980
 3463POPC   C4B79529  30.636   2.455   6.634  0.0722 -0.1181 -0.0553
 3464POPC   NC379530  28.458  31.656   4.277  0.0123 -0.0895 -0.4508
 3464POPC   PO479531  28.691  31.932   4.385 -0.0417  0.3203 -0.3186
 3464POPC   GL179532  28.776  31.902   4.808  0.0212  0.0998 -0.0901
 3464POPC   GL279533  28.486  31.671   4.882  0.1896  0.2573 -0.3022
 3464POPC   C1A79534  28.990  32.260   5.052 -0.1922  0.2279  0.1255
 3464POPC   D2A79535  29.185  32.232   5.490  0.2319 -0.2075 -0.1529
 3464POPC   C3A79536  29.189  31.876   5.854  0.1129 -0.0961  0.0207
 3464POPC   C4A79537  29.023  31.637   6.194  0.0487 -0.2571  0.4303
 3464POPC   C1B79538  28.235  31.694   5.300  0.3817 -0.2573  0.0308
 3464POPC   C2B79539  28.207  31.484   5.684  0.0849  0.1411 -0.1928
 3464POPC   C3B79540  28.097  31.379   6.135 -0.0433 -0.0608 -0.5432
 3464POPC   C4B79541  27.933  31.198   6.513 -0.1221 -0.2097 -0.0969
 3465POPC   NC379542  27.020  24.899   7.994 -0.0685  0.0345 -0.1044
 3465POPC   PO479543  27.167  24.677   7.702  0.2016  0.1561 -0.1781
 3465POPC   GL179544  27.546  24.776   7.822 -0.3454 -0.2050  0.2533
 3465POPC   GL279545  27.526  25.017   7.928  0.3263  0.0526 -0.0232
 3465POPC   C1A79546  27.504  24.710   8.330  0.3408 -0.0609  0.4397
 3465POPC   D2A79547  27.203  24.525   8.655  0.1529 -0.0356 -0.0525
 3465POPC   C3A79548  27.230  24.853   9.046  0.0577 -0.0114 -0.0594
 3465POPC   C4A79549  27.397  25.225   9.302  0.3395 -0.2421 -0.0352
 3465POPC   C1B79550  27.572  25.175   8.320 -0.0265 -0.0932  0.1599
 3465POPC   C2B79551  27.917  25.305   8.592  0.0529 -0.0519 -0.2671
 3465POPC   C3B79552  28.148  25.670   8.668 -0.3418  0.0800 -0.0863
 3465POPC   C4B79553  28.153  25.923   8.310  0.2268  0.3507 -0.0876
 3466POPC   NC379554  28.262  18.937   5.106 -0.1405  0.1817  0.1254
 3466POPC   PO479555  27.993  18.727   4.907 -0.0224  0.0250  0.3221
 3466POPC   GL179556  27.988  18.419   5.128  0.1266 -0.2269  0.4376
 3466POPC   GL279557  28.051  18.524   5.322 -0.1504 -0.2183 -0.0299
 3466POPC   C1A79558  27.986  18.037   5.432  0.0760  0.1306  0.0116
 3466POPC   D2A79559  27.977  17.808   5.788 -0.0769  0.2424  0.2699
 3466POPC   C3A79560  27.769  17.935   6.206  0.2065 -0.1544  0.0040
 3466POPC   C4A79561  27.447  18.117   6.432  0.0723 -0.0350 -0.0985
 3466POPC   C1B79562  28.458  18.634   5.475  0.3843 -0.0170  0.0749
 3466POPC   C2B79563  28.714  18.544   5.894  0.0289 -0.2173  0.1163
 3466POPC   C3B79564  28.905  18.521   6.296 -0.1879  0.0547  0.0273
 3466POPC   C4B79565  28.886  18.304   6.708 -0.1202  0.0031  0.0066
 3467POPC   NC379566  22.113  23.421   6.154 -0.0719 -0.1424  0.2090
 3467POPC   PO479567  22.420  23.513   6.408 -0.1809 -0.1183  0.1599
 3467POPC   GL179568  22.241  23.611   6.655  0.1260  0.2766 -0.3038
 3467POPC   GL279569  21.893  23.571   6.641 -0.2704 -0.0048 -0.1316
 3467POPC   C1A79570  21.985  23.546   7.101  0.1422  0.1462  0.1239
 3467POPC   D2A79571  21.677  23.587   7.487 -0.0838  0.3336 -0.1004
 3467POPC   C3A79572  21.816  23.847   7.814  0.1949  0.1635 -0.1260
 3467POPC   C4A79573  21.440  24.060   7.969  0.2915  0.3471 -0.2965
 3467POPC   C1B79574  21.473  23.657   6.797 -0.1725 -0.1695 -0.0276
 3467POPC   C2B79575  21.277  23.768   7.196 -0.0899 -0.1452 -0.0767
 3467POPC   C3B79576  21.023  23.815   7.609 -0.0922  0.2468 -0.0643
 3467POPC   C4B79577  20.910  24.085   8.022  0.5193  0.1452  0.3861
 3468POPC   NC379578  25.151  28.518   5.139 -0.0465  0.1069  0.2018
 3468POPC   PO479579  24.790  28.429   5.280 -0.1623 -0.1787 -0.1665
 3468POPC   GL179580  24.659  28.648   5.651 -0.1001 -0.2792  0.0850
 3468POPC   GL279581  24.354  28.691   5.664  0.1214  0.5083 -0.2454
 3468POPC   C1A79582  24.870  28.768   6.055  0.0780 -0.0220  0.0676
 3468POPC   D2A79583  24.913  28.599   6.486 -0.3929 -0.0061  0.0591
 3468POPC   C3A79584  25.154  28.630   6.826 -0.2935 -0.0746 -0.2779
 3468POPC   C4A79585  25.296  28.539   7.243  0.3111  0.2102 -0.0428
 3468POPC   C1B79586  24.468  28.422   6.019 -0.2631 -0.0489  0.2200
 3468POPC   C2B79587  24.487  28.276   6.452 -0.2577 -0.1974  0.0502
 3468POPC   C3B79588  24.685  28.244   6.847 -0.5327  0.1286  0.2533
 3468POPC   C4B79589  24.761  28.412   7.302 -0.3016  0.2835 -0.4384
 3469POPC   NC379590  27.981  22.909  11.952 -0.0322 -0.5131  0.1863
 3469POPC   PO479591  27.958  22.712  11.619  0.0657 -0.1309 -0.2854
 3469POPC   GL179592  28.323  22.641  11.687  0.2658  0.1433 -0.0173
 3469POPC   GL279593  28.496  22.892  11.617  0.2519 -0.1401  0.0887
 3469POPC   C1A79594  28.622  22.628  12.050  0.0351  0.2749  0.1031
 3469POPC   D2A79595  28.964  22.744  12.272  0.0692 -0.0237  0.1001
 3469POPC   C3A79596  29.095  22.823  12.694  0.0271  0.0711  0.3105
 3469POPC   C4A79597  28.989  23.040  13.107 -0.3331  0.0036  0.0960
 3469POPC   C1B79598  28.776  22.900  11.180  0.0167  0.0645  0.0519
 3469POPC   C2B79599  29.215  22.995  11.103  0.0662  0.1351  0.0791
 3469POPC   C3B79600  29.313  23.349  11.348 -0.3953 -0.3623  0.1603
 3469POPC   C4B79601  29.369  23.571  11.765 -0.0700  0.0203  0.1545
 3470POPC   NC379602  22.097  24.376   5.944 -0.1105  0.1541  0.0319
 3470POPC   PO479603  21.735  24.522   5.932 -0.0163 -0.0031 -0.0043
 3470POPC   GL179604  21.474  24.706   6.132 -0.4460  0.0271  0.0498
 3470POPC   GL279605  21.538  24.976   6.073  0.0286  0.4546 -0.2497
 3470POPC   C1A79606  21.071  24.801   6.244 -0.0057 -0.0529  0.0201
 3470POPC   D2A79607  20.913  25.147   6.489  0.0775  0.0405 -0.1395
 3470POPC   C3A79608  20.507  25.190   6.686 -0.0818  0.1139  0.1851
 3470POPC   C4A79609  20.240  25.095   7.058 -0.1314 -0.0475 -0.2048
 3470POPC   C1B79610  21.411  25.047   6.513 -0.1148 -0.2225  0.1783
 3470POPC   C2B79611  21.224  25.303   6.879  0.0933  0.3949  0.2480
 3470POPC   C3B79612  20.971  25.630   7.101  0.2231  0.1600  0.0238
 3470POPC   C4B79613  20.739  26.028   6.991 -0.0637  0.2018  0.0591
 3471POPC   NC379614  21.742  25.895   5.091 -0.0025  0.2532 -0.2009
 3471POPC   PO479615  21.961  26.040   5.391  0.3064  0.2198  0.1543
 3471POPC   GL179616  21.759  26.020   5.705  0.1173  0.0648  0.0853
 3471POPC   GL279617  21.641  25.739   5.737 -0.0320 -0.3090 -0.0542
 3471POPC   C1A79618  21.525  26.388   5.918 -0.2775 -0.0410 -0.2155
 3471POPC   D2A79619  21.403  26.866   6.008  0.0779 -0.2136  0.0184
 3471POPC   C3A79620  21.622  27.294   6.158 -0.3190  0.1584  0.0917
 3471POPC   C4A79621  21.749  27.473   6.571 -0.2210 -0.1666  0.1595
 3471POPC   C1B79622  21.585  25.885   6.173 -0.2423 -0.2186 -0.0619
 3471POPC   C2B79623  21.723  26.146   6.628 -0.0553  0.0341 -0.2713
 3471POPC   C3B79624  22.044  26.240   6.927  0.1919 -0.0462 -0.3869
 3471POPC   C4B79625  22.204  26.143   7.371 -0.1661 -0.0047  0.0892
 3472POPC   NC379626  25.141  19.500   6.643 -0.0039 -0.1662 -0.2281
 3472POPC   PO479627  25.349  19.278   6.425 -0.0989  0.1816  0.3048
 3472POPC   GL179628  25.457  18.928   6.674  0.0153  0.0795 -0.2303
 3472POPC   GL279629  25.716  18.702   6.559  0.1996 -0.4046  0.1298
 3472POPC   C1A79630  25.690  18.771   7.040  0.1275 -0.3074 -0.0892
 3472POPC   D2A79631  25.590  18.669   7.455  0.1831  0.0622 -0.3781
 3472POPC   C3A79632  25.570  18.327   7.791 -0.0729 -0.0904 -0.0233
 3472POPC   C4A79633  25.602  17.994   8.127 -0.0819 -0.0307  0.1571
 3472POPC   C1B79634  25.452  18.422   6.770 -0.0126 -0.0579 -0.4751
 3472POPC   C2B79635  25.060  18.219   6.914  0.3415  0.1490 -0.0878
 3472POPC   C3B79636  24.770  18.017   7.245 -0.0250 -0.1434 -0.1424
 3472POPC   C4B79637  24.442  17.878   7.567  0.2920  0.2641 -0.1314
 3473POPC   NC379638  24.871  22.841   9.578  0.2831 -0.1458  0.2208
 3473POPC   PO479639  25.048  23.036   9.325 -0.0586 -0.1054  0.0185
 3473POPC   GL179640  25.164  23.315   9.594  0.2928 -0.0998  0.2613
 3473POPC   GL279641  24.884  23.306   9.734  0.2450 -0.0427 -0.3461
 3473POPC   C1A79642  25.033  23.786   9.651 -0.1124  0.1857 -0.2968
 3473POPC   D2A79643  25.142  24.232   9.840  0.3360  0.2137 -0.1122
 3473POPC   C3A79644  25.109  24.698   9.891  0.1072  0.0390 -0.1551
 3473POPC   C4A79645  25.258  25.078  10.163  0.2813  0.1983 -0.3914
 3473POPC   C1B79646  24.683  23.611   9.994 -0.1256  0.1952  0.0608
 3473POPC   C2B79647  24.712  24.055   9.903 -0.3318 -0.0031 -0.0457
 3473POPC   C3B79648  24.618  24.462   9.874  0.1676  0.0132  0.2862
 3473POPC   C4B79649  24.624  24.926   9.861 -0.0557 -0.0004 -0.2453
 3474POPC   NC379650  30.684  25.992   5.021  0.0806 -0.1196  0.3140
 3474POPC   PO479651  30.565  25.881   5.365  0.0504  0.1595  0.2565
 3474POPC   GL179652  30.654  26.184   5.557 -0.0912  0.1704 -0.3350
 3474POPC   GL279653  30.790  26.105   5.787 -0.2888 -0.2018  0.2303
 3474POPC   C1A79654  30.573  26.595   5.771  0.0599 -0.3134 -0.0707
 3474POPC   D2A79655  30.388  26.741   6.159  0.0398 -0.0844  0.1848
 3474POPC   C3A79656  30.187  26.536   6.519  0.1737 -0.1188  0.2102
 3474POPC   C4A79657  30.214  26.120   6.668 -0.2450 -0.2836  0.1059
 3474POPC   C1B79658  30.520  26.156   6.109  0.0248  0.1606  0.0530
 3474POPC   C2B79659  30.693  26.253   6.553  0.0569  0.1433 -0.4084
 3474POPC   C3B79660  31.006  26.534   6.823 -0.0820  0.0423  0.0577
 3474POPC   C4B79661  30.943  26.972   6.911 -0.0734  0.0958 -0.0980
 3475POPC   NC379662  26.037  29.659   4.924 -0.0393  0.1026 -0.2012
 3475POPC   PO479663  26.087  29.313   5.082  0.0893  0.1429 -0.0803
 3475POPC   GL179664  26.170  29.537   5.424  0.1655 -0.2532  0.0147
 3475POPC   GL279665  26.254  29.818   5.378  0.3410 -0.2501  0.0679
 3475POPC   C1A79666  26.208  29.446   5.875  0.0785  0.0596  0.1083
 3475POPC   D2A79667  26.198  29.430   6.327 -0.0081  0.1848  0.3672
 3475POPC   C3A79668  26.388  29.752   6.668  0.2371 -0.0852 -0.0310
 3475POPC   C4A79669  26.751  29.905   6.789  0.0518 -0.2095 -0.0360
 3475POPC   C1B79670  26.609  29.647   5.616  0.0338 -0.0075 -0.1447
 3475POPC   C2B79671  26.707  29.282   5.969  0.0251 -0.2416 -0.3574
 3475POPC   C3B79672  26.638  29.192   6.456  0.4432  0.2704 -0.3003
 3475POPC   C4B79673  26.472  29.190   6.911  0.0135  0.0145  0.0758
 3476POPC   NC379674  27.127  23.015  12.562  0.1798 -0.3218 -0.1922
 3476POPC   PO479675  26.760  23.144  12.489  0.1039 -0.1796 -0.5572
 3476POPC   GL179676  26.933  23.566  12.509  0.0828 -0.4412 -0.1078
 3476POPC   GL279677  27.136  23.496  12.699  0.0296  0.2395 -0.0691
 3476POPC   C1A79678  26.926  24.004  12.624  0.2208 -0.2141  0.2110
 3476POPC   D2A79679  27.070  24.421  12.551  0.0683  0.0889 -0.1267
 3476POPC   C3A79680  27.124  24.735  12.232 -0.0156 -0.0220 -0.0077
 3476POPC   C4A79681  27.196  24.924  11.837  0.2592 -0.0818 -0.1264
 3476POPC   C1B79682  27.440  23.886  12.637 -0.1911  0.0632  0.0538
 3476POPC   C2B79683  27.582  24.313  12.839  0.4346  0.0949  0.2270
 3476POPC   C3B79684  27.893  24.586  13.028  0.0840 -0.0292 -0.0907
 3476POPC   C4B79685  28.058  24.670  13.460 -0.1508  0.1108  0.0338
 3477POPC   NC379686  31.181  19.171   4.906  0.0099  0.0880  0.0901
 3477POPC   PO479687  30.866  18.922   4.821 -0.0433 -0.0825  0.3568
 3477POPC   GL179688  30.833  18.752   5.117 -0.1121  0.1339  0.1438
 3477POPC   GL279689  31.093  18.760   5.293 -0.2607  0.4790  0.0916
 3477POPC   C1A79690  30.744  18.379   5.411 -0.1822 -0.2188  0.1697
 3477POPC   D2A79691  30.758  18.378   5.829  0.0361 -0.1795  0.2627
 3477POPC   C3A79692  30.875  17.940   5.964  0.4183 -0.0311 -0.2507
 3477POPC   C4A79693  31.087  17.555   5.877  0.1774 -0.0948 -0.1474
 3477POPC   C1B79694  31.307  18.364   5.146 -0.0479  0.1230 -0.1513
 3477POPC   C2B79695  31.460  17.990   5.361 -0.0916  0.0849  0.1503
 3477POPC   C3B79696  31.313  17.567   5.402  0.4797 -0.2622 -0.0119
 3477POPC   C4B79697  30.892  17.372   5.478  0.6273 -0.1719 -0.2716
 3478POPC   NC379698  31.890  24.236   5.286  0.1212 -0.2206 -0.2067
 3478POPC   PO479699  31.903  24.433   5.644  0.1911 -0.1229 -0.0685
 3478POPC   GL179700  32.067  24.278   6.020 -0.2581  0.0252 -0.1089
 3478POPC   GL279701  32.329  24.417   5.990 -0.4083 -0.0303 -0.1067
 3478POPC   C1A79702  32.073  23.950   6.309 -0.1625  0.1047 -0.3195
 3478POPC   D2A79703  32.019  23.653   6.659  0.0760  0.1564  0.0938
 3478POPC   C3A79704  32.358  23.691   7.025  0.0547 -0.1744 -0.0868
 3478POPC   C4A79705  32.307  23.698   7.449  0.2422  0.2878  0.2431
 3478POPC   C1B79706  32.391  24.866   6.150  0.2355  0.2034  0.0214
 3478POPC   C2B79707  32.525  25.068   6.515  0.2164 -0.2052  0.1040
 3478POPC   C3B79708  32.682  25.499   6.604 -0.0072 -0.0308  0.3725
 3478POPC   C4B79709  32.539  25.756   6.936 -0.1117  0.1585  0.0906
 3479POPC   NC379710  18.050  29.707   3.925  0.1569 -0.1561 -0.1313
 3479POPC   PO479711  17.635  29.634   3.973 -0.2693 -0.0093  0.1313
 3479POPC   GL179712  17.546  29.709   4.418 -0.1130  0.1172  0.2245
 3479POPC   GL279713  17.861  29.738   4.430 -0.3185  0.0105 -0.4886
 3479POPC   C1A79714  17.579  30.183   4.468  0.1065  0.0889 -0.1667
 3479POPC   D2A79715  17.469  30.471   4.766  0.3153 -0.0584 -0.3815
 3479POPC   C3A79716  17.455  30.328   5.207 -0.1787 -0.0394  0.0917
 3479POPC   C4A79717  17.316  30.323   5.666 -0.1907 -0.1635  0.2718
 3479POPC   C1B79718  17.909  29.614   4.839 -0.0661  0.3217  0.2208
 3479POPC   C2B79719  17.900  29.369   5.271 -0.5709  0.3847  0.0709
 3479POPC   C3B79720  17.851  29.462   5.710  0.0347 -0.0084  0.1134
 3479POPC   C4B79721  18.062  29.373   6.150 -0.1497 -0.3214 -0.2746
 3480POPC   NC379722  18.801  29.442   3.712  0.0467  0.1102 -0.0314
 3480POPC   PO479723  18.401  29.429   3.644  0.4428 -0.2642 -0.1759
 3480POPC   GL179724  18.463  29.410   4.046  0.0243 -0.2078  0.3163
 3480POPC   GL279725  18.372  29.611   4.352 -0.1961 -0.1304  0.2317
 3480POPC   C1A79726  18.407  29.087   4.382 -0.0055 -0.1576  0.2534
 3480POPC   D2A79727  18.391  28.674   4.532 -0.0775  0.1644 -0.0495
 3480POPC   C3A79728  18.002  28.514   4.793 -0.2572 -0.1225 -0.0460
 3480POPC   C4A79729  17.670  28.512   5.097  0.1633 -0.2611  0.1804
 3480POPC   C1B79730  18.416  29.377   4.788 -0.0480 -0.0280  0.0192
 3480POPC   C2B79731  18.475  29.494   5.226  0.0341 -0.0099  0.0171
 3480POPC   C3B79732  18.338  29.520   5.662  0.0623  0.0474  0.2436
 3480POPC   C4B79733  18.373  29.802   6.050  0.2257 -0.0901 -0.0035
 3481POPC   NC379734  26.805   1.398   5.184  0.0381 -0.2088 -0.1720
 3481POPC   PO479735  27.004   1.628   5.500 -0.0332  0.0416 -0.1877
 3481POPC   GL179736  27.069   1.392   5.830  0.3417 -0.0982  0.1045
 3481POPC   GL279737  27.320   1.234   5.861 -0.1147 -0.2590  0.3726
 3481POPC   C1A79738  27.142   1.472   6.270 -0.1159  0.3650 -0.1986
 3481POPC   D2A79739  27.358   1.649   6.651 -0.1281 -0.0331  0.0002
 3481POPC   C3A79740  27.648   1.358   6.833  0.4086  0.0431  0.1302
 3481POPC   C4A79741  27.734   1.267   7.276 -0.0368 -0.2270 -0.0584
 3481POPC   C1B79742  27.023   0.998   6.088 -0.0327  0.0879  0.0691
 3481POPC   C2B79743  27.085   0.643   6.444  0.0693  0.0858  0.2702
 3481POPC   C3B79744  27.274   0.542   6.854  0.1246 -0.3044  0.1597
 3481POPC   C4B79745  27.355   0.390   7.332  0.0962  0.1894  0.0597
 3482POPC   NC379746  22.066  25.121   5.464  0.1489  0.1083 -0.2799
 3482POPC   PO479747  22.046  25.549   5.441 -0.0651  0.0951 -0.1994
 3482POPC   GL179748  22.206  25.889   5.815  0.1830  0.0716  0.2285
 3482POPC   GL279749  22.112  25.661   6.022  0.0260  0.1153  0.0921
 3482POPC   C1A79750  21.994  26.174   6.132  0.2046  0.1791  0.1243
 3482POPC   D2A79751  21.764  26.600   6.268 -0.3450 -0.1315  0.1225
 3482POPC   C3A79752  21.366  26.502   6.443 -0.3754  0.1788 -0.2438
 3482POPC   C4A79753  21.160  26.107   6.568  0.0423 -0.0026  0.0889
 3482POPC   C1B79754  22.093  25.770   6.476 -0.1443  0.1143 -0.0703
 3482POPC   C2B79755  22.314  25.726   6.921  0.0591 -0.0116  0.3476
 3482POPC   C3B79756  22.611  25.806   7.167  0.0684 -0.0692  0.0296
 3482POPC   C4B79757  22.891  26.122   7.368 -0.1540 -0.0735 -0.1359
 3483POPC   NC379758  27.881  22.584   8.405  0.1535 -0.3277  0.1327
 3483POPC   PO479759  27.609  22.573   8.753 -0.4264  0.2872 -0.0042
 3483POPC   GL179760  28.029  22.475   8.914 -0.0957 -0.2244 -0.0198
 3483POPC   GL279761  28.281  22.370   8.785  0.0796 -0.4645 -0.1428
 3483POPC   C1A79762  28.258  22.412   9.321  0.1828 -0.1404  0.2283
 3483POPC   D2A79763  28.520  22.655   9.569  0.3404 -0.1673 -0.2021
 3483POPC   C3A79764  28.834  22.576   9.866  0.0297  0.1377  0.1118
 3483POPC   C4A79765  29.222  22.777   9.988  0.1536 -0.0298 -0.1243
 3483POPC   C1B79766  28.651  22.615   8.990 -0.1113 -0.1638 -0.1453
 3483POPC   C2B79767  28.935  22.803   9.395 -0.2763 -0.3499  0.0072
 3483POPC   C3B79768  29.314  23.052   9.584 -0.1244 -0.1271  0.0600
 3483POPC   C4B79769  29.771  23.132   9.577  0.2456 -0.0892 -0.0636
 3484POPC   NC379770  20.679  27.802   4.423 -0.0768  0.2952 -0.2163
 3484POPC   PO479771  20.882  28.057   4.211  0.1101  0.1825  0.0091
 3484POPC   GL179772  20.771  28.304   4.520  0.0586 -0.2717  0.0317
 3484POPC   GL279773  20.816  28.062   4.810  0.3598  0.1402 -0.0996
 3484POPC   C1A79774  20.881  28.572   4.932 -0.0670  0.2261  0.1918
 3484POPC   D2A79775  20.559  28.688   5.232 -0.3253  0.0841  0.0652
 3484POPC   C3A79776  20.238  28.984   5.133  0.2489  0.2538  0.1175
 3484POPC   C4A79777  19.819  28.945   5.017 -0.0515  0.4342  0.0782
 3484POPC   C1B79778  20.519  28.159   5.216 -0.0633  0.1374  0.1045
 3484POPC   C2B79779  20.573  28.380   5.641 -0.0369 -0.0804 -0.0270
 3484POPC   C3B79780  20.833  28.456   6.036  0.2489 -0.1911 -0.1247
 3484POPC   C4B79781  20.756  28.766   6.349  0.0889 -0.1355  0.3496
 3485POPC   NC379782  25.827  23.178  12.866  0.0631  0.4331  0.2259
 3485POPC   PO479783  25.497  22.918  12.946  0.1364 -0.5891 -0.1699
 3485POPC   GL179784  25.198  23.096  12.721 -0.0707  0.1043  0.1295
 3485POPC   GL279785  25.110  22.955  12.516  0.1283  0.0466 -0.0627
 3485POPC   C1A79786  25.001  23.533  12.737 -0.0061 -0.1735 -0.1721
 3485POPC   D2A79787  24.691  23.881  12.651 -0.0738  0.1330 -0.2629
 3485POPC   C3A79788  24.553  23.838  12.240 -0.0349  0.2066  0.0165
 3485POPC   C4A79789  24.448  23.550  11.883  0.0823  0.0068  0.2585
 3485POPC   C1B79790  24.684  22.817  12.420  0.0211 -0.1020  0.0754
 3485POPC   C2B79791  24.301  22.606  12.449  0.0963 -0.1529 -0.2139
 3485POPC   C3B79792  23.824  22.624  12.457 -0.2103 -0.3282 -0.1572
 3485POPC   C4B79793  23.470  22.920  12.559 -0.1238 -0.0490 -0.1285
 3486POPC   NC379794  27.363  18.933   6.151 -0.0710  0.0925 -0.1198
 3486POPC   PO479795  26.993  18.877   6.041  0.1548  0.0687 -0.0688
 3486POPC   GL179796  27.102  18.746   6.423 -0.0636 -0.1190 -0.0587
 3486POPC   GL279797  26.844  18.860   6.506 -0.2424  0.0318  0.0653
 3486POPC   C1A79798  27.567  18.672   6.535 -0.0391  0.1701  0.0628
 3486POPC   D2A79799  27.914  18.441   6.806 -0.0947 -0.2969 -0.0392
 3486POPC   C3A79800  28.174  18.093   7.020  0.1288 -0.2550  0.0241
 3486POPC   C4A79801  28.440  17.751   7.174  0.0849  0.2389  0.0282
 3486POPC   C1B79802  26.844  19.111   6.881 -0.2201 -0.1125 -0.2023
 3486POPC   C2B79803  26.912  19.499   7.094  0.2597 -0.1366 -0.0823
 3486POPC   C3B79804  26.620  19.696   7.411  0.0414  0.0268  0.0628
 3486POPC   C4B79805  26.238  19.875   7.628  0.0794 -0.0851  0.1334
 3487POPC   NC379806  20.822  26.596   4.718  0.1033  0.0250 -0.0502
 3487POPC   PO479807  20.801  26.238   4.820 -0.1267  0.2126  0.1048
 3487POPC   GL179808  20.936  26.183   5.222  0.1499  0.1235  0.2597
 3487POPC   GL279809  20.943  26.421   5.392 -0.2893  0.1286  0.2853
 3487POPC   C1A79810  20.633  26.068   5.607  0.0288  0.2122  0.2281
 3487POPC   D2A79811  20.504  26.002   6.107 -0.1354  0.1654  0.1602
 3487POPC   C3A79812  20.593  26.203   6.535  0.0952  0.2493  0.4797
 3487POPC   C4A79813  20.815  26.549   6.680  0.0716 -0.0083 -0.3408
 3487POPC   C1B79814  20.855  26.741   5.715 -0.0812  0.1106  0.2977
 3487POPC   C2B79815  20.597  27.035   5.918  0.1006  0.2490  0.1688
 3487POPC   C3B79816  20.465  27.420   6.166  0.2088  0.0951  0.1555
 3487POPC   C4B79817  20.080  27.635   6.242 -0.1185  0.0498 -0.0506
 3488POPC   NC379818  25.046  22.745  11.351  0.2370  0.4082  0.2877
 3488POPC   PO479819  25.293  22.736  11.024  0.1591  0.2680  0.0226
 3488POPC   GL179820  25.008  22.917  10.939  0.2873 -0.3418 -0.2342
 3488POPC   GL279821  25.052  23.154  10.881 -0.1299 -0.1223 -0.1657
 3488POPC   C1A79822  24.626  22.886  10.683  0.0970  0.0768  0.1799
 3488POPC   D2A79823  24.286  22.714  10.422 -0.0352 -0.2982  0.0064
 3488POPC   C3A79824  24.093  22.377  10.732  0.1774 -0.0288 -0.3536
 3488POPC   C4A79825  23.691  22.151  10.878  0.0837  0.0363 -0.1725
 3488POPC   C1B79826  24.650  23.330  10.892 -0.1955  0.0804 -0.1430
 3488POPC   C2B79827  24.160  23.434  10.789  0.2506  0.1720 -0.2145
 3488POPC   C3B79828  23.744  23.450  10.563  0.0790 -0.0198  0.0221
 3488POPC   C4B79829  23.500  23.589  10.170  0.1670  0.2902 -0.0347
 3489POPC   NC379830  27.017  20.949   7.354  0.1300  0.5302 -0.0104
 3489POPC   PO479831  26.859  20.793   6.977  0.0818 -0.0563  0.0751
 3489POPC   GL179832  26.862  20.509   7.274 -0.1713  0.1336  0.4038
 3489POPC   GL279833  26.646  20.377   7.149  0.2611  0.1486  0.1012
 3489POPC   C1A79834  27.241  20.394   7.464 -0.0333 -0.2423  0.1720
 3489POPC   D2A79835  27.329  20.054   7.770  0.0030 -0.0258 -0.3288
 3489POPC   C3A79836  27.686  19.724   7.801  0.3333 -0.2155  0.1787
 3489POPC   C4A79837  27.874  19.405   8.126  0.1176 -0.1442  0.1104
 3489POPC   C1B79838  26.803  20.148   7.566  0.0765 -0.0716  0.3109
 3489POPC   C2B79839  26.741  19.857   7.888  0.3924  0.1046 -0.0905
 3489POPC   C3B79840  26.762  19.639   8.284 -0.1374  0.2731 -0.1783
 3489POPC   C4B79841  26.934  19.452   8.618  0.0636  0.0300 -0.0768
 3490POPC   NC379842   0.894  26.434   4.245  0.0079  0.2086 -0.0110
 3490POPC   PO479843   1.179  26.271   4.019 -0.2153  0.1858 -0.1666
 3490POPC   GL179844   1.370  26.437   4.336  0.3599 -0.2063 -0.1181
 3490POPC   GL279845   1.342  26.234   4.534 -0.1547  0.0780 -0.1327
 3490POPC   C1A79846   1.310  26.747   4.691 -0.1378  0.0886 -0.1457
 3490POPC   D2A79847   1.473  26.920   5.100  0.4161  0.4232 -0.0103
 3490POPC   C3A79848   1.215  26.726   5.389  0.1688 -0.0857  0.0182
 3490POPC   C4A79849   1.149  26.572   5.799  0.0931  0.3780  0.1135
 3490POPC   C1B79850   1.346  26.350   5.021  0.1405 -0.0267  0.0619
 3490POPC   C2B79851   1.291  26.221   5.422  0.2771  0.1210 -0.4244
 3490POPC   C3B79852   1.048  26.080   5.764 -0.2096 -0.0852 -0.1804
 3490POPC   C4B79853   0.755  26.241   6.056 -0.0051  0.0332  0.1849
 3491POPC   NC379854  19.146  21.706   4.890  0.2170 -0.0973  0.0986
 3491POPC   PO479855  19.012  21.876   5.218  0.0973  0.1098 -0.3824
 3491POPC   GL179856  18.921  21.990   5.652 -0.0298 -0.1171  0.2247
 3491POPC   GL279857  19.219  22.105   5.636  0.2869  0.3004 -0.0091
 3491POPC   C1A79858  18.652  21.916   6.006 -0.0646 -0.2370 -0.2018
 3491POPC   D2A79859  18.589  21.814   6.452  0.0433  0.0701  0.3648
 3491POPC   C3A79860  18.434  21.647   6.799 -0.0356 -0.2783  0.4929
 3491POPC   C4A79861  18.349  21.896   7.148 -0.0583 -0.2553 -0.1328
 3491POPC   C1B79862  19.196  22.073   6.065  0.1593  0.2641  0.1065
 3491POPC   C2B79863  19.113  22.188   6.494  0.0325  0.0522  0.1899
 3491POPC   C3B79864  19.115  22.362   6.933 -0.2021  0.0652  0.2917
 3491POPC   C4B79865  19.202  22.413   7.353 -0.0232  0.0005 -0.0736
 3492POPC   NC379866  27.328  23.255  10.880 -0.0755  0.0394 -0.0719
 3492POPC   PO479867  27.698  23.215  10.992  0.1953 -0.0529  0.2214
 3492POPC   GL179868  27.826  23.509  10.853 -0.0511  0.2994  0.4390
 3492POPC   GL279869  28.088  23.470  10.741  0.0590 -0.3011 -0.1117
 3492POPC   C1A79870  27.882  23.988  10.970 -0.0237  0.0609  0.1290
 3492POPC   D2A79871  28.072  24.367  10.838  0.0073  0.1289 -0.1815
 3492POPC   C3A79872  28.467  24.624  10.707 -0.3017 -0.0088 -0.3101
 3492POPC   C4A79873  28.873  24.753  10.509  0.2402 -0.1381 -0.0652
 3492POPC   C1B79874  28.367  23.809  10.923  0.1766  0.0909  0.1095
 3492POPC   C2B79875  28.343  24.200  11.182  0.0391  0.1099 -0.0365
 3492POPC   C3B79876  28.379  24.672  11.194  0.0311  0.0308  0.0464
 3492POPC   C4B79877  28.683  24.990  11.383  0.1486  0.3224 -0.0093
 3493POPC   NC379878  22.532  30.332   4.672  0.0337 -0.2123  0.2707
 3493POPC   PO479879  22.434  30.674   4.551 -0.0093 -0.0644 -0.1961
 3493POPC   GL179880  22.264  30.765   4.889  0.3075 -0.3483 -0.1284
 3493POPC   GL279881  22.394  30.591   5.120  0.1864  0.0283 -0.3924
 3493POPC   C1A79882  21.888  30.464   5.026  0.0318  0.0874 -0.3612
 3493POPC   D2A79883  21.526  30.492   5.340  0.0156  0.0575 -0.1085
 3493POPC   C3A79884  21.519  30.900   5.563  0.0865 -0.3025 -0.1879
 3493POPC   C4A79885  21.649  31.332   5.446  0.0307 -0.1619  0.2350
 3493POPC   C1B79886  22.590  30.984   5.307 -0.1609  0.2025  0.2547
 3493POPC   C2B79887  22.808  31.170   5.635  0.4838 -0.0293 -0.0257
 3493POPC   C3B79888  22.989  31.114   6.057 -0.0204  0.0659  0.0176
 3493POPC   C4B79889  23.261  31.413   6.280 -0.0293 -0.1584  0.1142
 3494POPC   NC379890  19.862   0.574   4.251  0.0778  0.1842  0.2576
 3494POPC   PO479891  20.048   0.216   4.197 -0.0060  0.0004 -0.2275
 3494POPC   GL179892  20.119   0.105   4.580 -0.1010  0.1566  0.1373
 3494POPC   GL279893  20.389  -0.057   4.625 -0.0232 -0.2843  0.1110
 3494POPC   C1A79894  20.058   0.207   5.028 -0.1151 -0.4885  0.1795
 3494POPC   D2A79895  20.037   0.078   5.481  0.0210  0.0227  0.3246
 3494POPC   C3A79896  19.944   0.009   5.879 -0.2383 -0.0652 -0.2932
 3494POPC   C4A79897  20.170  -0.055   6.266 -0.0644 -0.2216  0.0754
 3494POPC   C1B79898  20.402  -0.204   5.066 -0.0077 -0.0863 -0.4013
 3494POPC   C2B79899  20.523  -0.444   5.496 -0.0232 -0.2388  0.0494
 3494POPC   C3B79900  20.762  -0.681   5.797  0.0713 -0.0012  0.0360
 3494POPC   C4B79901  21.003  -0.976   6.044  0.3026  0.2277 -0.0946
 3495POPC   NC379902   0.522  25.248   5.425 -0.0038  0.3583  0.0210
 3495POPC   PO479903   0.621  25.223   5.059 -0.0351 -0.2624 -0.0463
 3495POPC   GL179904   0.778  25.613   5.268  0.1012 -0.2193 -0.0049
 3495POPC   GL279905   1.005  25.678   5.407  0.1983 -0.2756 -0.0799
 3495POPC   C1A79906   0.565  25.993   5.371 -0.1279  0.2396  0.1392
 3495POPC   D2A79907   0.389  26.324   5.206  0.0231 -0.1087 -0.0107
 3495POPC   C3A79908   0.507  26.793   5.225 -0.0615  0.0128 -0.1115
 3495POPC   C4A79909   0.714  27.029   5.547 -0.1113  0.0428  0.2350
 3495POPC   C1B79910   0.721  25.610   5.744  0.1332 -0.0585  0.0116
 3495POPC   C2B79911   0.781  25.470   6.136 -0.2144 -0.3522  0.0210
 3495POPC   C3B79912   1.031  25.477   6.525  0.3487  0.3747 -0.2332
 3495POPC   C4B79913   1.448  25.551   6.721 -0.0836 -0.1456 -0.2407
 3496POPC   NC379914  23.190  31.767   4.495  0.1627 -0.2804 -0.6031
 3496POPC   PO479915  23.546  31.641   4.438  0.3235  0.1476  0.0692
 3496POPC   GL179916  23.697  31.597   4.823  0.1013 -0.1220  0.1974
 3496POPC   GL279917  23.730  31.334   4.791 -0.1160  0.3960 -0.1352
 3496POPC   C1A79918  23.712  31.700   5.280 -0.1698  0.0767 -0.0777
 3496POPC   D2A79919  23.674  31.792   5.700  0.6045 -0.0980 -0.1860
 3496POPC   C3A79920  23.713  31.585   6.125  0.3526  0.1188  0.1695
 3496POPC   C4A79921  23.883  31.387   6.560  0.2157  0.1381 -0.1014
 3496POPC   C1B79922  24.031  31.354   5.088 -0.2262 -0.0243 -0.0487
 3496POPC   C2B79923  23.957  31.392   5.559  0.2989  0.1324 -0.0163
 3496POPC   C3B79924  23.962  31.183   6.003  0.3273  0.1460  0.1073
 3496POPC   C4B79925  23.586  31.071   6.280  0.0565  0.0395  0.1681
 3497POPC   NC379926  26.373  20.820   7.240 -0.1614 -0.4325 -0.0340
 3497POPC   PO479927  26.417  20.743   7.662 -0.0401  0.1241  0.3524
 3497POPC   GL179928  26.619  20.482   7.998  0.0320 -0.0222 -0.5936
 3497POPC   GL279929  26.627  20.676   8.217 -0.0974 -0.0718  0.0378
 3497POPC   C1A79930  26.663  20.167   8.355  0.2677  0.1017 -0.1910
 3497POPC   D2A79931  26.849  19.893   8.737 -0.4253  0.0365 -0.0906
 3497POPC   C3A79932  26.685  19.767   9.143 -0.4734  0.1430  0.1467
 3497POPC   C4A79933  26.418  19.642   9.494 -0.0157  0.0703 -0.3373
 3497POPC   C1B79934  26.920  20.541   8.576 -0.0827  0.4332 -0.0778
 3497POPC   C2B79935  27.274  20.177   8.713  0.1578  0.0993  0.1036
 3497POPC   C3B79936  27.605  20.085   8.993  0.2759  0.4999 -0.1163
 3497POPC   C4B79937  27.803  20.181   9.406 -0.1077 -0.0978 -0.1412
 3498POPC   NC379938  18.451  28.409   4.080  0.0958 -0.1072  0.0831
 3498POPC   PO479939  18.808  28.550   3.893 -0.1440 -0.2016 -0.1951
 3498POPC   GL179940  18.752  28.786   4.251 -0.3934 -0.0325  0.0783
 3498POPC   GL279941  18.928  29.064   4.111 -0.5123 -0.1917 -0.0736
 3498POPC   C1A79942  18.809  28.801   4.692  0.2719  0.2225  0.0834
 3498POPC   D2A79943  18.974  28.562   5.042 -0.0595  0.3855 -0.2715
 3498POPC   C3A79944  18.966  28.822   5.448  0.0045 -0.2087 -0.1051
 3498POPC   C4A79945  18.710  29.199   5.511 -0.0629 -0.1602 -0.2509
 3498POPC   C1B79946  18.820  29.381   4.474 -0.1667 -0.3980 -0.0642
 3498POPC   C2B79947  18.900  29.320   4.934 -0.5643 -0.1100 -0.1661
 3498POPC   C3B79948  19.056  29.504   5.286 -0.2460  0.0175 -0.2647
 3498POPC   C4B79949  19.178  29.287   5.671 -0.1607  0.0704  0.1427
 3499POPC   NC379950  15.670  19.217   4.820  0.0938 -0.2359  0.0013
 3499POPC   PO479951  16.043  19.108   4.737  0.1751 -0.0650  0.0068
 3499POPC   GL179952  16.023  19.281   5.087  0.0066 -0.1786  0.3445
 3499POPC   GL279953  16.145  19.173   5.272 -0.1071  0.5088 -0.0442
 3499POPC   C1A79954  16.052  19.673   5.337  0.3408  0.0192 -0.4460
 3499POPC   D2A79955  16.105  19.990   5.679 -0.0304 -0.0324 -0.1252
 3499POPC   C3A79956  16.136  19.995   6.132  0.0525  0.0326  0.2251
 3499POPC   C4A79957  16.068  20.271   6.533  0.2570  0.0174 -0.1630
 3499POPC   C1B79958  16.217  19.366   5.694 -0.0454  0.2343  0.0021
 3499POPC   C2B79959  16.178  19.520   6.106  0.1491  0.3191  0.1920
 3499POPC   C3B79960  15.940  19.381   6.465  0.1348 -0.1269 -0.0187
 3499POPC   C4B79961  16.122  19.101   6.785  0.3079 -0.1033 -0.3556
 3500POPC   NC379962  19.580  20.264   5.043  0.1263  0.0626  0.0525
 3500POPC   PO479963  19.303  20.197   4.800  0.3314  0.1312 -0.2601
 3500POPC   GL179964  19.185  20.059   5.136  0.0410  0.0434  0.0280
 3500POPC   GL279965  19.170  19.799   5.226  0.1945  0.2091  0.0887
 3500POPC   C1A79966  19.467  20.115   5.528 -0.0155 -0.1636 -0.0795
 3500POPC   D2A79967  19.221  20.104   5.963 -0.2652 -0.0998 -0.1427
 3500POPC   C3A79968  19.248  19.843   6.347 -0.2347  0.0955 -0.0815
 3500POPC   C4A79969  19.202  19.479   6.583  0.1406  0.0009 -0.3094
 3500POPC   C1B79970  18.701  19.737   5.289 -0.0461 -0.1471 -0.1477
 3500POPC   C2B79971  18.290  19.524   5.532 -0.1757 -0.3013 -0.4087
 3500POPC   C3B79972  18.255  19.168   5.939  0.2074 -0.2030  0.1262
 3500POPC   C4B79973  18.262  18.809   6.212 -0.1029  0.2144  0.1008
 3501POPC   NC379974  17.419  19.758   4.438  0.2770  0.1622 -0.0427
 3501POPC   PO479975  17.482  19.366   4.468 -0.1699  0.3794  0.0467
 3501POPC   GL179976  17.386  19.092   4.775 -0.1455 -0.2074  0.1245
 3501POPC   GL279977  17.567  19.349   4.929  0.0013  0.0953 -0.0005
 3501POPC   C1A79978  17.628  18.770   5.094 -0.1146 -0.4102  0.1189
 3501POPC   D2A79979  17.814  18.427   5.392  0.0260  0.2015  0.2943
 3501POPC   C3A79980  17.706  18.366   5.820  0.3314 -0.1285  0.0441
 3501POPC   C4A79981  17.537  18.270   6.218  0.1625 -0.3062  0.0128
 3501POPC   C1B79982  17.473  19.375   5.405 -0.3456  0.7448 -0.1733
 3501POPC   C2B79983  17.542  19.131   5.775  0.0422 -0.0936 -0.2576
 3501POPC   C3B79984  17.766  19.067   6.190  0.0207 -0.1673 -0.0062
 3501POPC   C4B79985  18.117  19.197   6.479 -0.1367  0.0147 -0.3002
 3502POPC   NC379986  29.421  29.600   4.275 -0.1041 -0.4233  0.1263
 3502POPC   PO479987  29.754  29.500   4.521 -0.2064  0.0062 -0.0421
 3502POPC   GL179988  29.654  29.758   4.811 -0.2329 -0.1807  0.2887
 3502POPC   GL279989  29.710  29.509   5.017  0.0219  0.3052  0.0083
 3502POPC   C1A79990  29.825  29.990   5.129  0.0732 -0.0091 -0.0557
 3502POPC   D2A79991  29.732  30.024   5.590  0.1447 -0.2068  0.3966
 3502POPC   C3A79992  30.009  29.778   5.800 -0.1341  0.2105 -0.0722
 3502POPC   C4A79993  30.002  29.382   6.044  0.0660  0.0598  0.6082
 3502POPC   C1B79994  30.016  29.545   5.379  0.0696  0.1691 -0.2025
 3502POPC   C2B79995  30.407  29.558   5.622  0.2102  0.3100  0.1821
 3502POPC   C3B79996  30.545  29.382   6.012  0.2015 -0.0847  0.0091
 3502POPC   C4B79997  30.367  29.157   6.295  0.1546  0.2882  0.0093
 3503POPC   NC379998  25.014  18.897   5.971  0.0680  0.1150  0.1755
 3503POPC   PO479999  24.600  18.926   5.857 -0.0600  0.3001 -0.2338
 3503POPC   GL180000  24.585  18.887   6.230  0.2832 -0.0687  0.4897
 3503POPC   GL280001  24.375  19.041   6.354  0.1029  0.1398  0.2467
 3503POPC   C1A80002  24.334  18.536   6.471  0.1180  0.1650 -0.3060
 3503POPC   D2A80003  24.212  18.380   6.906  0.1480  0.3230  0.0083
 3503POPC   C3A80004  24.573  18.085   6.771  0.3088 -0.0003 -0.3707
 3503POPC   C4A80005  24.810  17.727   6.689 -0.0980 -0.0232 -0.3519
 3503POPC   C1B80006  24.361  18.931   6.828 -0.0319 -0.2311  0.2205
 3503POPC   C2B80007  24.283  18.917   7.264  0.4602 -0.1255  0.0342
 3503POPC   C3B80008  24.101  18.828   7.672 -0.0824 -0.1282 -0.1906
 3503POPC   C4B80009  23.788  18.605   7.901 -0.0388 -0.0505 -0.1403
 3504POPC   NC380010  26.212  30.475   4.703  0.1038 -0.0570  0.0219
 3504POPC   PO480011  26.435  30.164   4.752 -0.2345  0.1322 -0.1333
 3504POPC   GL180012  26.653  30.278   5.004  0.2172 -0.0362  0.0849
 3504POPC   GL280013  26.523  30.527   5.178  0.2562  0.3654  0.1632
 3504POPC   C1A80014  26.763  30.244   5.449  0.2302  0.2917 -0.2479
 3504POPC   D2A80015  26.857  30.252   5.925  0.1048 -0.4097  0.0708
 3504POPC   C3A80016  27.299  30.194   5.779 -0.2701 -0.2643 -0.0885
 3504POPC   C4A80017  27.545  29.951   6.017 -0.0515  0.0089  0.3417
 3504POPC   C1B80018  26.602  30.624   5.621 -0.0156 -0.2743 -0.1356
 3504POPC   C2B80019  26.531  30.684   6.079 -0.2854  0.2046  0.0341
 3504POPC   C3B80020  26.771  30.594   6.494 -0.2162  0.0473  0.2239
 3504POPC   C4B80021  27.024  30.308   6.746 -0.1919 -0.2943 -0.1586
 3505POPC   NC380022  20.033  25.967   4.460  0.0644  0.2626  0.0868
 3505POPC   PO480023  19.787  25.639   4.505 -0.0646  0.5043 -0.0557
 3505POPC   GL180024  19.613  25.823   4.776 -0.3335 -0.1366  0.2605
 3505POPC   GL280025  19.811  25.638   5.024  0.2930  0.2223  0.1395
 3505POPC   C1A80026  19.423  25.888   5.184  0.0818 -0.0170  0.0734
 3505POPC   D2A80027  19.268  26.008   5.610 -0.0542 -0.2234 -0.0012
 3505POPC   C3A80028  19.297  26.428   5.846 -0.0099  0.2563  0.1120
 3505POPC   C4A80029  19.035  26.734   6.073  0.1493  0.1657  0.1059
 3505POPC   C1B80030  19.720  25.668   5.501 -0.3317  0.0805  0.1515
 3505POPC   C2B80031  19.678  25.939   5.908 -0.0961 -0.1044  0.1909
 3505POPC   C3B80032  19.322  26.056   6.133 -0.0879 -0.0507  0.0934
 3505POPC   C4B80033  18.885  25.883   6.120 -0.1342  0.1136  0.1340
 3506POPC   NC380034  25.613  22.109  11.732  0.1459 -0.1193  0.2668
 3506POPC   PO480035  25.562  22.146  11.379 -0.2460  0.0341 -0.1515
 3506POPC   GL180036  25.221  22.274  11.319  0.1220 -0.3920  0.0365
 3506POPC   GL280037  25.105  22.140  11.577 -0.0207 -0.0666 -0.1420
 3506POPC   C1A80038  24.920  21.926  11.170  0.1850 -0.2770  0.0111
 3506POPC   D2A80039  24.858  21.499  11.289  0.1356  0.2369  0.0198
 3506POPC   C3A80040  25.046  21.125  11.448  0.0634 -0.0728 -0.1775
 3506POPC   C4A80041  25.188  20.732  11.638  0.0339 -0.1319 -0.0106
 3506POPC   C1B80042  25.130  21.682  11.656  0.1048 -0.2129 -0.1193
 3506POPC   C2B80043  24.819  21.321  11.822 -0.0902 -0.2307  0.1605
 3506POPC   C3B80044  24.722  20.846  11.788 -0.1730 -0.3126  0.1559
 3506POPC   C4B80045  24.599  20.373  11.819 -0.0656 -0.0686  0.1679
 3507POPC   NC380046  30.312  23.936   6.251 -0.0060  0.1626 -0.2517
 3507POPC   PO480047  29.979  23.822   6.268 -0.3233 -0.4445 -0.0298
 3507POPC   GL180048  30.150  23.933   6.685 -0.0664  0.1886  0.3589
 3507POPC   GL280049  30.062  24.192   6.630 -0.1242  0.1098  0.1371
 3507POPC   C1A80050  30.587  24.087   6.796  0.3190 -0.3407  0.0851
 3507POPC   D2A80051  30.907  24.373   6.938 -0.0948  0.0320  0.0056
 3507POPC   C3A80052  31.298  24.458   7.188  0.0312  0.3256 -0.1485
 3507POPC   C4A80053  31.731  24.392   7.381 -0.1015 -0.0758  0.3632
 3507POPC   C1B80054  30.164  24.138   7.090 -0.3150  0.3801  0.0708
 3507POPC   C2B80055  30.074  23.843   7.500  0.0932 -0.2253  0.1535
 3507POPC   C3B80056  30.408  23.968   7.781 -0.0417  0.0950  0.2885
 3507POPC   C4B80057  30.701  24.326   7.980  0.0692 -0.0877  0.0586
 3508POPC   NC380058  22.643  31.105   4.287  0.2211  0.0512 -0.2205
 3508POPC   PO480059  22.882  31.418   4.422 -0.1257 -0.1011  0.0667
 3508POPC   GL180060  22.774  31.281   4.727  0.1133 -0.0569 -0.1838
 3508POPC   GL280061  22.552  31.107   4.790  0.1760 -0.2135  0.1690
 3508POPC   C1A80062  22.908  31.393   5.143  0.0220 -0.0906 -0.0238
 3508POPC   D2A80063  23.000  31.692   5.489 -0.0185  0.2283  0.2557
 3508POPC   C3A80064  22.879  31.557   5.932 -0.0281 -0.1925 -0.2657
 3508POPC   C4A80065  22.759  31.488   6.360 -0.1157 -0.0983 -0.0447
 3508POPC   C1B80066  22.361  31.391   5.114  0.2762  0.1128 -0.3126
 3508POPC   C2B80067  22.022  31.644   5.337  0.2293 -0.0985 -0.1627
 3508POPC   C3B80068  21.898  31.616   5.798  0.2145  0.2068  0.1667
 3508POPC   C4B80069  21.856  31.763   6.179 -0.1780  0.2601 -0.1247
 3509POPC   NC380070  22.881  21.501   6.726 -0.1547  0.0426  0.0372
 3509POPC   PO480071  22.635  21.792   6.800 -0.1945 -0.0936  0.2582
 3509POPC   GL180072  22.330  21.918   6.962  0.0449 -0.3319 -0.2537
 3509POPC   GL280073  22.382  21.938   7.223 -0.1300 -0.1484 -0.1007
 3509POPC   C1A80074  21.907  21.736   7.120  0.1468  0.2042 -0.0216
 3509POPC   D2A80075  21.724  21.583   7.518  0.3684  0.1334  0.0198
 3509POPC   C3A80076  21.271  21.657   7.643 -0.1489  0.0227 -0.0127
 3509POPC   C4A80077  20.915  21.951   7.773 -0.0726 -0.0613 -0.0470
 3509POPC   C1B80078  22.071  22.099   7.579 -0.1266  0.0648  0.0902
 3509POPC   C2B80079  22.053  22.026   8.045 -0.2975 -0.1803  0.2157
 3509POPC   C3B80080  22.172  22.014   8.496 -0.1994 -0.0584 -0.0024
 3509POPC   C4B80081  21.888  21.974   8.915  0.0834 -0.2588  0.4798
 3510POPC   NC380082  27.758  19.469   5.408  0.0246 -0.0585 -0.0258
 3510POPC   PO480083  27.989  19.592   5.707 -0.0933 -0.0473  0.1924
 3510POPC   GL180084  28.163  19.305   5.833 -0.2877  0.0868  0.1923
 3510POPC   GL280085  28.251  19.131   5.599 -0.0345  0.3005 -0.2147
 3510POPC   C1A80086  28.310  19.305   6.260  0.1576 -0.4982  0.0327
 3510POPC   D2A80087  28.409  19.386   6.636 -0.2083 -0.1024 -0.2784
 3510POPC   C3A80088  28.462  19.179   7.055 -0.1259 -0.0166  0.0032
 3510POPC   C4A80089  28.535  18.920   7.398  0.4420  0.1082 -0.2156
 3510POPC   C1B80090  28.276  18.834   5.911 -0.1602 -0.0065  0.0797
 3510POPC   C2B80091  28.357  18.627   6.270 -0.1424 -0.0604 -0.1223
 3510POPC   C3B80092  28.431  18.517   6.749  0.0003  0.0289  0.2458
 3510POPC   C4B80093  28.680  18.479   7.144  0.1556  0.1120  0.1331
 3511POPC   NC380094  20.879  28.715   4.401 -0.0324  0.1977 -0.1146
 3511POPC   PO480095  21.159  28.473   4.235 -0.1167 -0.2297  0.0337
 3511POPC   GL180096  21.358  28.670   4.532  0.0707 -0.1245  0.1195
 3511POPC   GL280097  21.433  28.924   4.546 -0.0440 -0.2232  0.2959
 3511POPC   C1A80098  21.531  28.497   4.897 -0.2311 -0.1434 -0.0074
 3511POPC   D2A80099  21.696  28.559   5.346  0.0172 -0.1391  0.0803
 3511POPC   C3A80100  21.828  28.945   5.582  0.1743  0.1479  0.1887
 3511POPC   C4A80101  21.911  29.155   6.009 -0.1233 -0.0002  0.0240
 3511POPC   C1B80102  21.093  29.065   4.826 -0.0920  0.1107  0.2213
 3511POPC   C2B80103  20.717  29.185   5.151  0.0434 -0.1474  0.0990
 3511POPC   C3B80104  20.542  29.270   5.575 -0.2562  0.2774 -0.5084
 3511POPC   C4B80105  20.320  29.576   5.780  0.2377 -0.2027 -0.1991
 3512POPC   NC380106  23.998  19.675   6.167  0.2342  0.1150 -0.1674
 3512POPC   PO480107  24.329  19.558   6.306  0.0221  0.2362  0.0249
 3512POPC   GL180108  24.335  19.415   6.661  0.1135 -0.0421  0.1919
 3512POPC   GL280109  24.497  19.473   6.849  0.1670  0.1059  0.0267
 3512POPC   C1A80110  24.038  19.352   7.017  0.2026  0.2871 -0.1232
 3512POPC   D2A80111  23.771  19.056   7.202  0.1962 -0.0689 -0.0635
 3512POPC   C3A80112  23.788  18.589   7.314  0.2232 -0.4689  0.0430
 3512POPC   C4A80113  23.971  18.174   7.409  0.2034 -0.2148  0.2525
 3512POPC   C1B80114  24.430  19.443   7.283 -0.1054 -0.1385 -0.1271
 3512POPC   C2B80115  24.129  19.329   7.589  0.2663 -0.1945 -0.3450
 3512POPC   C3B80116  23.894  19.308   7.960  0.1405 -0.0898  0.1666
 3512POPC   C4B80117  23.572  19.033   8.211  0.0395 -0.0586 -0.0216
 3513POPC   NC380118  32.355  30.497   3.509  0.2830 -0.0088  0.1612
 3513POPC   PO480119  32.233  30.816   3.693 -0.0459  0.3641 -0.0149
 3513POPC   GL180120  32.521  30.715   4.031 -0.2427 -0.0821  0.4260
 3513POPC   GL280121  32.525  30.437   4.149 -0.0910 -0.0613 -0.3767
 3513POPC   C1A80122  32.431  30.757   4.505  0.1257 -0.0634 -0.0091
 3513POPC   D2A80123  32.147  30.489   4.755  0.2994 -0.0682 -0.2073
 3513POPC   C3A80124  32.080  30.730   5.125  0.0509  0.2012 -0.1580
 3513POPC   C4A80125  32.124  30.501   5.537  0.0069 -0.1458 -0.1093
 3513POPC   C1B80126  32.906  30.650   4.310  0.2132  0.3750  0.0344
 3513POPC   C2B80127  33.303  30.767   4.475  0.1424 -0.3330 -0.0235
 3513POPC   C3B80128  33.312  30.896   4.926 -0.1521  0.1715 -0.0776
 3513POPC   C4B80129  33.043  31.011   5.266  0.0731  0.1666 -0.1065
 3514POPC   NC380130  24.556  22.977   8.558  0.0786 -0.2378  0.3033
 3514POPC   PO480131  24.688  22.613   8.479  0.1101  0.1326  0.2578
 3514POPC   GL180132  24.382  22.436   8.733 -0.4907  0.0075  0.3750
 3514POPC   GL280133  24.307  22.615   8.832  0.1170 -0.1304  0.3117
 3514POPC   C1A80134  23.998  22.274   9.005  0.1590 -0.1910  0.1464
 3514POPC   D2A80135  23.631  22.258   9.236 -0.0706 -0.0557 -0.2442
 3514POPC   C3A80136  23.193  22.312   9.493  0.0667 -0.0488 -0.0737
 3514POPC   C4A80137  22.917  22.500   9.871 -0.3428 -0.1677  0.0262
 3514POPC   C1B80138  24.198  23.041   9.042  0.0180  0.1875  0.2559
 3514POPC   C2B80139  24.043  23.481   9.294  0.0744  0.1358 -0.0186
 3514POPC   C3B80140  23.793  23.663   9.643 -0.1314 -0.4946 -0.2088
 3514POPC   C4B80141  23.353  23.715   9.711 -0.1806 -0.1079  0.0811
 3515POPC   NC380142  30.128  21.869   6.411 -0.0854  0.0843  0.2332
 3515POPC   PO480143  30.443  22.074   6.318  0.3988  0.1604  0.1474
 3515POPC   GL180144  30.498  21.948   6.688  0.0208  0.1039  0.0419
 3515POPC   GL280145  30.297  22.074   6.859  0.5315 -0.3472  0.1757
 3515POPC   C1A80146  30.722  22.289   7.001  0.1353  0.2720 -0.0674
 3515POPC   D2A80147  30.978  22.374   7.402 -0.0267 -0.1987  0.1544
 3515POPC   C3A80148  30.952  22.366   7.863  0.1278  0.1756  0.2518
 3515POPC   C4A80149  30.741  22.083   8.152  0.2202  0.3018  0.1019
 3515POPC   C1B80150  30.444  21.640   7.059 -0.1635 -0.1141  0.1037
 3515POPC   C2B80151  30.652  21.396   7.449  0.1963  0.2120 -0.0874
 3515POPC   C3B80152  30.838  21.022   7.590  0.0891  0.0489 -0.1325
 3515POPC   C4B80153  31.034  20.677   7.874  0.3187 -0.3208  0.0881
 3516POPC   NC380154  17.985  22.645   4.712  0.0059 -0.2004 -0.0886
 3516POPC   PO480155  18.160  22.336   4.903  0.0646 -0.0749 -0.0074
 3516POPC   GL180156  17.984  22.471   5.258 -0.0030 -0.0808 -0.1625
 3516POPC   GL280157  17.883  22.248   5.366 -0.0405  0.4231 -0.1803
 3516POPC   C1A80158  18.047  22.661   5.665 -0.0030  0.0496  0.0626
 3516POPC   D2A80159  17.849  22.975   5.912 -0.2648 -0.1310 -0.0411
 3516POPC   C3A80160  17.806  22.918   6.349  0.1098 -0.0436  0.2924
 3516POPC   C4A80161  17.579  22.898   6.721  0.0334  0.1410 -0.3299
 3516POPC   C1B80162  17.879  22.260   5.833  0.1193 -0.1798  0.0295
 3516POPC   C2B80163  17.895  22.311   6.332 -0.1748  0.0516  0.0108
 3516POPC   C3B80164  17.772  22.449   6.777 -0.0443 -0.1008  0.1023
 3516POPC   C4B80165  17.686  22.536   7.178  0.1194  0.0820 -0.1670
 3517POPC   NC380166  18.363  21.970   4.685 -0.1984 -0.0218 -0.3460
 3517POPC   PO480167  18.750  22.029   4.776 -0.0259 -0.0231  0.0591
 3517POPC   GL180168  18.551  21.923   5.217 -0.0582  0.1131 -0.5018
 3517POPC   GL280169  18.247  21.912   5.239 -0.1911 -0.0885  0.0699
 3517POPC   C1A80170  18.421  21.615   5.580 -0.0735 -0.1098  0.1662
 3517POPC   D2A80171  18.264  21.419   5.964 -0.1264 -0.1436 -0.0739
 3517POPC   C3A80172  18.175  21.399   6.389 -0.1809 -0.2109 -0.2625
 3517POPC   C4A80173  17.852  21.447   6.681  0.3743  0.0682  0.0511
 3517POPC   C1B80174  18.404  22.233   5.562  0.0729  0.0357 -0.0835
 3517POPC   C2B80175  18.405  22.432   5.960 -0.1540 -0.2113 -0.2232
 3517POPC   C3B80176  18.350  22.351   6.440  0.0121 -0.0335 -0.2431
 3517POPC   C4B80177  18.565  22.149   6.806  0.0198  0.0160 -0.0607
 3518POPC   NC380178  29.452  22.055   6.846 -0.0544 -0.0680 -0.0971
 3518POPC   PO480179  29.792  22.162   6.679  0.0174  0.0524  0.3023
 3518POPC   GL180180  29.889  21.700   6.829  0.2358  0.5460  0.3390
 3518POPC   GL280181  29.983  21.686   7.144 -0.0025 -0.0672 -0.2283
 3518POPC   C1A80182  30.201  21.347   6.754  0.1812  0.3076  0.0577
 3518POPC   D2A80183  30.469  21.138   7.048 -0.2486  0.0626  0.1657
 3518POPC   C3A80184  30.862  21.347   6.962  0.0245  0.3395 -0.3019
 3518POPC   C4A80185  31.216  21.405   6.695  0.0713 -0.2050  0.4350
 3518POPC   C1B80186  30.199  21.613   7.537 -0.2130 -0.2752  0.2056
 3518POPC   C2B80187  30.320  21.879   7.913 -0.0044  0.0540  0.0142
 3518POPC   C3B80188  30.449  21.709   8.299 -0.1397 -0.3990  0.0408
 3518POPC   C4B80189  30.331  21.481   8.698  0.0483 -0.0202  0.1326
 3519POPC   NC380190  24.451  27.666   5.697 -0.1718  0.0673 -0.2555
 3519POPC   PO480191  24.113  27.850   5.530 -0.1504  0.7150 -0.3174
 3519POPC   GL180192  23.969  27.911   5.884 -0.2049  0.1882  0.0877
 3519POPC   GL280193  24.113  28.109   6.054  0.0041 -0.2785 -0.2005
 3519POPC   C1A80194  23.640  28.062   6.181  0.1499 -0.1622 -0.2226
 3519POPC   D2A80195  23.524  28.300   6.568 -0.0494  0.0613 -0.2699
 3519POPC   C3A80196  23.481  28.698   6.800 -0.0370 -0.3492  0.1679
 3519POPC   C4A80197  23.567  28.952   7.205  0.3065 -0.0994  0.0735
 3519POPC   C1B80198  24.000  27.877   6.452  0.3505  0.0940 -0.1606
 3519POPC   C2B80199  23.683  27.816   6.778  0.0786 -0.0235  0.1258
 3519POPC   C3B80200  23.477  27.966   7.160 -0.1788  0.1102  0.0126
 3519POPC   C4B80201  23.092  28.041   7.295 -0.1186 -0.0112  0.0158
 3520POPC   NC380202  30.815  22.763   6.021  0.0639 -0.2165 -0.0748
 3520POPC   PO480203  30.993  22.521   5.798 -0.0954  0.1781  0.0320
 3520POPC   GL180204  31.223  22.338   6.028 -0.0168  0.0370  0.1524
 3520POPC   GL280205  31.525  22.521   5.994  0.3067 -0.1918  0.1550
 3520POPC   C1A80206  31.161  22.254   6.483  0.1441  0.2713 -0.0147
 3520POPC   D2A80207  31.199  22.262   6.960  0.0246  0.3737 -0.0128
 3520POPC   C3A80208  31.591  22.319   7.253  0.1858  0.2345  0.2279
 3520POPC   C4A80209  31.870  22.652   7.420 -0.2421 -0.1013 -0.0694
 3520POPC   C1B80210  31.586  22.538   6.483 -0.1490  0.0371 -0.1623
 3520POPC   C2B80211  31.589  22.685   6.940 -0.2167  0.2877  0.0828
 3520POPC   C3B80212  31.334  22.702   7.308  0.0931  0.1367 -0.1465
 3520POPC   C4B80213  31.158  22.760   7.723 -0.1872 -0.3546 -0.1648
 3521POPC   NC380214  23.322  28.855   4.975 -0.1745  0.2818 -0.3310
 3521POPC   PO480215  23.308  29.147   4.703 -0.1006 -0.1831 -0.2344
 3521POPC   GL180216  23.089  29.279   4.913 -0.0100 -0.1431 -0.0785
 3521POPC   GL280217  23.080  29.230   5.184  0.0048  0.1202  0.1843
 3521POPC   C1A80218  22.834  29.618   5.187 -0.2329  0.0534 -0.0425
 3521POPC   D2A80219  22.616  29.721   5.543  0.1820 -0.2410  0.1077
 3521POPC   C3A80220  22.849  29.804   5.924  0.0363  0.2517  0.1794
 3521POPC   C4A80221  23.127  30.033   6.226 -0.1749  0.0111  0.2270
 3521POPC   C1B80222  23.187  29.256   5.619  0.2070  0.2954 -0.1843
 3521POPC   C2B80223  22.849  29.321   5.891  0.2147  0.3669  0.3473
 3521POPC   C3B80224  22.456  29.352   6.091  0.0993 -0.0358 -0.2371
 3521POPC   C4B80225  22.192  29.202   6.404  0.1199 -0.1663  0.2175
 3522POPC   NC380226  20.845  18.578   5.123  0.0798  0.1543  0.1655
 3522POPC   PO480227  20.451  18.508   5.032 -0.1977 -0.1251 -0.1895
 3522POPC   GL180228  20.365  18.335   5.286  0.0011  0.1707  0.2065
 3522POPC   GL280229  20.362  18.513   5.552  0.0775  0.0404  0.0383
 3522POPC   C1A80230  20.355  17.911   5.485  0.0518 -0.0219  0.3131
 3522POPC   D2A80231  20.038  17.646   5.698 -0.0138  0.0009 -0.2079
 3522POPC   C3A80232  19.605  17.641   5.867  0.1357  0.1140  0.2744
 3522POPC   C4A80233  19.219  17.595   6.189  0.0537 -0.0444  0.0913
 3522POPC   C1B80234  20.116  18.553   5.986  0.0422  0.2201 -0.2472
 3522POPC   C2B80235  20.150  18.650   6.423  0.1845  0.1650 -0.0560
 3522POPC   C3B80236  19.966  18.599   6.831 -0.1783 -0.1798 -0.0329
 3522POPC   C4B80237  19.787  18.893   7.078 -0.0096  0.0037 -0.0409
 3523POPC   NC380238  17.918  28.812   4.011  0.0950 -0.0384  0.1389
 3523POPC   PO480239  17.607  28.615   3.941  0.0251 -0.1337  0.3110
 3523POPC   GL180240  17.546  28.691   4.282  0.0426  0.2309 -0.0369
 3523POPC   GL280241  17.691  28.857   4.434 -0.0364 -0.0629  0.2924
 3523POPC   C1A80242  17.468  28.471   4.678  0.0973  0.0554  0.0938
 3523POPC   D2A80243  17.231  28.566   5.070  0.2803 -0.0524  0.0711
 3523POPC   C3A80244  17.172  28.812   5.445  0.0335  0.2511 -0.3250
 3523POPC   C4A80245  16.861  28.978   5.729  0.1751 -0.5072 -0.1243
 3523POPC   C1B80246  18.006  29.031   4.793  0.0825 -0.2081 -0.1211
 3523POPC   C2B80247  18.098  28.777   5.244 -0.0844  0.2154 -0.0191
 3523POPC   C3B80248  18.476  28.701   5.573  0.2297 -0.0245 -0.1087
 3523POPC   C4B80249  18.818  28.451   5.715  0.1363 -0.0589 -0.0066
 3524POPC   NC380250  17.976  24.265   4.785  0.4037  0.1586 -0.0537
 3524POPC   PO480251  17.943  23.886   4.872 -0.3304  0.4285  0.0773
 3524POPC   GL180252  17.934  23.825   5.304  0.1627 -0.1976 -0.0954
 3524POPC   GL280253  17.866  23.553   5.332  0.1687  0.1035  0.1339
 3524POPC   C1A80254  17.619  24.033   5.620  0.1604  0.1378 -0.1074
 3524POPC   D2A80255  17.381  23.813   5.965  0.3739  0.2246 -0.0255
 3524POPC   C3A80256  17.257  23.839   6.387  0.1093 -0.0208  0.0460
 3524POPC   C4A80257  17.190  23.810   6.845  0.3723  0.0950  0.1853
 3524POPC   C1B80258  18.176  23.253   5.629 -0.1415 -0.0628 -0.0483
 3524POPC   C2B80259  18.189  23.233   6.103 -0.0385  0.2153  0.0974
 3524POPC   C3B80260  18.031  23.352   6.517  0.0451 -0.2286 -0.0312
 3524POPC   C4B80261  17.780  23.445   6.875 -0.1995 -0.0300  0.0637
 3525POPC   NC380262  21.711  21.763   6.025 -0.2000  0.1068 -0.1304
 3525POPC   PO480263  21.409  21.506   5.954  0.1776 -0.2182  0.0537
 3525POPC   GL180264  21.189  21.434   6.252 -0.4521  0.3237  0.4467
 3525POPC   GL280265  21.433  21.247   6.403  0.0173 -0.2565 -0.1074
 3525POPC   C1A80266  20.860  21.690   6.505 -0.0950  0.0191  0.0509
 3525POPC   D2A80267  20.500  21.844   6.683 -0.0394 -0.2896  0.1260
 3525POPC   C3A80268  20.093  21.644   6.726 -0.0865  0.0475 -0.0268
 3525POPC   C4A80269  19.660  21.783   6.762 -0.1538  0.1375  0.0767
 3525POPC   C1B80270  21.143  21.330   6.717 -0.3722 -0.1070  0.1052
 3525POPC   C2B80271  20.851  21.425   7.061  0.0273  0.0694  0.0399
 3525POPC   C3B80272  20.765  21.440   7.543 -0.3401 -0.0760 -0.1201
 3525POPC   C4B80273  20.858  21.432   8.019 -0.1908  0.0783 -0.0003
 3526POPC   NC380274  30.642  27.636   4.766  0.1684  0.3108 -0.0998
 3526POPC   PO480275  30.397  27.298   4.789 -0.0865 -0.2474  0.0076
 3526POPC   GL180276  30.265  27.465   5.189 -0.2077 -0.0914  0.2242
 3526POPC   GL280277  30.486  27.676   5.316 -0.0319 -0.1350 -0.0616
 3526POPC   C1A80278  30.009  27.774   5.402  0.2496 -0.0801  0.0495
 3526POPC   D2A80279  29.848  28.199   5.429 -0.1267  0.2814 -0.0448
 3526POPC   C3A80280  29.852  28.323   5.862  0.1784 -0.0589 -0.2016
 3526POPC   C4A80281  30.044  28.369   6.323 -0.2541  0.0398 -0.2176
 3526POPC   C1B80282  30.461  27.917   5.731  0.1049 -0.0847  0.0725
 3526POPC   C2B80283  30.528  28.231   6.072  0.0122 -0.1699  0.2360
 3526POPC   C3B80284  30.985  28.286   6.230  0.0645  0.2759 -0.2582
 3526POPC   C4B80285  31.201  28.715   6.248 -0.1582 -0.0227 -0.1612
 3527POPC   NC380286  31.987  28.178   4.155 -0.0798 -0.1368  0.0858
 3527POPC   PO480287  32.171  28.296   4.470  0.0607 -0.1333  0.0545
 3527POPC   GL180288  32.360  28.334   4.777 -0.1894  0.0829  0.0614
 3527POPC   GL280289  32.207  28.104   4.943 -0.1559 -0.0118  0.3093
 3527POPC   C1A80290  32.712  28.158   5.043  0.0717  0.1625  0.0267
 3527POPC   D2A80291  33.044  27.894   5.277 -0.1067  0.2079  0.1149
 3527POPC   C3A80292  32.958  27.610   5.613  0.1043 -0.1308 -0.1256
 3527POPC   C4A80293  33.265  27.343   5.876  0.0092  0.0179  0.1936
 3527POPC   C1B80294  32.258  28.020   5.395  0.1079 -0.3207 -0.0160
 3527POPC   C2B80295  32.222  28.094   5.838 -0.0394 -0.1868 -0.4539
 3527POPC   C3B80296  32.537  28.390   6.072 -0.0145 -0.0291  0.2290
 3527POPC   C4B80297  32.591  28.772   6.335 -0.1997  0.3674  0.2664
 3528POPC   NC380298  24.091  32.367   4.642 -0.1897  0.0325  0.0035
 3528POPC   PO480299  24.113  32.639   4.931 -0.3887  0.0643  0.1662
 3528POPC   GL180300  23.981  32.391   5.201  0.4298  0.0359  0.4154
 3528POPC   GL280301  24.207  32.497   5.425  0.0022 -0.4158  0.0532
 3528POPC   C1A80302  23.801  32.341   5.621  0.1423 -0.2180  0.0550
 3528POPC   D2A80303  23.757  32.389   6.114 -0.1406  0.1537  0.1900
 3528POPC   C3A80304  23.897  32.283   6.565  0.3438 -0.0878  0.0356
 3528POPC   C4A80305  23.781  32.186   7.009  0.1437  0.0694 -0.0944
 3528POPC   C1B80306  24.254  32.443   5.866 -0.2534 -0.3282  0.4758
 3528POPC   C2B80307  24.294  32.313   6.295 -0.1028 -0.2490 -0.1908
 3528POPC   C3B80308  24.301  32.153   6.778  0.0433  0.1363 -0.0166
 3528POPC   C4B80309  24.438  31.938   7.176 -0.0325  0.0152  0.3866
 3529POPC   NC380310  17.267  24.527   4.763 -0.1293 -0.0508  0.1238
 3529POPC   PO480311  17.638  24.590   4.778  0.3053 -0.0232 -0.4604
 3529POPC   GL180312  17.589  24.645   5.111 -0.1220 -0.2849 -0.1412
 3529POPC   GL280313  17.366  24.633   5.304 -0.0014 -0.0399  0.0484
 3529POPC   C1A80314  17.827  24.754   5.483 -0.1123  0.2049  0.3572
 3529POPC   D2A80315  17.605  24.591   5.829 -0.0908 -0.2205 -0.0961
 3529POPC   C3A80316  17.727  24.758   6.193  0.6552 -0.0522 -0.0567
 3529POPC   C4A80317  17.813  24.945   6.574  0.1201  0.1984 -0.1309
 3529POPC   C1B80318  17.261  24.907   5.635 -0.3425 -0.1219 -0.2989
 3529POPC   C2B80319  17.218  24.872   6.068 -0.2944 -0.0322  0.1474
 3529POPC   C3B80320  17.275  25.032   6.484 -0.1189  0.4572 -0.0852
 3529POPC   C4B80321  17.513  25.359   6.706 -0.1071  0.3783  0.0174
 3530POPC   NC380322  21.389  24.166   5.908  0.1672  0.2188  0.2457
 3530POPC   PO480323  21.066  24.218   5.689 -0.0398  0.1956  0.2478
 3530POPC   GL180324  21.007  24.426   6.079  0.0880 -0.0802 -0.1050
 3530POPC   GL280325  20.954  24.180   6.149 -0.0574  0.1874 -0.1262
 3530POPC   C1A80326  21.308  24.395   6.402  0.1949  0.0629  0.2557
 3530POPC   D2A80327  21.463  24.623   6.754  0.1096 -0.2523 -0.3393
 3530POPC   C3A80328  21.271  24.882   7.130 -0.1715 -0.1280  0.2440
 3530POPC   C4A80329  20.965  24.867   7.432  0.1577 -0.2888 -0.1082
 3530POPC   C1B80330  20.808  24.384   6.590  0.0585  0.1098 -0.0597
 3530POPC   C2B80331  20.870  24.817   6.828 -0.1819  0.1640 -0.0407
 3530POPC   C3B80332  20.813  25.196   7.118  0.1712  0.0800 -0.1420
 3530POPC   C4B80333  20.840  25.413   7.529  0.1275  0.3749 -0.0640
 3531POPC   NC380334  30.599  20.535   5.554  0.1976  0.0667  0.2287
 3531POPC   PO480335  30.904  20.771   5.567  0.1113 -0.1002  0.1343
 3531POPC   GL180336  30.949  20.692   5.969  0.1602  0.3035 -0.2711
 3531POPC   GL280337  30.825  20.402   5.948 -0.1023 -0.0421  0.1418
 3531POPC   C1A80338  31.244  20.582   6.313 -0.3330  0.1104  0.2963
 3531POPC   D2A80339  31.404  20.170   6.571 -0.2027 -0.3004 -0.2832
 3531POPC   C3A80340  31.410  19.734   6.727 -0.4413 -0.0993 -0.1201
 3531POPC   C4A80341  31.484  19.288   6.574  0.0403  0.3276  0.0424
 3531POPC   C1B80342  30.904  20.050   6.228 -0.2561  0.0156 -0.1203
 3531POPC   C2B80343  31.133  19.632   6.373  0.3437  0.0413 -0.4292
 3531POPC   C3B80344  31.130  19.214   6.137 -0.3851  0.1768 -0.1256
 3531POPC   C4B80345  31.063  18.782   5.823 -0.2135  0.0516 -0.0526
 3532POPC   NC380346  24.599  22.154   8.086 -0.1447  0.1609  0.3316
 3532POPC   PO480347  24.282  21.889   8.109 -0.4668  0.0208  0.1670
 3532POPC   GL180348  24.067  21.733   8.425 -0.2305 -0.2909  0.0087
 3532POPC   GL280349  23.959  21.509   8.315  0.0523  0.1055 -0.0452
 3532POPC   C1A80350  23.820  21.812   8.806 -0.1087 -0.1999  0.0281
 3532POPC   D2A80351  23.394  21.778   8.572 -0.2782 -0.0522  0.2859
 3532POPC   C3A80352  23.006  21.701   8.788  0.0294 -0.0729 -0.4333
 3532POPC   C4A80353  22.757  21.563   9.172 -0.0281 -0.0357 -0.0605
 3532POPC   C1B80354  23.708  21.315   8.612  0.2713 -0.1072 -0.3586
 3532POPC   C2B80355  23.470  21.000   8.813  0.0249 -0.2066  0.0620
 3532POPC   C3B80356  23.158  20.691   8.930 -0.1322  0.0397 -0.0099
 3532POPC   C4B80357  22.737  20.566   9.139  0.0500  0.0546  0.0111
 3533POPC   NC380358  16.799  22.300   4.985  0.2274  0.0392 -0.0814
 3533POPC   PO480359  17.126  22.432   4.785 -0.1308 -0.1299  0.0652
 3533POPC   GL180360  17.276  22.728   5.090 -0.3995 -0.2350 -0.1722
 3533POPC   GL280361  17.067  22.592   5.293 -0.0111  0.2490 -0.2474
 3533POPC   C1A80362  17.608  22.653   5.458  0.2001 -0.0825  0.0854
 3533POPC   D2A80363  17.538  22.644   5.921 -0.1186 -0.1685 -0.1292
 3533POPC   C3A80364  17.295  22.781   6.290  0.1442 -0.0713  0.1059
 3533POPC   C4A80365  16.944  23.070   6.419 -0.0511 -0.0190 -0.0065
 3533POPC   C1B80366  16.888  22.206   5.494 -0.2557  0.3580 -0.1442
 3533POPC   C2B80367  16.959  22.004   5.934  0.0331 -0.1183  0.0073
 3533POPC   C3B80368  17.108  21.927   6.391  0.2260 -0.0692 -0.0543
 3533POPC   C4B80369  17.330  21.865   6.808  0.3734  0.2614  0.2574
 3534POPC   NC380370  28.206  22.925   7.614  0.1477 -0.0738 -0.0376
 3534POPC   PO480371  28.351  23.188   7.859  0.1200 -0.0855  0.3834
 3534POPC   GL180372  28.725  23.318   8.078  0.3593 -0.3322  0.1606
 3534POPC   GL280373  28.649  23.494   8.259 -0.0738  0.2017  0.1129
 3534POPC   C1A80374  29.150  23.446   8.232 -0.1319 -0.2642 -0.2899
 3534POPC   D2A80375  29.308  23.466   8.719  0.0759 -0.2766  0.5906
 3534POPC   C3A80376  29.233  23.703   9.099 -0.0300  0.1334  0.0770
 3534POPC   C4A80377  28.912  23.982   9.289  0.2725  0.0155 -0.1077
 3534POPC   C1B80378  28.889  23.668   8.601  0.0148 -0.0745 -0.0045
 3534POPC   C2B80379  28.911  24.060   8.823  0.2231  0.0061 -0.0613
 3534POPC   C3B80380  28.507  24.142   9.044 -0.2015  0.1428  0.2768
 3534POPC   C4B80381  28.126  24.080   9.254 -0.0619 -0.0826  0.1009
 3535POPC   NC380382  27.300  24.337   8.047  0.0822  0.3871 -0.1301
 3535POPC   PO480383  27.627  24.315   7.827  0.0912  0.0005 -0.1256
 3535POPC   GL180384  27.960  24.608   7.859  0.1261  0.1807 -0.0546
 3535POPC   GL280385  27.933  24.534   8.182 -0.1366 -0.0822  0.3409
 3535POPC   C1A80386  28.007  25.021   8.098  0.1325 -0.0125  0.1722
 3535POPC   D2A80387  28.310  25.197   8.334 -0.0637  0.0380 -0.1208
 3535POPC   C3A80388  28.502  25.609   8.230  0.2205  0.1693 -0.3315
 3535POPC   C4A80389  28.878  25.796   8.443  0.0492 -0.3601 -0.4241
 3535POPC   C1B80390  28.002  24.769   8.545 -0.2938 -0.3267 -0.1791
 3535POPC   C2B80391  28.296  25.072   8.903 -0.0226  0.0108  0.1739
 3535POPC   C3B80392  28.582  25.433   8.789  0.0047  0.1972  0.0772
 3535POPC   C4B80393  28.540  25.936   8.808 -0.0036 -0.1243  0.2497
 3536POPC   NC380394  31.943  21.526   5.768  0.0957 -0.1174 -0.0592
 3536POPC   PO480395  31.570  21.691   5.749 -0.1554  0.1188 -0.1506
 3536POPC   GL180396  31.408  21.913   5.989  0.0102 -0.0879  0.1012
 3536POPC   GL280397  31.623  22.033   6.174 -0.0221 -0.3014 -0.1970
 3536POPC   C1A80398  31.115  21.762   6.346 -0.0180  0.1174 -0.0429
 3536POPC   D2A80399  30.923  21.828   6.753 -0.0847 -0.4514  0.0100
 3536POPC   C3A80400  30.948  21.907   7.184 -0.2450  0.0160  0.1139
 3536POPC   C4A80401  31.326  21.988   7.490 -0.1497 -0.0426  0.0658
 3536POPC   C1B80402  31.545  21.967   6.621 -0.2048  0.0796  0.0361
 3536POPC   C2B80403  31.468  21.770   6.992 -0.0598  0.3977  0.0990
 3536POPC   C3B80404  31.205  21.519   7.327 -0.1814  0.2453  0.0755
 3536POPC   C4B80405  31.160  21.353   7.738  0.0426  0.2297 -0.1157
 3537POPC   NC380406  31.957  18.007   4.260  0.2138 -0.1878  0.0776
 3537POPC   PO480407  31.716  17.702   4.248 -0.0767  0.1694 -0.2132
 3537POPC   GL180408  31.652  17.479   4.531  0.2844 -0.1754  0.1114
 3537POPC   GL280409  31.619  17.212   4.511  0.0909 -0.0726  0.0458
 3537POPC   C1A80410  31.676  17.481   5.022 -0.0832  0.2152  0.0596
 3537POPC   D2A80411  31.818  17.667   5.478 -0.2281 -0.1522  0.2104
 3537POPC   C3A80412  31.580  17.710   5.813 -0.0760 -0.0113 -0.3853
 3537POPC   C4A80413  31.344  17.936   6.179  0.1481  0.2829 -0.4201
 3537POPC   C1B80414  31.733  16.867   4.884  0.2204 -0.2349  0.3481
 3537POPC   C2B80415  31.820  17.080   5.253  0.3174 -0.0772  0.0464
 3537POPC   C3B80416  31.924  17.228   5.658 -0.1100 -0.1205  0.0099
 3537POPC   C4B80417  31.819  17.234   6.123 -0.0949  0.1544  0.0248
 3538POPC   NC380418  20.666  30.775   3.458 -0.0723  0.0520 -0.0288
 3538POPC   PO480419  20.887  30.434   3.487 -0.2113 -0.0751  0.0004
 3538POPC   GL180420  20.718  30.299   3.880  0.3262 -0.0849  0.0212
 3538POPC   GL280421  20.605  30.514   3.995 -0.1455 -0.0876 -0.0689
 3538POPC   C1A80422  20.417  30.135   4.211 -0.0431 -0.0128 -0.1588
 3538POPC   D2A80423  20.107  30.227   4.484 -0.0439  0.4580 -0.2719
 3538POPC   C3A80424  20.223  29.979   4.886 -0.1360  0.2528 -0.1296
 3538POPC   C4A80425  20.181  29.816   5.364  0.0443  0.0303 -0.2796
 3538POPC   C1B80426  20.614  30.519   4.448  0.0722 -0.0453  0.1416
 3538POPC   C2B80427  20.449  30.471   4.869 -0.4599 -0.4969 -0.0998
 3538POPC   C3B80428  20.398  30.557   5.272  0.0661  0.1776  0.0526
 3538POPC   C4B80429  20.525  30.754   5.709 -0.1479 -0.1349 -0.1595
 3539POPC   NC380430  25.766  26.637   6.193 -0.0958  0.0383 -0.1597
 3539POPC   PO480431  25.673  26.411   6.506  0.0905 -0.2393  0.0821
 3539POPC   GL180432  25.741  26.567   6.863 -0.0025  0.0238  0.2012
 3539POPC   GL280433  26.003  26.502   6.993  0.1054  0.2879 -0.0912
 3539POPC   C1A80434  25.483  26.800   7.185 -0.0810  0.0086 -0.4559
 3539POPC   D2A80435  25.293  27.030   7.588  0.0956 -0.0958  0.1362
 3539POPC   C3A80436  25.557  26.975   7.924  0.2806 -0.0479 -0.2014
 3539POPC   C4A80437  25.874  27.027   8.252 -0.3421 -0.0563  0.2958
 3539POPC   C1B80438  25.943  26.940   7.072 -0.0037 -0.0574  0.2651
 3539POPC   C2B80439  25.724  27.315   7.306  0.1109 -0.2569  0.0667
 3539POPC   C3B80440  25.656  27.545   7.679  0.0747  0.0461  0.1290
 3539POPC   C4B80441  25.838  27.699   8.111  0.0321 -0.0763 -0.3232
 3540POPC   NC380442  25.112  18.097   5.862 -0.0100  0.0396  0.1891
 3540POPC   PO480443  25.541  18.070   5.895  0.2943  0.0264  0.3251
 3540POPC   GL180444  25.649  18.034   6.220 -0.3924 -0.3814 -0.1320
 3540POPC   GL280445  25.515  18.168   6.388  0.3602  0.1096  0.2212
 3540POPC   C1A80446  25.700  17.576   6.439 -0.1444  0.0720  0.0931
 3540POPC   D2A80447  25.722  17.401   6.816  0.0346 -0.0639 -0.3337
 3540POPC   C3A80448  26.044  17.067   6.945 -0.0542  0.0293  0.3899
 3540POPC   C4A80449  26.436  16.983   7.230 -0.0556 -0.0372  0.0705
 3540POPC   C1B80450  25.382  17.858   6.740  0.1707 -0.0610 -0.1759
 3540POPC   C2B80451  25.268  17.871   7.181  0.1318  0.0769 -0.2457
 3540POPC   C3B80452  25.018  17.698   7.527  0.0259 -0.0359 -0.0481
 3540POPC   C4B80453  24.664  17.488   7.743  0.1367  0.1071 -0.1586
 3541POPC   NC380454  16.736  24.014   5.107  0.2261 -0.1550 -0.0317
 3541POPC   PO480455  17.107  24.123   5.022 -0.2632  0.4750  0.2336
 3541POPC   GL180456  17.214  24.083   5.366  0.0967  0.0471 -0.2541
 3541POPC   GL280457  17.188  23.820   5.544 -0.1004 -0.1437 -0.0633
 3541POPC   C1A80458  17.179  24.340   5.680 -0.0928  0.1066 -0.0682
 3541POPC   D2A80459  17.208  24.318   6.114  0.3260 -0.0026  0.0312
 3541POPC   C3A80460  17.518  24.426   6.518  0.3455 -0.0403 -0.1782
 3541POPC   C4A80461  17.970  24.401   6.497  0.1894 -0.4639  0.2639
 3541POPC   C1B80462  16.866  23.906   5.939  0.0182  0.4251  0.0828
 3541POPC   C2B80463  16.733  24.228   6.263 -0.0226  0.0560  0.0676
 3541POPC   C3B80464  16.552  24.424   6.672  0.5509  0.1163  0.0473
 3541POPC   C4B80465  16.193  24.526   6.899 -0.0592  0.3914  0.1896
 3542POPC   NC380466  29.496  24.829   6.575 -0.0412  0.3558  0.0826
 3542POPC   PO480467  29.687  24.715   6.228 -0.1866  0.2573  0.0662
 3542POPC   GL180468  29.944  24.805   6.437  0.1568 -0.3407  0.3344
 3542POPC   GL280469  30.054  25.060   6.397  0.1401 -0.0488 -0.1042
 3542POPC   C1A80470  29.936  24.696   6.880  0.0817 -0.3025  0.2199
 3542POPC   D2A80471  30.023  24.507   7.303  0.0398 -0.0341  0.0888
 3542POPC   C3A80472  30.416  24.394   7.547 -0.1874  0.0092  0.0658
 3542POPC   C4A80473  30.880  24.466   7.483 -0.0263 -0.0162  0.0779
 3542POPC   C1B80474  30.226  25.041   6.866 -0.2491 -0.0690 -0.0094
 3542POPC   C2B80475  30.162  24.996   7.301  0.0006  0.1504  0.0483
 3542POPC   C3B80476  30.048  24.773   7.697 -0.3378  0.1331  0.2373
 3542POPC   C4B80477  29.933  24.337   7.803  0.2081  0.1297 -0.0368
 3543POPC   NC380478  25.254   0.041   5.157  0.0581 -0.2391 -0.1333
 3543POPC   PO480479  25.314   0.405   5.282  0.0157  0.0973 -0.1030
 3543POPC   GL180480  25.370   0.009   5.637 -0.1079 -0.1824  0.0470
 3543POPC   GL280481  25.660  -0.030   5.634  0.0786  0.0530 -0.1504
 3543POPC   C1A80482  25.364   0.040   6.105 -0.0613 -0.2219  0.2411
 3543POPC   D2A80483  25.280   0.227   6.513  0.1681 -0.1917 -0.0097
 3543POPC   C3A80484  25.053   0.076   6.842 -0.1811  0.1049 -0.0360
 3543POPC   C4A80485  24.888  -0.083   7.235 -0.2218  0.1476  0.0352
 3543POPC   C1B80486  25.877  -0.095   6.054  0.4664 -0.1520 -0.2793
 3543POPC   C2B80487  26.038  -0.247   6.460  0.1887 -0.0586  0.2899
 3543POPC   C3B80488  26.440  -0.356   6.717 -0.3697  0.1385 -0.0175
 3543POPC   C4B80489  26.578  -0.232   7.110 -0.1337  0.2553  0.0698
 3544POPC   NC380490  29.882  20.827   5.191  0.0359  0.2607 -0.4123
 3544POPC   PO480491  29.673  20.600   5.396  0.0992  0.3543  0.0618
 3544POPC   GL180492  29.623  20.362   5.694  0.1954  0.0336  0.0084
 3544POPC   GL280493  29.530  20.414   5.966 -0.2711  0.2675  0.1553
 3544POPC   C1A80494  29.963  20.088   5.877 -0.2263 -0.1648 -0.3249
 3544POPC   D2A80495  30.164  19.723   6.105  0.1384 -0.4019  0.2058
 3544POPC   C3A80496  30.019  19.686   6.544 -0.0407 -0.1710  0.0486
 3544POPC   C4A80497  30.210  19.627   6.953  0.0796  0.0900 -0.2326
 3544POPC   C1B80498  29.845  20.367   6.295 -0.0319  0.0247  0.1101
 3544POPC   C2B80499  30.099  20.282   6.664  0.0832 -0.3183 -0.0882
 3544POPC   C3B80500  30.412  20.115   6.980 -0.0346  0.0217 -0.1071
 3544POPC   C4B80501  30.540  19.943   7.374 -0.0286  0.1017  0.1979
 3545POPC   NC380502  27.591  23.645   9.939 -0.0294  0.1683  0.2647
 3545POPC   PO480503  27.399  23.952   9.802  0.1223  0.1366 -0.0681
 3545POPC   GL180504  27.392  24.346   9.918 -0.3159  0.0501  0.0799
 3545POPC   GL280505  27.304  24.300  10.199 -0.1122  0.1460 -0.0398
 3545POPC   C1A80506  27.742  24.654  10.012 -0.0340  0.0421  0.0496
 3545POPC   D2A80507  28.093  24.929   9.859 -0.0176  0.3580  0.3383
 3545POPC   C3A80508  28.153  25.240  10.164 -0.1062 -0.1900  0.0798
 3545POPC   C4A80509  27.969  25.531  10.426  0.2195 -0.2452  0.0349
 3545POPC   C1B80510  27.388  24.757  10.376 -0.0405 -0.3381  0.3556
 3545POPC   C2B80511  27.592  25.080  10.599 -0.0161 -0.2462 -0.4023
 3545POPC   C3B80512  27.707  25.176  11.037  0.2580 -0.1993  0.3917
 3545POPC   C4B80513  27.768  25.460  11.368  0.2800  0.2906  0.0318
 3546POPC   NC380514  24.178  20.668   6.891  0.3148  0.0701  0.0299
 3546POPC   PO480515  23.924  20.626   6.618 -0.0951 -0.1091 -0.0823
 3546POPC   GL180516  23.729  20.569   6.977 -0.2573  0.1044  0.1039
 3546POPC   GL280517  23.698  20.769   7.207  0.4475 -0.4790 -0.5435
 3546POPC   C1A80518  23.489  20.256   7.219 -0.1415  0.1313 -0.0871
 3546POPC   D2A80519  23.314  19.862   7.468 -0.0081  0.0903 -0.2548
 3546POPC   C3A80520  23.291  19.918   7.921  0.2138  0.3198 -0.0169
 3546POPC   C4A80521  23.049  19.847   8.369 -0.2410 -0.1881 -0.0358
 3546POPC   C1B80522  23.619  20.578   7.651 -0.3323  0.1777  0.1517
 3546POPC   C2B80523  23.355  20.519   8.011  0.0541 -0.2053 -0.1782
 3546POPC   C3B80524  22.956  20.316   8.156  0.3206  0.0745  0.1965
 3546POPC   C4B80525  22.542  20.104   8.148 -0.0796 -0.1971 -0.1896
 3547POPC   NC380526  19.714  31.622   3.992 -0.0582 -0.0069 -0.2327
 3547POPC   PO480527  19.911  31.291   4.003 -0.2810 -0.3043  0.2105
 3547POPC   GL180528  19.824  31.337   4.396  0.2555 -0.0530 -0.1592
 3547POPC   GL280529  20.042  31.266   4.615  0.6734  0.1764  0.2627
 3547POPC   C1A80530  19.669  30.979   4.630 -0.1412  0.1307  0.0929
 3547POPC   D2A80531  19.451  30.548   4.681  0.0499 -0.1704 -0.2403
 3547POPC   C3A80532  19.415  30.329   5.024 -0.0503  0.0148 -0.0832
 3547POPC   C4A80533  19.487  30.187   5.456 -0.0040  0.0991 -0.2577
 3547POPC   C1B80534  20.079  30.976   4.963 -0.2148 -0.2561  0.3516
 3547POPC   C2B80535  20.075  30.898   5.420 -0.2142 -0.0603  0.0113
 3547POPC   C3B80536  19.867  30.678   5.746 -0.0463  0.4173  0.2747
 3547POPC   C4B80537  19.560  30.345   5.952 -0.1024 -0.2821 -0.2985
 3548POPC   NC380538  29.187  18.078   4.642 -0.1916 -0.0206 -0.2470
 3548POPC   PO480539  29.255  17.688   4.691 -0.2213  0.1209  0.0864
 3548POPC   GL180540  29.137  17.825   5.033 -0.1232  0.1448  0.1498
 3548POPC   GL280541  29.264  17.679   5.227 -0.2980  0.1000  0.1642
 3548POPC   C1A80542  28.735  17.808   5.314 -0.0917 -0.0329 -0.1027
 3548POPC   D2A80543  28.541  17.657   5.712 -0.2440  0.2237 -0.0410
 3548POPC   C3A80544  28.311  17.733   6.174  0.0939  0.1522 -0.0026
 3548POPC   C4A80545  28.012  17.650   6.523  0.0011 -0.0168 -0.1476
 3548POPC   C1B80546  29.157  17.783   5.624  0.2743  0.0725 -0.2190
 3548POPC   C2B80547  28.980  17.604   5.977  0.4126  0.0093  0.0406
 3548POPC   C3B80548  28.788  17.397   6.344  0.0721 -0.0804 -0.0647
 3548POPC   C4B80549  28.561  16.989   6.433  0.0569 -0.1370 -0.1065
 3549POPC   NC380550  21.630  26.478   4.971 -0.1628 -0.0115  0.2357
 3549POPC   PO480551  21.243  26.531   5.006 -0.0111 -0.2016 -0.0223
 3549POPC   GL180552  21.145  26.853   5.228 -0.0595 -0.1327  0.0172
 3549POPC   GL280553  21.320  26.742   5.462 -0.2556 -0.2099 -0.0819
 3549POPC   C1A80554  20.683  26.840   5.256 -0.2222 -0.0536  0.0923
 3549POPC   D2A80555  20.322  26.875   5.494 -0.1613  0.0437 -0.1262
 3549POPC   C3A80556  20.238  27.272   5.712  0.2267  0.0827  0.1268
 3549POPC   C4A80557  19.887  27.554   5.753 -0.0980  0.0121 -0.1735
 3549POPC   C1B80558  21.726  26.772   5.657  0.2061  0.1775 -0.1873
 3549POPC   C2B80559  22.146  26.747   5.910 -0.0411  0.1130 -0.0893
 3549POPC   C3B80560  22.322  26.592   6.322 -0.2140 -0.1780  0.7612
 3549POPC   C4B80561  22.267  26.650   6.771  0.0446 -0.0960  0.1289
 3550POPC   NC380562  24.851  31.531   4.541  0.0415 -0.2665  0.0601
 3550POPC   PO480563  24.506  31.505   4.324  0.0791  0.0589 -0.0668
 3550POPC   GL180564  24.426  31.585   4.782 -0.1867  0.0644  0.3426
 3550POPC   GL280565  24.614  31.730   4.992 -0.0893 -0.0519  0.1133
 3550POPC   C1A80566  24.561  31.257   5.074 -0.1210 -0.2599  0.2493
 3550POPC   D2A80567  24.556  30.751   5.133  0.0225  0.1896 -0.2488
 3550POPC   C3A80568  24.539  30.615   5.589 -0.1297  0.1721 -0.1483
 3550POPC   C4A80569  24.342  30.764   5.967 -0.2123  0.0258 -0.0243
 3550POPC   C1B80570  24.387  31.635   5.382  0.0649  0.0425  0.0433
 3550POPC   C2B80571  24.360  31.601   5.833 -0.1187  0.0294  0.3066
 3550POPC   C3B80572  24.334  31.428   6.229  0.2367  0.1284 -0.1868
 3550POPC   C4B80573  24.345  31.279   6.657  0.0517 -0.1899 -0.0951
 3551POPC   NC380574  25.406  23.246   9.941 -0.0295  0.1621  0.0379
 3551POPC   PO480575  25.139  22.987  10.044  0.0879 -0.2047  0.1738
 3551POPC   GL180576  24.805  22.941  10.009 -0.3642  0.0363 -0.3291
 3551POPC   GL280577  24.749  22.675  10.173 -0.0919  0.3387  0.3791
 3551POPC   C1A80578  24.374  22.960   9.921 -0.0345  0.1212 -0.0737
 3551POPC   D2A80579  24.023  22.679   9.862 -0.0138  0.2050  0.1524
 3551POPC   C3A80580  23.809  22.639  10.259 -0.0583 -0.3419  0.0257
 3551POPC   C4A80581  23.505  22.562  10.597  0.1605  0.0001 -0.1277
 3551POPC   C1B80582  24.610  22.333  10.491  0.0765 -0.1738  0.1545
 3551POPC   C2B80583  24.488  22.086  10.871  0.1149 -0.1669  0.1631
 3551POPC   C3B80584  24.090  22.076  11.140  0.0571 -0.1090 -0.1678
 3551POPC   C4B80585  23.820  21.862  11.409  0.3686 -0.0023 -0.2388
 3552POPC   NC380586  23.178  18.199   5.333 -0.1726  0.1853 -0.2007
 3552POPC   PO480587  23.476  17.954   5.458 -0.2060 -0.3250  0.2584
 3552POPC   GL180588  23.563  18.066   5.893 -0.0621  0.0518  0.1545
 3552POPC   GL280589  23.684  17.782   6.020 -0.0301 -0.2565 -0.1176
 3552POPC   C1A80590  23.356  18.172   6.335 -0.0800 -0.1707 -0.3372
 3552POPC   D2A80591  23.284  17.987   6.755  0.2288 -0.1208 -0.0033
 3552POPC   C3A80592  22.859  17.871   6.898 -0.1569 -0.0406  0.2686
 3552POPC   C4A80593  22.484  17.966   7.124  0.0353 -0.0166  0.0689
 3552POPC   C1B80594  23.506  17.667   6.431  0.2052 -0.3735 -0.2043
 3552POPC   C2B80595  23.330  17.493   6.831  0.1290 -0.2935  0.1626
 3552POPC   C3B80596  22.883  17.389   6.988  0.1236  0.4975  0.2311
 3552POPC   C4B80597  22.523  17.122   6.955  0.0561 -0.1491  0.1699
 3553POPC   NC380598  17.424  23.746   5.073 -0.0066  0.5084  0.1768
 3553POPC   PO480599  17.038  23.607   5.119 -0.2440 -0.0573  0.1747
 3553POPC   GL180600  16.814  23.391   5.427 -0.2933  0.0059  0.3312
 3553POPC   GL280601  17.020  23.378   5.599 -0.0911 -0.1092 -0.0440
 3553POPC   C1A80602  16.486  23.370   5.789  0.1078 -0.0310 -0.0239
 3553POPC   D2A80603  16.526  23.580   6.212 -0.3949 -0.2651  0.0833
 3553POPC   C3A80604  16.277  24.007   6.296  0.0306 -0.1469 -0.2823
 3553POPC   C4A80605  16.013  24.357   6.487 -0.0282  0.1404 -0.1491
 3553POPC   C1B80606  17.015  23.421   6.081  0.3246  0.3430 -0.0640
 3553POPC   C2B80607  16.861  23.581   6.540  0.4571  0.2979  0.0009
 3553POPC   C3B80608  16.729  23.971   6.710  0.3451  0.0748  0.3505
 3553POPC   C4B80609  16.654  24.131   7.163  0.2452 -0.0690 -0.0874
 3554POPC   NC380610  30.590  18.980   5.575 -0.0359  0.0801 -0.2665
 3554POPC   PO480611  30.265  18.926   5.407  0.0740 -0.3674  0.0094
 3554POPC   GL180612  30.294  18.610   5.645 -0.0309 -0.0349 -0.1776
 3554POPC   GL280613  30.026  18.559   5.760  0.2659  0.1257 -0.0818
 3554POPC   C1A80614  30.303  18.652   6.134 -0.1107 -0.1912 -0.0979
 3554POPC   D2A80615  30.396  18.864   6.559  0.0162  0.1276  0.3150
 3554POPC   C3A80616  30.799  18.705   6.844  0.2012  0.1585 -0.0600
 3554POPC   C4A80617  30.998  18.887   7.223  0.2523  0.0079 -0.1780
 3554POPC   C1B80618  29.840  18.304   6.080 -0.0197  0.0279  0.2294
 3554POPC   C2B80619  29.835  18.217   6.539 -0.2795 -0.1499  0.0126
 3554POPC   C3B80620  30.281  18.177   6.727  0.1601  0.1351  0.0338
 3554POPC   C4B80621  30.425  18.209   7.131  0.1780 -0.0969  0.0573
 3555POPC   NC380622  31.253  20.983   5.271 -0.1452 -0.0526  0.3806
 3555POPC   PO480623  31.250  20.596   5.188  0.3087  0.2683  0.0190
 3555POPC   GL180624  31.421  20.456   5.576 -0.0532 -0.2090  0.3822
 3555POPC   GL280625  31.358  20.669   5.817 -0.2970  0.0264  0.0138
 3555POPC   C1A80626  31.862  20.413   5.722 -0.0669 -0.2091 -0.2630
 3555POPC   D2A80627  32.271  20.169   5.950 -0.0346  0.1387  0.0479
 3555POPC   C3A80628  32.600  20.455   6.209  0.1588 -0.1298  0.1093
 3555POPC   C4A80629  32.909  20.659   6.499  0.0712 -0.2828 -0.2451
 3555POPC   C1B80630  31.724  20.694   6.164 -0.2234 -0.2682  0.1211
 3555POPC   C2B80631  32.156  20.636   6.416  0.2138 -0.1568 -0.3857
 3555POPC   C3B80632  32.440  20.770   6.754 -0.1283  0.2303  0.1785
 3555POPC   C4B80633  32.773  20.652   7.085  0.3078  0.0439  0.0753
 3556POPC   NC380634  16.808  20.282   4.679 -0.0157 -0.0783 -0.1228
 3556POPC   PO480635  17.117  20.013   4.697 -0.3271  0.0459  0.1922
 3556POPC   GL180636  17.186  20.192   5.044  0.2650  0.4056  0.1908
 3556POPC   GL280637  17.042  20.231   5.324  0.1887  0.1958  0.1181
 3556POPC   C1A80638  17.537  20.127   5.327  0.1744 -0.0010 -0.3500
 3556POPC   D2A80639  17.933  20.362   5.437 -0.1436  0.2997  0.0484
 3556POPC   C3A80640  17.971  20.497   5.941  0.2866  0.1739 -0.1166
 3556POPC   C4A80641  17.959  20.432   6.359 -0.4637 -0.0919 -0.4481
 3556POPC   C1B80642  17.022  20.112   5.772  0.1123 -0.0002  0.3871
 3556POPC   C2B80643  17.134  19.974   6.237 -0.0846  0.2451 -0.1768
 3556POPC   C3B80644  17.254  19.690   6.561 -0.0736 -0.0879  0.0982
 3556POPC   C4B80645  17.296  19.428   6.924 -0.0796 -0.0876  0.0161
 3557POPC   NC380646  32.173  22.612   5.088 -0.1384  0.2965  0.0170
 3557POPC   PO480647  31.850  22.812   5.225 -0.0279  0.1239 -0.3252
 3557POPC   GL180648  31.801  22.776   5.648 -0.1411  0.5982 -0.1665
 3557POPC   GL280649  31.925  22.542   5.713  0.0390  0.1829  0.0151
 3557POPC   C1A80650  31.935  23.024   5.997 -0.0532  0.0450 -0.1263
 3557POPC   D2A80651  32.080  23.180   6.430 -0.0787 -0.2160  0.0434
 3557POPC   C3A80652  31.876  23.082   6.877  0.0409 -0.1001  0.3069
 3557POPC   C4A80653  31.705  23.068   7.314 -0.2046  0.1287 -0.0168
 3557POPC   C1B80654  31.958  22.340   6.097 -0.1408 -0.1361  0.0434
 3557POPC   C2B80655  32.085  22.251   6.499 -0.1486 -0.1489 -0.1774
 3557POPC   C3B80656  32.012  21.949   6.855  0.0261  0.0633 -0.0231
 3557POPC   C4B80657  31.859  21.865   7.323  0.0864  0.0650  0.1310
 3558POPC   NC380658  27.605  22.346  10.699 -0.1812 -0.1881  0.0225
 3558POPC   PO480659  27.746  22.737  10.797  0.1826  0.0376  0.0164
 3558POPC   GL180660  28.092  22.550  10.733 -0.0195 -0.0022  0.1295
 3558POPC   GL280661  28.152  22.767  10.471  0.1206  0.2562 -0.0561
 3558POPC   C1A80662  28.508  22.563  10.919 -0.0976  0.0584 -0.1632
 3558POPC   D2A80663  28.962  22.476  10.908 -0.1008  0.0224 -0.0565
 3558POPC   C3A80664  29.131  22.115  11.183 -0.0419  0.0493 -0.1027
 3558POPC   C4A80665  29.243  21.757  11.499 -0.0554  0.2597 -0.1677
 3558POPC   C1B80666  28.324  23.055  10.728 -0.0836  0.0312 -0.2398
 3558POPC   C2B80667  28.438  23.349  11.089  0.0551 -0.1397 -0.0832
 3558POPC   C3B80668  28.531  23.728  11.376 -0.0697 -0.1579  0.2187
 3558POPC   C4B80669  28.699  23.877  11.780 -0.1103  0.0142 -0.0078
 3559POPC   NC380670  32.640  20.312   4.967  0.3596  0.3450 -0.5261
 3559POPC   PO480671  32.641  20.683   4.967  0.2537  0.0582 -0.2429
 3559POPC   GL180672  32.814  20.525   5.362  0.0471 -0.1267  0.2142
 3559POPC   GL280673  32.606  20.459   5.632  0.0871 -0.0303  0.0656
 3559POPC   C1A80674  33.115  20.824   5.595 -0.3991  0.0099  0.3889
 3559POPC   D2A80675  33.423  21.131   5.747  0.0183 -0.0083  0.2859
 3559POPC   C3A80676  33.319  21.578   5.692 -0.2719 -0.1208  0.0993
 3559POPC   C4A80677  33.278  21.974   5.627  0.0127  0.2021  0.0419
 3559POPC   C1B80678  32.579  20.843   5.900 -0.2564 -0.0696  0.1000
 3559POPC   C2B80679  32.555  20.989   6.296 -0.0019 -0.0723  0.2494
 3559POPC   C3B80680  32.536  21.266   6.732  0.0175 -0.3938 -0.0468
 3559POPC   C4B80681  32.302  21.443   7.051  0.0941  0.1165  0.0637
 3560POPC   NC380682  31.142  27.541   4.683  0.3109 -0.2662  0.0195
 3560POPC   PO480683  31.035  27.932   4.698 -0.3141  0.1673  0.0846
 3560POPC   GL180684  31.133  27.819   5.050 -0.0793 -0.0221  0.1622
 3560POPC   GL280685  30.991  27.571   5.159 -0.0689 -0.2147 -0.0330
 3560POPC   C1A80686  31.471  27.957   5.333  0.0796 -0.0130  0.1597
 3560POPC   D2A80687  31.761  28.119   5.693  0.0504 -0.1421 -0.1051
 3560POPC   C3A80688  31.662  28.524   5.918 -0.0772 -0.2356  0.0566
 3560POPC   C4A80689  31.708  28.712   6.342 -0.0290  0.3085  0.0469
 3560POPC   C1B80690  30.886  27.960   5.431 -0.1366  0.0240  0.1414
 3560POPC   C2B80691  30.745  28.401   5.609  0.1273  0.1496  0.3004
 3560POPC   C3B80692  30.815  28.693   5.951  0.0266 -0.0790 -0.1895
 3560POPC   C4B80693  30.598  28.642   6.383 -0.0712  0.2105 -0.1333
 3561POPC   NC380694  30.044  22.960   6.421  0.1904 -0.0572 -0.0567
 3561POPC   PO480695  30.389  22.858   6.350  0.4499  0.3584 -0.0079
 3561POPC   GL180696  30.672  22.815   6.465  0.0549  0.3923 -0.0308
 3561POPC   GL280697  30.761  22.539   6.522  0.1300 -0.0220 -0.3928
 3561POPC   C1A80698  30.838  23.156   6.700  0.0353 -0.0944  0.2892
 3561POPC   D2A80699  31.289  23.112   6.851  0.2204  0.1030 -0.0516
 3561POPC   C3A80700  31.542  23.500   6.881 -0.0696 -0.2038 -0.1688
 3561POPC   C4A80701  31.869  23.635   7.172 -0.1387 -0.2411 -0.0978
 3561POPC   C1B80702  30.977  22.710   6.880  0.1714  0.0454  0.1133
 3561POPC   C2B80703  30.895  22.904   7.288  0.1881 -0.1416  0.0384
 3561POPC   C3B80704  31.260  23.162   7.466  0.0100  0.3883  0.3291
 3561POPC   C4B80705  31.573  23.131   7.793 -0.1407 -0.1421  0.0156
 3562POPC   NC380706  27.545  18.610   5.364  0.2578  0.1001 -0.2563
 3562POPC   PO480707  27.400  18.793   5.688  0.0117  0.2661 -0.2555
 3562POPC   GL180708  27.713  18.682   5.934  0.0666 -0.3451  0.3272
 3562POPC   GL280709  27.874  18.661   5.750 -0.2212  0.3473 -0.3193
 3562POPC   C1A80710  27.926  18.968   6.251 -0.1844  0.3363 -0.0918
 3562POPC   D2A80711  28.198  18.954   6.610 -0.0307 -0.0955  0.0827
 3562POPC   C3A80712  28.137  18.808   7.087  0.1568  0.2684  0.1827
 3562POPC   C4A80713  28.031  18.844   7.501  0.3882 -0.0508 -0.1231
 3562POPC   C1B80714  27.952  18.383   6.096 -0.1289  0.1902  0.0674
 3562POPC   C2B80715  28.208  18.154   6.389  0.1337 -0.3527 -0.2581
 3562POPC   C3B80716  28.506  17.903   6.681  0.0018 -0.1669  0.0447
 3562POPC   C4B80717  28.517  17.424   6.772  0.1068  0.2322 -0.1390
 3563POPC   NC380718  30.420  16.716   4.389  0.1663  0.1174 -0.1640
 3563POPC   PO480719  30.058  16.747   4.382  0.0506 -0.2390 -0.0545
 3563POPC   GL180720  30.112  16.757   4.807  0.3485  0.0434 -0.0404
 3563POPC   GL280721  29.863  16.693   4.969 -0.1773 -0.0425 -0.2673
 3563POPC   C1A80722  30.250  16.893   5.217 -0.1374  0.0189 -0.1217
 3563POPC   D2A80723  30.118  16.793   5.654  0.2207  0.0577  0.2694
 3563POPC   C3A80724  30.397  16.597   6.013  0.0098  0.1876  0.2835
 3563POPC   C4A80725  30.520  16.430   6.379  0.2764 -0.0889  0.1481
 3563POPC   C1B80726  29.695  16.701   5.424  0.5125  0.2765 -0.1879
 3563POPC   C2B80727  29.601  16.881   5.816  0.0444  0.0500 -0.0305
 3563POPC   C3B80728  29.880  16.836   6.134 -0.1203  0.1534 -0.1076
 3563POPC   C4B80729  30.102  16.724   6.544 -0.0609  0.0793  0.4950
 3564POPC   NC380730  23.141  17.863   5.840  0.2459 -0.3917 -0.1912
 3564POPC   PO480731  22.882  17.893   5.557 -0.1145  0.2407 -0.0578
 3564POPC   GL180732  22.660  18.081   5.794  0.1789  0.2770 -0.1090
 3564POPC   GL280733  22.693  18.011   6.048 -0.0212  0.1870 -0.2841
 3564POPC   C1A80734  22.217  17.928   5.951  0.1238  0.0003  0.1845
 3564POPC   D2A80735  21.907  17.708   6.132 -0.1505 -0.1542  0.0677
 3564POPC   C3A80736  21.552  17.542   5.922  0.1354  0.0408  0.0423
 3564POPC   C4A80737  21.127  17.475   6.072  0.1310  0.1082  0.0041
 3564POPC   C1B80738  22.844  18.212   6.480  0.1760  0.3087 -0.2414
 3564POPC   C2B80739  22.983  18.384   6.880 -0.2404  0.3543  0.0678
 3564POPC   C3B80740  23.233  18.575   7.270  0.3872 -0.1514  0.1158
 3564POPC   C4B80741  23.449  18.799   7.586 -0.4157  0.2715 -0.1686
 3565POPC   NC380742  18.938  24.032   5.116  0.0336 -0.0266  0.2133
 3565POPC   PO480743  19.164  24.247   4.899 -0.2369 -0.3014  0.0484
 3565POPC   GL180744  18.851  24.434   5.112  0.0578 -0.2282  0.0832
 3565POPC   GL280745  18.804  24.738   5.157 -0.1489  0.1571  0.2254
 3565POPC   C1A80746  18.571  24.277   5.515 -0.4139  0.1230  0.0034
 3565POPC   D2A80747  18.380  23.858   5.557  0.1656 -0.0767  0.1042
 3565POPC   C3A80748  18.030  23.699   5.808  0.3163  0.0502 -0.1495
 3565POPC   C4A80749  17.752  23.506   6.132  0.3034  0.2176  0.0157
 3565POPC   C1B80750  19.100  24.528   5.476 -0.3423  0.0097  0.3052
 3565POPC   C2B80751  19.068  24.441   5.961  0.2730  0.0492  0.0478
 3565POPC   C3B80752  19.072  24.383   6.393  0.0186  0.1402  0.2334
 3565POPC   C4B80753  18.948  24.197   6.802 -0.1626  0.2607  0.1163
 3566POPC   NC380754  27.703  27.701   5.406 -0.3736 -0.1852 -0.1646
 3566POPC   PO480755  27.775  27.342   5.575  0.0295 -0.2533 -0.1202
 3566POPC   GL180756  27.676  27.322   6.018 -0.1705 -0.2732  0.3703
 3566POPC   GL280757  27.745  27.590   5.998 -0.0562 -0.0895 -0.1191
 3566POPC   C1A80758  27.494  27.505   6.444  0.1960  0.3188  0.1130
 3566POPC   D2A80759  27.398  27.751   6.771  0.1264 -0.0158  0.3689
 3566POPC   C3A80760  27.025  27.940   7.024  0.0486 -0.0796  0.3425
 3566POPC   C4A80761  26.727  28.355   7.086 -0.0857  0.2125 -0.1085
 3566POPC   C1B80762  27.799  27.877   6.390  0.0765  0.0356  0.2587
 3566POPC   C2B80763  27.783  28.142   6.736  0.0729 -0.0153 -0.0740
 3566POPC   C3B80764  27.429  28.207   7.025  0.0900  0.0668  0.3414
 3566POPC   C4B80765  27.260  28.512   7.241 -0.1838 -0.0462  0.2733
 3567POPC   NC380766  19.481  32.508   3.836 -0.2605  0.0912  0.0904
 3567POPC   PO480767  19.741  32.241   3.697  0.2152  0.3783 -0.0161
 3567POPC   GL180768  19.788  32.111   4.063  0.0976 -0.1968 -0.4097
 3567POPC   GL280769  19.611  32.175   4.286  0.0454  0.1809 -0.0786
 3567POPC   C1A80770  19.915  31.830   4.461  0.1028 -0.0176 -0.0261
 3567POPC   D2A80771  19.994  31.706   4.938  0.1493 -0.1535  0.0153
 3567POPC   C3A80772  19.918  31.538   5.390  0.0981  0.0705 -0.0206
 3567POPC   C4A80773  20.154  31.324   5.699  0.1239 -0.1326  0.2866
 3567POPC   C1B80774  19.440  31.766   4.387  0.4402 -0.3469 -0.1760
 3567POPC   C2B80775  19.455  31.409   4.702 -0.2570 -0.1657 -0.6255
 3567POPC   C3B80776  19.590  31.219   5.081  0.1426  0.0156 -0.0006
 3567POPC   C4B80777  19.651  30.731   5.171 -0.1548  0.2435  0.1849
 3568POPC   NC380778  25.486  17.404   5.070 -0.1255  0.1039  0.0653
 3568POPC   PO480779  25.704  17.351   5.371  0.0534 -0.2329 -0.0701
 3568POPC   GL180780  25.630  17.297   5.799  0.0736  0.0717  0.1971
 3568POPC   GL280781  25.398  17.269   6.030  0.0612  0.0481 -0.0159
 3568POPC   C1A80782  25.964  17.350   6.116  0.4125  0.1781 -0.1694
 3568POPC   D2A80783  26.204  17.316   6.473 -0.2811  0.3195 -0.0264
 3568POPC   C3A80784  26.467  16.987   6.665  0.3339 -0.0907  0.2542
 3568POPC   C4A80785  26.399  16.609   6.904  0.0066 -0.1146 -0.3110
 3568POPC   C1B80786  25.675  16.962   6.303  0.1260 -0.2233 -0.0778
 3568POPC   C2B80787  25.646  16.718   6.714  0.0894  0.1121 -0.0262
 3568POPC   C3B80788  25.861  16.552   7.111 -0.0160 -0.1772 -0.0950
 3568POPC   C4B80789  25.816  16.239   7.450  0.2140 -0.3410 -0.0436
 3569POPC   NC380790  28.805  16.912   4.090 -0.0297 -0.0312  0.2166
 3569POPC   PO480791  28.516  16.708   4.289 -0.0605 -0.1584 -0.0275
 3569POPC   GL180792  28.704  16.799   4.621  0.3497  0.0122  0.2518
 3569POPC   GL280793  28.989  16.743   4.533 -0.2897 -0.0901 -0.1481
 3569POPC   C1A80794  28.529  16.872   5.055 -0.3162 -0.3386  0.0472
 3569POPC   D2A80795  28.162  16.945   5.343 -0.1152 -0.0541  0.2859
 3569POPC   C3A80796  28.122  16.591   5.649 -0.0710  0.1392  0.1105
 3569POPC   C4A80797  28.282  16.209   5.756 -0.2767  0.3025  0.3785
 3569POPC   C1B80798  28.959  17.090   4.834  0.0399  0.0182 -0.0448
 3569POPC   C2B80799  29.056  17.259   5.262  0.4077 -0.1421 -0.0449
 3569POPC   C3B80800  29.344  17.272   5.648  0.0133  0.3044  0.0100
 3569POPC   C4B80801  29.818  17.205   5.520 -0.1620 -0.0807 -0.3236
 3570POPC   NC380802  22.623  31.725   4.712  0.1024  0.2991  0.0220
 3570POPC   PO480803  22.378  31.493   4.432 -0.1772 -0.1119 -0.2080
 3570POPC   GL180804  22.061  31.374   4.664  0.5268  0.0616  0.1868
 3570POPC   GL280805  21.978  31.102   4.734 -0.0895 -0.5771 -0.0083
 3570POPC   C1A80806  21.691  31.489   4.963 -0.2910 -0.0771 -0.0721
 3570POPC   D2A80807  21.276  31.662   5.215  0.3024 -0.2956 -0.2038
 3570POPC   C3A80808  20.847  31.483   5.148 -0.3697 -0.0036 -0.3517
 3570POPC   C4A80809  20.369  31.449   5.208 -0.2010 -0.0681  0.0383
 3570POPC   C1B80810  21.981  31.000   5.208  0.2002  0.1117 -0.0309
 3570POPC   C2B80811  21.961  30.638   5.511  0.0939 -0.2260  0.1900
 3570POPC   C3B80812  21.771  30.424   5.862 -0.1238 -0.1723  0.0223
 3570POPC   C4B80813  21.532  30.161   6.120 -0.1007  0.0692 -0.2487
 3571POPC   NC380814  22.430  23.690   5.745 -0.0369 -0.0705 -0.1593
 3571POPC   PO480815  22.451  23.907   6.079 -0.2268 -0.2541 -0.0896
 3571POPC   GL180816  22.413  23.963   6.483 -0.2599 -0.2504  0.2771
 3571POPC   GL280817  22.349  24.243   6.417  0.0162 -0.0572 -0.3391
 3571POPC   C1A80818  22.211  24.049   6.893  0.1310  0.2410 -0.1925
 3571POPC   D2A80819  21.870  24.018   7.231  0.1229  0.1695 -0.0897
 3571POPC   C3A80820  21.623  24.459   7.217 -0.0072 -0.1881 -0.1417
 3571POPC   C4A80821  21.404  24.714   7.562  0.0754  0.0264  0.0005
 3571POPC   C1B80822  22.278  24.569   6.709 -0.3522 -0.2482 -0.0218
 3571POPC   C2B80823  21.955  24.870   6.912 -0.0386 -0.3147 -0.4118
 3571POPC   C3B80824  21.699  25.239   7.062 -0.0979 -0.0969 -0.1869
 3571POPC   C4B80825  21.384  25.404   7.385 -0.0355  0.3351 -0.1212
 3572POPC   NC380826  30.697  28.440   4.659 -0.1461 -0.1685  0.2414
 3572POPC   PO480827  30.557  28.083   4.556 -0.0700  0.0970 -0.2009
 3572POPC   GL180828  30.669  28.089   4.939 -0.1602  0.5071  0.0403
 3572POPC   GL280829  30.824  28.347   5.148 -0.0491 -0.1137 -0.1625
 3572POPC   C1A80830  30.409  28.197   5.308 -0.2580  0.0830 -0.0094
 3572POPC   D2A80831  30.205  28.554   5.585  0.0203  0.1533  0.1662
 3572POPC   C3A80832  30.233  28.714   6.009 -0.2434  0.1414 -0.2143
 3572POPC   C4A80833  30.125  28.825   6.500 -0.0362 -0.0495  0.1757
 3572POPC   C1B80834  31.179  28.418   5.368  0.2202 -0.4918 -0.0060
 3572POPC   C2B80835  31.299  28.274   5.810  0.1635  0.1934  0.0260
 3572POPC   C3B80836  31.408  28.038   6.161  0.0798  0.2274  0.0028
 3572POPC   C4B80837  31.057  27.842   6.463 -0.0696  0.1206  0.0015
 3573POPC   NC380838  29.777  23.536   5.923  0.0855 -0.0852  0.0545
 3573POPC   PO480839  29.762  23.190   6.121  0.0245  0.3139  0.0599
 3573POPC   GL180840  29.950  23.399   6.351 -0.2367 -0.0635 -0.3594
 3573POPC   GL280841  29.788  23.478   6.631  0.0747 -0.0212  0.1025
 3573POPC   C1A80842  30.307  23.383   6.675 -0.1972  0.1399 -0.0850
 3573POPC   D2A80843  30.422  23.247   7.111 -0.1297 -0.0387  0.2459
 3573POPC   C3A80844  30.816  23.388   7.138  0.2438 -0.1395 -0.2669
 3573POPC   C4A80845  31.170  23.638   7.340 -0.1735  0.2155 -0.0298
 3573POPC   C1B80846  29.988  23.524   7.015 -0.2177 -0.1422 -0.0866
 3573POPC   C2B80847  30.409  23.715   7.126  0.0517  0.0240  0.0791
 3573POPC   C3B80848  30.790  24.007   7.337 -0.0270  0.1204  0.1891
 3573POPC   C4B80849  31.087  23.997   7.672 -0.1874  0.2131  0.0759
 3574POPC   NC380850  18.385  30.234   3.969  0.0238  0.1118 -0.4513
 3574POPC   PO480851  18.519  29.881   3.931  0.3201  0.4223 -0.4178
 3574POPC   GL180852  18.882  29.869   4.118 -0.1976 -0.3611  0.6097
 3574POPC   GL280853  19.093  29.689   4.098 -0.1821  0.3337 -0.2294
 3574POPC   C1A80854  18.991  29.959   4.583  0.0187  0.1244  0.0225
 3574POPC   D2A80855  19.223  29.865   5.013 -0.1737  0.1067 -0.0241
 3574POPC   C3A80856  19.012  30.023   5.425 -0.2555  0.2441 -0.1924
 3574POPC   C4A80857  18.870  30.232   5.753  0.0913 -0.2475 -0.1306
 3574POPC   C1B80858  19.354  29.672   4.496  0.0066 -0.2080  0.0970
 3574POPC   C2B80859  19.414  29.408   4.917 -0.1180 -0.1854  0.1017
 3574POPC   C3B80860  19.509  29.170   5.289  0.1421  0.2011  0.0258
 3574POPC   C4B80861  19.796  28.888   5.595 -0.1716 -0.2170  0.1281
 3575POPC   NC380862  22.934  22.318   7.636 -0.2280 -0.0293 -0.2362
 3575POPC   PO480863  22.829  22.562   7.357  0.2912 -0.1289  0.1580
 3575POPC   GL180864  22.661  22.847   7.562 -0.0501 -0.2376 -0.0554
 3575POPC   GL280865  22.878  22.790   7.770  0.0236 -0.2559  0.1547
 3575POPC   C1A80866  22.716  23.273   7.717 -0.4146 -0.3137  0.1701
 3575POPC   D2A80867  22.835  23.461   8.157 -0.0801 -0.2662 -0.1687
 3575POPC   C3A80868  22.576  23.689   8.442  0.1553 -0.1817  0.0396
 3575POPC   C4A80869  22.381  23.760   8.799  0.1762 -0.0321 -0.1187
 3575POPC   C1B80870  22.970  22.627   8.182 -0.3527  0.0403  0.0099
 3575POPC   C2B80871  22.748  22.655   8.580  0.2658  0.2507 -0.2491
 3575POPC   C3B80872  22.621  22.597   9.018 -0.0893 -0.1389 -0.3655
 3575POPC   C4B80873  22.650  22.482   9.422 -0.4024 -0.1888  0.1801
 3576POPC   NC380874  29.100  26.586   5.063 -0.2987 -0.0463 -0.3464
 3576POPC   PO480875  29.336  26.439   5.315  0.0845 -0.1012  0.0404
 3576POPC   GL180876  29.215  26.551   5.739  0.1132 -0.4085 -0.0308
 3576POPC   GL280877  29.177  26.288   5.839  0.1060 -0.0859  0.1142
 3576POPC   C1A80878  29.289  26.896   6.036 -0.0190  0.1781  0.0246
 3576POPC   D2A80879  29.490  27.076   6.420  0.1222 -0.2681  0.1184
 3576POPC   C3A80880  29.180  27.468   6.582 -0.0335  0.1665 -0.2361
 3576POPC   C4A80881  28.920  27.629   6.932 -0.1439  0.2393 -0.1116
 3576POPC   C1B80882  29.038  26.532   6.193 -0.1038  0.0074  0.1918
 3576POPC   C2B80883  29.018  26.873   6.514 -0.0036  0.0769 -0.2560
 3576POPC   C3B80884  28.862  27.092   6.839  0.0163  0.0035  0.0259
 3576POPC   C4B80885  28.829  27.201   7.263 -0.0907 -0.0860 -0.0245
 3577POPC   NC380886  27.444  24.961   7.369  0.2265 -0.2765  0.1291
 3577POPC   PO480887  27.059  25.016   7.367  0.1874 -0.3067  0.0628
 3577POPC   GL180888  26.856  25.279   7.597 -0.0791 -0.2870 -0.1449
 3577POPC   GL280889  26.993  25.407   7.687  0.3700 -0.0378  0.2833
 3577POPC   C1A80890  26.581  25.399   7.973  0.3017 -0.3128 -0.3649
 3577POPC   D2A80891  26.274  25.699   8.118 -0.2362  0.1705 -0.2909
 3577POPC   C3A80892  26.173  25.708   8.599  0.0655 -0.2916 -0.2577
 3577POPC   C4A80893  26.264  25.525   9.026  0.2249 -0.0585  0.1870
 3577POPC   C1B80894  27.099  25.386   8.106 -0.2357 -0.0659  0.0948
 3577POPC   C2B80895  27.093  25.625   8.517  0.2994  0.0016 -0.0566
 3577POPC   C3B80896  27.383  25.956   8.695 -0.1995 -0.2018 -0.0211
 3577POPC   C4B80897  27.803  26.060   8.748 -0.0582 -0.2450 -0.4405
 3578POPC   NC380898  23.019  29.691   4.680  0.1769 -0.1132  0.1826
 3578POPC   PO480899  23.007  30.051   4.494 -0.0707  0.3096 -0.1020
 3578POPC   GL180900  23.100  30.069   4.926  0.1072  0.2452  0.3159
 3578POPC   GL280901  23.160  30.284   4.999 -0.1217  0.1960  0.1937
 3578POPC   C1A80902  23.109  29.940   5.406  0.1382 -0.1789 -0.1527
 3578POPC   D2A80903  23.353  29.914   5.821 -0.3172 -0.1221 -0.0627
 3578POPC   C3A80904  23.316  29.528   6.085 -0.0988  0.3784  0.0608
 3578POPC   C4A80905  23.153  29.195   6.358  0.1878  0.0460 -0.1212
 3578POPC   C1B80906  23.025  30.407   5.410 -0.0044 -0.2425  0.2560
 3578POPC   C2B80907  22.913  30.305   5.865  0.0272  0.0763 -0.0995
 3578POPC   C3B80908  22.614  30.147   6.240  0.1558  0.0774 -0.2081
 3578POPC   C4B80909  22.583  29.796   6.584 -0.2649 -0.1216  0.0555
 3579POPC   NC380910  21.327  20.895   5.408 -0.1124 -0.0632 -0.2641
 3579POPC   PO480911  20.924  21.009   5.295  0.1313  0.0113  0.1778
 3579POPC   GL180912  21.073  21.141   5.707 -0.1586 -0.0993 -0.1440
 3579POPC   GL280913  20.878  21.278   5.874  0.0651  0.0287  0.1044
 3579POPC   C1A80914  21.070  20.964   6.144 -0.0075  0.2197 -0.0072
 3579POPC   D2A80915  20.870  20.815   6.494  0.1705  0.1084  0.2659
 3579POPC   C3A80916  20.699  20.860   6.941 -0.0935 -0.0114  0.1862
 3579POPC   C4A80917  20.734  20.787   7.401  0.2021  0.1893  0.0703
 3579POPC   C1B80918  20.511  21.063   6.104  0.1032 -0.1531 -0.1208
 3579POPC   C2B80919  20.308  20.899   6.457 -0.1808  0.0034 -0.0818
 3579POPC   C3B80920  20.141  20.814   6.895 -0.1998  0.0661  0.2757
 3579POPC   C4B80921  20.267  20.815   7.318  0.0400  0.1196  0.1683
 3580POPC   NC380922  30.552  24.520   5.678  0.2356 -0.0187 -0.0386
 3580POPC   PO480923  30.385  24.181   5.785 -0.0107  0.1177 -0.0382
 3580POPC   GL180924  30.669  24.267   6.071  0.1199  0.1461 -0.0828
 3580POPC   GL280925  30.801  24.083   6.294 -0.1480 -0.1306  0.0068
 3580POPC   C1A80926  30.738  24.510   6.486 -0.2863 -0.0218  0.1081
 3580POPC   D2A80927  30.418  24.572   6.678 -0.1238 -0.0796 -0.0964
 3580POPC   C3A80928  30.497  24.661   7.141  0.0359  0.1488  0.5498
 3580POPC   C4A80929  30.562  24.872   7.573 -0.0311 -0.1330  0.1136
 3580POPC   C1B80930  31.148  24.163   6.564  0.0458 -0.2474 -0.2512
 3580POPC   C2B80931  31.518  24.365   6.788 -0.1330 -0.2132 -0.0117
 3580POPC   C3B80932  31.741  24.672   6.939 -0.0292 -0.2404  0.1559
 3580POPC   C4B80933  31.985  24.905   6.602 -0.0448  0.1807 -0.0754
 3581POPC   NC380934  22.858  29.322   4.378 -0.0110 -0.1585  0.0591
 3581POPC   PO480935  22.490  29.408   4.386 -0.0728  0.1812  0.0940
 3581POPC   GL180936  22.368  29.390   4.795 -0.3906  0.2261 -0.2028
 3581POPC   GL280937  22.638  29.255   4.813  0.1909  0.0187  0.0476
 3581POPC   C1A80938  22.106  29.666   5.013 -0.0347  0.0560 -0.1594
 3581POPC   D2A80939  22.008  30.066   5.313 -0.1046  0.1121 -0.0687
 3581POPC   C3A80940  21.685  29.930   5.666  0.1244  0.3134 -0.2760
 3581POPC   C4A80941  21.613  29.637   6.043 -0.1399  0.1433  0.0323
 3581POPC   C1B80942  22.482  29.256   5.269 -0.0284 -0.2020 -0.2502
 3581POPC   C2B80943  22.379  29.061   5.676  0.0973  0.0654 -0.2851
 3581POPC   C3B80944  22.258  28.807   6.027 -0.1247 -0.1446 -0.2278
 3581POPC   C4B80945  22.135  28.492   6.347  0.3010 -0.2059 -0.3647
 3582POPC   NC380946  27.164  21.425   9.523 -0.0638 -0.0908 -0.0518
 3582POPC   PO480947  27.002  21.409   9.146 -0.0217  0.3130 -0.1074
 3582POPC   GL180948  27.397  21.377   9.136 -0.0565  0.0745  0.3235
 3582POPC   GL280949  27.638  21.376   8.924 -0.0254 -0.1402  0.0063
 3582POPC   C1A80950  27.741  21.286   9.425  0.0133  0.0635 -0.1732
 3582POPC   D2A80951  28.178  21.067   9.440  0.1122 -0.0950 -0.0909
 3582POPC   C3A80952  28.468  21.184   9.777 -0.2205  0.0180  0.0576
 3582POPC   C4A80953  28.903  21.185   9.923 -0.3276 -0.1276 -0.1523
 3582POPC   C1B80954  28.070  21.186   8.916  0.3449  0.0022 -0.0634
 3582POPC   C2B80955  28.484  21.030   9.063 -0.0625 -0.1315  0.0305
 3582POPC   C3B80956  28.892  21.038   8.914 -0.1795  0.0306 -0.2499
 3582POPC   C4B80957  29.249  20.774   8.904 -0.0678  0.1536 -0.0722
 3583POPC   NC380958  27.321  22.152  11.027  0.0309  0.0706 -0.0521
 3583POPC   PO480959  27.177  22.009  10.704 -0.4252  0.0800  0.0253
 3583POPC   GL180960  27.645  21.907  10.813  0.1509 -0.2873  0.1195
 3583POPC   GL280961  27.736  21.884  11.082  0.0272 -0.1027 -0.0445
 3583POPC   C1A80962  27.733  21.520  10.749 -0.0117 -0.1207 -0.1835
 3583POPC   D2A80963  27.850  21.080  10.858 -0.0790  0.0119  0.2582
 3583POPC   C3A80964  27.741  20.803  10.499 -0.3506  0.1273 -0.0767
 3583POPC   C4A80965  27.686  20.739  10.035  0.0941 -0.1081  0.0527
 3583POPC   C1B80966  28.015  21.478  11.132 -0.1534 -0.2206 -0.1278
 3583POPC   C2B80967  28.287  21.129  11.280 -0.1554 -0.2988  0.2520
 3583POPC   C3B80968  28.611  20.787  11.333 -0.0420 -0.1788  0.2094
 3583POPC   C4B80969  28.874  20.510  11.073  0.1192  0.0067 -0.2141
 3584POPC   NC380970  25.350  30.305   4.925 -0.2994  0.0923 -0.0800
 3584POPC   PO480971  25.639  30.486   4.831  0.0488 -0.0201 -0.2756
 3584POPC   GL180972  25.880  30.532   5.067 -0.5186  0.3087  0.0212
 3584POPC   GL280973  26.028  30.216   5.059  0.2819 -0.1377  0.2511
 3584POPC   C1A80974  25.863  30.762   5.496 -0.1315 -0.0273  0.0893
 3584POPC   D2A80975  26.118  30.816   5.838  0.1758  0.1340  0.1264
 3584POPC   C3A80976  25.853  30.876   6.230  0.0081  0.0039  0.3897
 3584POPC   C4A80977  25.605  30.665   6.577 -0.0109 -0.1286 -0.0457
 3584POPC   C1B80978  26.141  30.332   5.474  0.0792  0.3002  0.1708
 3584POPC   C2B80979  26.311  30.224   5.883 -0.0013  0.2288  0.3581
 3584POPC   C3B80980  26.480  30.268   6.289 -0.3439 -0.2860  0.0510
 3584POPC   C4B80981  26.481  30.319   6.754  0.2800  0.3590  0.1580
 3585POPC   NC380982  22.858  23.651   6.184  0.1076 -0.0687 -0.4462
 3585POPC   PO480983  23.189  23.618   6.417  0.1397 -0.1604  0.2176
 3585POPC   GL180984  22.830  23.761   6.649 -0.1211 -0.1695 -0.1972
 3585POPC   GL280985  22.841  23.609   6.830  0.1761  0.3543  0.1767
 3585POPC   C1A80986  22.731  24.166   6.842  0.2973 -0.0409  0.0254
 3585POPC   D2A80987  22.841  24.428   7.236 -0.0154 -0.2307 -0.0728
 3585POPC   C3A80988  22.529  24.574   7.502  0.0421  0.1508 -0.0797
 3585POPC   C4A80989  22.316  24.634   7.880 -0.2189  0.1536  0.1106
 3585POPC   C1B80990  22.503  23.693   7.115  0.0414  0.1458  0.3688
 3585POPC   C2B80991  22.377  24.034   7.465  0.0175 -0.3238  0.1433
 3585POPC   C3B80992  22.066  24.332   7.609 -0.1678  0.0816 -0.2947
 3585POPC   C4B80993  21.731  24.529   7.875  0.0082 -0.1052 -0.5985
 3586POPC   NC380994  24.949  25.268   6.307 -0.1565 -0.0120 -0.2041
 3586POPC   PO480995  24.770  25.436   6.607 -0.2130  0.1307  0.1161
 3586POPC   GL180996  24.646  25.555   7.045 -0.0775  0.0503  0.2032
 3586POPC   GL280997  24.364  25.568   7.037  0.2615  0.0282 -0.0717
 3586POPC   C1A80998  24.875  25.911   7.291  0.3040  0.1169 -0.2516
 3586POPC   D2A80999  24.815  26.130   7.683 -0.0334  0.0678  0.0027
 3586POPC   C3A81000  24.758  25.996   8.101  0.0918 -0.0967  0.2277
 3586POPC   C4A81001  24.872  25.806   8.530  0.2970  0.1917  0.0303
 3586POPC   C1B81002  24.367  25.661   7.507 -0.1474  0.4479  0.0137
 3586POPC   C2B81003  24.200  25.758   7.929  0.0105  0.2603 -0.1834
 3586POPC   C3B81004  23.992  25.585   8.334  0.0160 -0.2802  0.0396
 3586POPC   C4B81005  23.716  25.852   8.628  0.0868 -0.0784 -0.2784
 3587POPC   NC381006  28.357  27.796   5.156 -0.2724 -0.0605  0.1429
 3587POPC   PO481007  28.125  27.464   5.085 -0.0047  0.2559 -0.2189
 3587POPC   GL181008  28.180  27.546   5.442 -0.1288 -0.0864  0.2772
 3587POPC   GL281009  28.120  27.804   5.637  0.1674  0.1219  0.1167
 3587POPC   C1A81010  28.361  27.467   5.837  0.0500  0.2192 -0.1214
 3587POPC   D2A81011  28.637  27.532   6.160 -0.4065  0.1713  0.1970
 3587POPC   C3A81012  28.748  27.821   6.511 -0.2341  0.0599  0.2392
 3587POPC   C4A81013  28.747  28.114   6.871  0.3637  0.0282 -0.1009
 3587POPC   C1B81014  27.823  28.050   5.876  0.2032  0.0003 -0.0105
 3587POPC   C2B81015  27.791  28.376   6.181  0.1823  0.0077 -0.2770
 3587POPC   C3B81016  27.502  28.536   6.443 -0.0981 -0.0194  0.1208
 3587POPC   C4B81017  27.487  28.787   6.823  0.5413 -0.2159  0.2777
 3588POPC   NC381018  27.576  28.988   4.922 -0.1239  0.0848 -0.0759
 3588POPC   PO481019  27.936  28.904   4.852  0.1876 -0.0675 -0.0394
 3588POPC   GL181020  28.048  29.008   5.169  0.1568 -0.2100  0.1065
 3588POPC   GL281021  28.358  28.838   5.148  0.0711 -0.1440 -0.1169
 3588POPC   C1A81022  28.250  29.158   5.541 -0.1887  0.3325 -0.0083
 3588POPC   D2A81023  28.384  29.322   5.934  0.0835  0.3000 -0.1341
 3588POPC   C3A81024  28.169  29.371   6.341  0.2405  0.1261 -0.4913
 3588POPC   C4A81025  27.930  29.757   6.519  0.2263  0.1061 -0.2129
 3588POPC   C1B81026  28.710  28.933   5.434  0.1695 -0.2015  0.1375
 3588POPC   C2B81027  28.884  29.191   5.790  0.5197  0.1108  0.0766
 3588POPC   C3B81028  28.838  29.518   6.097  0.0084  0.0609  0.1491
 3588POPC   C4B81029  28.939  29.902   6.329 -0.1854 -0.0743  0.2400
 3589POPC   NC381030  27.546  21.980  12.525 -0.0186 -0.0785 -0.1848
 3589POPC   PO481031  27.280  21.715  12.626  0.0122 -0.0045 -0.1340
 3589POPC   GL181032  27.240  21.404  12.365  0.1547  0.0645  0.4231
 3589POPC   GL281033  27.570  21.488  12.264 -0.0122 -0.3372  0.3354
 3589POPC   C1A81034  27.419  20.949  12.359 -0.0635 -0.1218  0.2043
 3589POPC   D2A81035  27.478  20.481  12.324  0.0927 -0.1702  0.0037
 3589POPC   C3A81036  27.349  20.328  11.929 -0.0105 -0.2619  0.0631
 3589POPC   C4A81037  27.038  20.369  11.604  0.2820  0.1435  0.1109
 3589POPC   C1B81038  27.955  21.615  12.529  0.1335  0.0345 -0.0929
 3589POPC   C2B81039  28.293  21.475  12.802  0.1808 -0.0944 -0.2970
 3589POPC   C3B81040  28.731  21.352  12.740  0.2212  0.2481 -0.1817
 3589POPC   C4B81041  29.184  21.380  12.728 -0.4333 -0.3162  0.1973
 3590POPC   NC381042  32.631  23.734   5.274  0.0121 -0.0560  0.0305
 3590POPC   PO481043  32.665  23.390   5.108  0.0980  0.2188  0.1429
 3590POPC   GL181044  32.673  23.054   5.354  0.0998 -0.0960 -0.1120
 3590POPC   GL281045  32.962  23.174   5.525  0.0398 -0.1960  0.0861
 3590POPC   C1A81046  32.499  22.826   5.728 -0.0318  0.2084 -0.0357
 3590POPC   D2A81047  32.364  22.666   6.137 -0.2562 -0.0330  0.2675
 3590POPC   C3A81048  32.205  22.751   6.552  0.1298 -0.0941 -0.1240
 3590POPC   C4A81049  32.144  22.630   6.970 -0.1660 -0.2052  0.1388
 3590POPC   C1B81050  33.239  23.337   5.876 -0.4301 -0.2614  0.3561
 3590POPC   C2B81051  33.088  23.377   6.371 -0.2461  0.0926  0.2247
 3590POPC   C3B81052  32.960  23.264   6.768 -0.0943  0.0049  0.2548
 3590POPC   C4B81053  32.710  23.304   7.188  0.2759 -0.0197 -0.1946
 3591POPC   NC381054  21.532  28.736   4.011 -0.1594 -0.1412  0.0751
 3591POPC   PO481055  21.912  28.730   4.093 -0.0274 -0.3245 -0.2224
 3591POPC   GL181056  21.883  28.827   4.403  0.0595  0.4194 -0.2526
 3591POPC   GL281057  22.122  29.068   4.546  0.1424 -0.1815  0.0568
 3591POPC   C1A81058  22.041  28.652   4.817  0.0057 -0.1822  0.1492
 3591POPC   D2A81059  22.141  28.232   4.903 -0.2120 -0.2234 -0.0732
 3591POPC   C3A81060  21.975  28.167   5.339 -0.1004 -0.0162 -0.0838
 3591POPC   C4A81061  21.593  27.995   5.571  0.0028 -0.0419 -0.2137
 3591POPC   C1B81062  22.090  29.161   4.987  0.4193  0.1604 -0.1959
 3591POPC   C2B81063  22.015  29.339   5.385  0.3116 -0.2758 -0.0837
 3591POPC   C3B81064  22.095  29.622   5.713  0.1787 -0.0322 -0.0639
 3591POPC   C4B81065  22.248  29.998   5.822 -0.4757  0.1282  0.1934
 3592POPC   NC381066  22.715  20.240   6.300  0.2845  0.1087  0.0747
 3592POPC   PO481067  22.384  20.328   6.081  0.1038 -0.4110  0.1854
 3592POPC   GL181068  22.161  19.949   6.102 -0.2240 -0.2282  0.2752
 3592POPC   GL281069  22.048  20.024   6.364 -0.1945  0.2505  0.0165
 3592POPC   C1A81070  22.076  19.542   6.287 -0.0333  0.1731  0.1527
 3592POPC   D2A81071  21.772  19.242   6.493 -0.0473  0.0440  0.1135
 3592POPC   C3A81072  21.590  19.206   6.910  0.1542 -0.1075 -0.1958
 3592POPC   C4A81073  21.481  19.544   7.184 -0.0583  0.1364  0.2042
 3592POPC   C1B81074  22.129  19.780   6.777  0.0482  0.0484  0.1071
 3592POPC   C2B81075  21.981  19.427   7.061 -0.0336 -0.2197  0.3659
 3592POPC   C3B81076  21.789  19.153   7.358  0.1033  0.2253 -0.2856
 3592POPC   C4B81077  21.389  19.119   7.573 -0.2354  0.0595  0.0829
 3593POPC   NC381078  28.617  25.428   6.402 -0.0788  0.0652 -0.1050
 3593POPC   PO481079  28.865  25.468   6.053  0.1297  0.2096 -0.0036
 3593POPC   GL181080  29.072  25.421   6.401 -0.1848 -0.1420 -0.1054
 3593POPC   GL281081  29.346  25.500   6.495  0.2086 -0.2883 -0.0272
 3593POPC   C1A81082  28.964  25.791   6.671 -0.2317 -0.1952 -0.2575
 3593POPC   D2A81083  29.179  26.245   6.676  0.1689 -0.2230 -0.1415
 3593POPC   C3A81084  29.069  26.584   6.968 -0.1014 -0.0013 -0.1451
 3593POPC   C4A81085  29.118  26.842   7.414 -0.0033  0.0188  0.1560
 3593POPC   C1B81086  29.751  25.266   6.714 -0.1656  0.0079 -0.5403
 3593POPC   C2B81087  30.015  25.417   7.084 -0.0657 -0.2195  0.1848
 3593POPC   C3B81088  30.159  25.549   7.475 -0.2726 -0.0830 -0.0006
 3593POPC   C4B81089  30.017  25.779   7.844  0.0844  0.0638 -0.0686
 3594POPC   NC381090  27.844  20.959   6.940 -0.1823 -0.1202 -0.0688
 3594POPC   PO481091  27.547  21.133   7.169 -0.1582 -0.1180  0.2302
 3594POPC   GL181092  27.571  20.917   7.360  0.0502 -0.0854  0.0551
 3594POPC   GL281093  27.403  20.817   7.625  0.2134 -0.1524 -0.3136
 3594POPC   C1A81094  27.731  20.528   7.191  0.2781  0.1752  0.0329
 3594POPC   D2A81095  27.616  20.139   6.938 -0.0705 -0.0815 -0.1039
 3594POPC   C3A81096  27.863  19.758   6.945  0.0179  0.0438  0.0672
 3594POPC   C4A81097  28.007  19.390   7.072 -0.1879  0.0785  0.1652
 3594POPC   C1B81098  27.531  20.464   7.901  0.2896  0.2052  0.2631
 3594POPC   C2B81099  27.801  20.143   8.087 -0.1858  0.4628 -0.0090
 3594POPC   C3B81100  27.693  19.838   8.367  0.1538  0.3038 -0.4289
 3594POPC   C4B81101  27.423  19.555   8.703 -0.0074 -0.4099 -0.1512
 3595POPC   NC381102  23.858  30.401   4.937  0.0878 -0.1791  0.1843
 3595POPC   PO481103  24.246  30.405   4.799 -0.1424 -0.1889  0.1037
 3595POPC   GL181104  24.403  30.303   5.101 -0.2360  0.1893 -0.2750
 3595POPC   GL281105  24.300  30.057   5.311  0.2621 -0.0144  0.1535
 3595POPC   C1A81106  24.087  30.470   5.407 -0.2244  0.1539  0.3152
 3595POPC   D2A81107  23.900  30.640   5.750  0.2419  0.0558  0.0469
 3595POPC   C3A81108  23.505  30.912   5.748 -0.1439  0.0959  0.2896
 3595POPC   C4A81109  23.338  31.368   5.812 -0.1880 -0.0213 -0.0695
 3595POPC   C1B81110  24.334  30.199   5.739 -0.2212 -0.0112 -0.1861
 3595POPC   C2B81111  24.495  29.953   6.098  0.2607  0.0341 -0.0557
 3595POPC   C3B81112  24.594  29.744   6.552 -0.0308 -0.0094  0.1256
 3595POPC   C4B81113  24.924  29.454   6.768  0.0088  0.3264  0.1920
 3596POPC   NC381114  31.455  24.627   5.540  0.1095  0.0997 -0.2210
 3596POPC   PO481115  31.444  24.240   5.615 -0.0726  0.1056 -0.1572
 3596POPC   GL181116  31.542  24.434   5.963 -0.0444  0.2784  0.3577
 3596POPC   GL281117  31.378  24.246   6.161 -0.1240  0.3244 -0.2763
 3596POPC   C1A81118  31.780  24.468   6.343 -0.4456 -0.1596 -0.1988
 3596POPC   D2A81119  32.206  24.423   6.509  0.2063 -0.3993  0.0555
 3596POPC   C3A81120  32.379  24.651   6.831 -0.2541  0.0559 -0.1632
 3596POPC   C4A81121  32.600  24.574   7.293 -0.1191  0.2016  0.0829
 3596POPC   C1B81122  31.351  24.672   6.284  0.0308  0.0689  0.0762
 3596POPC   C2B81123  31.217  24.892   6.686  0.3422  0.0382 -0.1502
 3596POPC   C3B81124  31.105  25.291   6.888  0.1170  0.3408  0.1445
 3596POPC   C4B81125  30.984  25.577   7.253 -0.2866 -0.1147  0.2508
 3597POPC   NC381126  20.909  24.354   5.155  0.2335 -0.0094  0.0478
 3597POPC   PO481127  20.617  24.542   5.014 -0.0218  0.0429 -0.2326
 3597POPC   GL181128  20.368  24.397   5.305  0.2040 -0.6488 -0.3271
 3597POPC   GL281129  20.484  24.498   5.593  0.1282  0.1306  0.0520
 3597POPC   C1A81130  20.215  24.088   5.633 -0.3454  0.2377 -0.0043
 3597POPC   D2A81131  19.881  23.727   5.661 -0.0592 -0.3564 -0.2168
 3597POPC   C3A81132  19.580  23.610   6.020  0.1131  0.1083 -0.1458
 3597POPC   C4A81133  19.329  23.383   6.350  0.2138  0.1239  0.1075
 3597POPC   C1B81134  20.436  24.320   5.998 -0.1327 -0.0516 -0.0407
 3597POPC   C2B81135  20.242  24.201   6.388 -0.0689 -0.3669 -0.1753
 3597POPC   C3B81136  19.858  24.291   6.692 -0.0761 -0.2102  0.1839
 3597POPC   C4B81137  19.531  24.031   6.822 -0.0441 -0.3904 -0.3579
 3598POPC   NC381138  31.262  18.786   4.425 -0.0161 -0.2652 -0.2201
 3598POPC   PO481139  31.542  18.509   4.480  0.1354  0.1640  0.4068
 3598POPC   GL181140  31.664  18.359   4.801  0.2495 -0.0944 -0.1612
 3598POPC   GL281141  31.811  18.176   4.789  0.1130  0.2762  0.0239
 3598POPC   C1A81142  31.807  18.553   5.194 -0.2978 -0.1285 -0.0707
 3598POPC   D2A81143  31.868  18.823   5.606  0.1112 -0.0637  0.0828
 3598POPC   C3A81144  32.258  18.864   5.887  0.1637  0.2049 -0.0447
 3598POPC   C4A81145  32.722  18.917   5.889 -0.1197 -0.2379 -0.0324
 3598POPC   C1B81146  32.019  18.067   5.228  0.0699 -0.1405 -0.0452
 3598POPC   C2B81147  31.959  18.085   5.639  0.2124  0.0266 -0.1092
 3598POPC   C3B81148  31.846  18.017   6.082  0.2412  0.1322  0.1023
 3598POPC   C4B81149  31.669  17.687   6.335  0.0703  0.1530 -0.2492
 3599POPC   NC381150  30.901  20.271   5.202  0.2389 -0.0451 -0.1427
 3599POPC   PO481151  30.981  20.096   5.518 -0.0344  0.0319  0.1699
 3599POPC   GL181152  30.841  19.862   5.722  0.4672 -0.3582  0.1759
 3599POPC   GL281153  31.114  19.789   5.876  0.1239 -0.3618 -0.4066
 3599POPC   C1A81154  30.684  19.637   6.076 -0.0520  0.1963  0.2703
 3599POPC   D2A81155  30.474  19.398   6.496 -0.1377 -0.2057  0.5645
 3599POPC   C3A81156  30.838  19.163   6.568 -0.1935 -0.1256 -0.2458
 3599POPC   C4A81157  31.154  18.817   6.532 -0.0656 -0.1057  0.2466
 3599POPC   C1B81158  31.498  19.993   6.052 -0.0663 -0.0829 -0.3781
 3599POPC   C2B81159  31.856  20.230   6.277 -0.2241 -0.1207 -0.0090
 3599POPC   C3B81160  32.299  20.135   6.420  0.1408  0.1294 -0.1586
 3599POPC   C4B81161  32.601  20.236   6.743  0.0110  0.1297  0.1422
 3600POPC   NC381162  22.529  22.774   7.057  0.0235  0.0239 -0.2340
 3600POPC   PO481163  22.215  22.665   6.828  0.1066  0.0337 -0.2418
 3600POPC   GL181164  21.927  22.737   7.016  0.0629  0.1254 -0.1532
 3600POPC   GL281165  21.667  22.774   6.955 -0.0271 -0.2316 -0.1084
 3600POPC   C1A81166  21.712  22.576   7.420  0.4242  0.0479 -0.0663
 3600POPC   D2A81167  21.870  22.502   7.860 -0.2600  0.2723 -0.0950
 3600POPC   C3A81168  21.623  22.397   8.194  0.0967 -0.1355  0.0180
 3600POPC   C4A81169  21.576  22.079   8.557  0.1619 -0.1426 -0.2572
 3600POPC   C1B81170  21.211  22.855   7.212 -0.5272  0.1833 -0.1297
 3600POPC   C2B81171  20.976  22.845   7.624 -0.2291 -0.0926 -0.0990
 3600POPC   C3B81172  20.811  22.537   7.991 -0.1972 -0.0473  0.3570
 3600POPC   C4B81173  20.942  22.131   8.256  0.0910 -0.2860 -0.0430
 3601POPC   NC381174  17.407  26.976   4.585 -0.3265 -0.0519 -0.0086
 3601POPC   PO481175  17.158  26.795   4.726 -0.1042  0.1277 -0.1307
 3601POPC   GL181176  17.313  26.912   5.103 -0.0480  0.0837 -0.0489
 3601POPC   GL281177  17.294  27.184   5.125  0.2762 -0.0816 -0.0393
 3601POPC   C1A81178  17.115  26.681   5.466  0.0320  0.4622  0.2999
 3601POPC   D2A81179  17.039  26.360   5.770  0.2395 -0.2755  0.1555
 3601POPC   C3A81180  17.346  26.342   6.132  0.0632  0.1876 -0.2236
 3601POPC   C4A81181  17.692  26.342   6.414 -0.3276  0.1871  0.0056
 3601POPC   C1B81182  17.268  27.263   5.590  0.1076  0.0872 -0.3317
 3601POPC   C2B81183  17.372  27.085   6.002 -0.0643 -0.1148 -0.0994
 3601POPC   C3B81184  17.672  27.046   6.335 -0.0863 -0.1156 -0.0142
 3601POPC   C4B81185  17.540  27.012   6.784 -0.2907  0.1218 -0.1103
 3602POPC   NC381186  32.100  19.796   4.661  0.1504 -0.2388  0.1668
 3602POPC   PO481187  32.300  19.966   4.949  0.0963 -0.0983 -0.0576
 3602POPC   GL181188  32.363  19.634   5.214 -0.2784  0.2589 -0.2692
 3602POPC   GL281189  32.060  19.480   5.281  0.2288  0.3003  0.0133
 3602POPC   C1A81190  32.447  19.704   5.699 -0.2382  0.2504  0.2171
 3602POPC   D2A81191  32.684  19.765   6.095  0.2527  0.1951 -0.2047
 3602POPC   C3A81192  32.912  20.036   6.342  0.2236  0.0742  0.0202
 3602POPC   C4A81193  33.213  20.319   6.528  0.0780  0.2872 -0.0019
 3602POPC   C1B81194  31.922  19.297   5.688  0.2376 -0.0618  0.2743
 3602POPC   C2B81195  31.913  19.182   6.137 -0.4892 -0.0627 -0.1149
 3602POPC   C3B81196  32.038  19.275   6.559 -0.2271  0.1218  0.0154
 3602POPC   C4B81197  32.273  19.122   6.919 -0.1400 -0.2005 -0.0795
 3603POPC   NC381198  29.727  28.175   4.912 -0.0979 -0.1709  0.2909
 3603POPC   PO481199  29.457  28.329   4.665  0.0482 -0.2378  0.0166
 3603POPC   GL181200  29.515  28.593   4.981  0.0121  0.0478  0.1763
 3603POPC   GL281201  29.272  28.479   5.196 -0.1305  0.1052  0.1147
 3603POPC   C1A81202  29.506  28.993   5.125 -0.0901  0.0751  0.1388
 3603POPC   D2A81203  29.619  29.188   5.545  0.1978 -0.0245  0.0331
 3603POPC   C3A81204  30.101  29.106   5.617  0.0817  0.0158  0.1004
 3603POPC   C4A81205  30.538  28.996   5.674  0.0942 -0.1212 -0.0236
 3603POPC   C1B81206  29.239  28.796   5.496 -0.1852 -0.1356  0.0459
 3603POPC   C2B81207  29.258  28.920   5.941 -0.1006  0.1889  0.0146
 3603POPC   C3B81208  29.068  29.041   6.363  0.0454  0.0451  0.0709
 3603POPC   C4B81209  28.699  29.235   6.540 -0.0136 -0.0636 -0.1475
 3604POPC   NC381210  20.515   0.205   4.191 -0.0334 -0.0820  0.2622
 3604POPC   PO481211  20.781   0.334   4.482 -0.1152  0.4052  0.0642
 3604POPC   GL181212  20.762   0.081   4.804  0.0211 -0.2601 -0.1006
 3604POPC   GL281213  20.962  -0.034   5.013  0.1130  0.1721  0.2771
 3604POPC   C1A81214  20.545   0.263   5.167 -0.0198 -0.0010 -0.1830
 3604POPC   D2A81215  20.265   0.644   5.195  0.1629  0.0738 -0.2112
 3604POPC   C3A81216  20.276   0.814   5.635 -0.0354 -0.1443 -0.0571
 3604POPC   C4A81217  20.111   0.805   6.052  0.2507  0.5274 -0.1837
 3604POPC   C1B81218  20.862  -0.452   5.044  0.1604  0.1248 -0.0533
 3604POPC   C2B81219  21.027  -0.700   5.369 -0.0334  0.1043 -0.1121
 3604POPC   C3B81220  21.274  -0.609   5.714  0.3191 -0.1591  0.1324
 3604POPC   C4B81221  21.221  -0.495   6.140  0.0645 -0.1941 -0.1472
 3605POPC   NC381222  29.828  20.840   5.944 -0.0239  0.3189 -0.2526
 3605POPC   PO481223  30.136  20.752   5.701  0.5756 -0.2411 -0.1084
 3605POPC   GL181224  30.353  20.503   5.923  0.0340 -0.1233  0.1520
 3605POPC   GL281225  30.453  20.735   6.174  0.3220 -0.4113 -0.2722
 3605POPC   C1A81226  30.350  20.188   6.242  0.2518  0.1950  0.3851
 3605POPC   D2A81227  30.531  19.881   6.557  0.0050  0.0327 -0.1014
 3605POPC   C3A81228  30.814  19.684   6.876  0.0569 -0.3148 -0.2266
 3605POPC   C4A81229  30.892  19.573   7.321  0.0456  0.1122  0.4328
 3605POPC   C1B81230  30.749  20.509   6.376  0.1060 -0.0877  0.2314
 3605POPC   C2B81231  30.914  20.261   6.733 -0.1031 -0.1111 -0.1198
 3605POPC   C3B81232  30.973  20.057   7.137  0.2726  0.0264  0.0295
 3605POPC   C4B81233  31.264  19.874   7.482 -0.1117  0.0150 -0.0439
 3606POPC   NC381234  18.243  26.557   4.451 -0.0261  0.0295 -0.0837
 3606POPC   PO481235  17.975  26.320   4.259 -0.1737  0.1820  0.0748
 3606POPC   GL181236  17.826  26.464   4.527  0.0803 -0.0521  0.0140
 3606POPC   GL281237  17.600  26.499   4.659  0.0782  0.1265  0.0637
 3606POPC   C1A81238  18.049  26.607   4.923 -0.1477  0.0524  0.1161
 3606POPC   D2A81239  18.360  26.588   5.255  0.2280  0.1254  0.3189
 3606POPC   C3A81240  18.120  26.834   5.640 -0.1400 -0.2957  0.7730
 3606POPC   C4A81241  17.706  26.711   5.821  0.0663 -0.0556 -0.2981
 3606POPC   C1B81242  17.575  26.395   5.085  0.0590  0.0790  0.0551
 3606POPC   C2B81243  17.807  26.370   5.494  0.2010 -0.0711 -0.2311
 3606POPC   C3B81244  17.815  26.106   5.867  0.2020 -0.3955  0.3000
 3606POPC   C4B81245  17.948  25.922   6.281  0.0084  0.0185 -0.2515
 3607POPC   NC381246  30.002  24.942   5.941 -0.3048  0.0355 -0.0528
 3607POPC   PO481247  30.356  25.124   5.778  0.0534 -0.1696  0.3236
 3607POPC   GL181248  30.556  25.248   6.074  0.2947 -0.4426 -0.2588
 3607POPC   GL281249  30.529  25.300   6.409 -0.0236  0.0463  0.0813
 3607POPC   C1A81250  30.724  25.669   6.053 -0.3436 -0.0077  0.0661
 3607POPC   D2A81251  31.080  25.916   6.186  0.2216  0.3540 -0.0959
 3607POPC   C3A81252  31.270  26.261   6.460  0.2128  0.2067  0.2473
 3607POPC   C4A81253  31.397  26.275   6.920  0.1800  0.2069 -0.0565
 3607POPC   C1B81254  30.834  25.612   6.563 -0.0677 -0.3251  0.1339
 3607POPC   C2B81255  31.025  25.967   6.790  0.1879  0.0616 -0.0804
 3607POPC   C3B81256  31.034  26.125   7.218  0.1808 -0.0869 -0.2392
 3607POPC   C4B81257  30.973  26.268   7.675 -0.1618  0.2151 -0.0510
 3608POPC   NC381258  25.286  19.867   7.538  0.0476 -0.0387 -0.1103
 3608POPC   PO481259  25.006  19.948   7.701  0.2959  0.0324  0.0907
 3608POPC   GL181260  25.058  19.699   7.940 -0.0962  0.1527 -0.1925
 3608POPC   GL281261  25.294  19.648   8.028  0.0242 -0.1221 -0.0622
 3608POPC   C1A81262  24.876  19.614   8.328  0.0432  0.0634  0.2070
 3608POPC   D2A81263  24.805  19.635   8.749  0.0947  0.0427  0.0151
 3608POPC   C3A81264  24.411  19.420   8.767  0.0576 -0.1259 -0.0752
 3608POPC   C4A81265  24.061  19.205   8.953  0.1811  0.1750  0.0309
 3608POPC   C1B81266  25.515  19.238   8.115 -0.1239  0.2908  0.0638
 3608POPC   C2B81267  25.628  18.828   8.228  0.1443 -0.0303  0.1693
 3608POPC   C3B81268  25.894  18.463   8.358  0.0469  0.0193  0.1772
 3608POPC   C4B81269  26.240  18.141   8.450 -0.1972  0.4273  0.0178
 3609POPC   NC381270  19.125  23.375   5.086  0.1464  0.0337  0.3338
 3609POPC   PO481271  19.487  23.288   5.145  0.0746  0.2170 -0.2222
 3609POPC   GL181272  19.319  23.447   5.546 -0.1756 -0.0103  0.4231
 3609POPC   GL281273  19.157  23.680   5.458 -0.0460 -0.0208 -0.0630
 3609POPC   C1A81274  19.131  23.493   5.941  0.2716 -0.2926  0.0189
 3609POPC   D2A81275  18.845  23.531   6.304  0.2182 -0.2304  0.1882
 3609POPC   C3A81276  18.546  23.307   6.585  0.2008 -0.1446  0.0680
 3609POPC   C4A81277  18.317  23.329   6.967 -0.2353  0.2014  0.1336
 3609POPC   C1B81278  18.861  23.861   5.767  0.0262  0.1130 -0.1945
 3609POPC   C2B81279  18.782  24.026   6.219  0.1330  0.0975 -0.1258
 3609POPC   C3B81280  18.503  24.311   6.504 -0.0001 -0.4225  0.0688
 3609POPC   C4B81281  18.342  24.350   6.945  0.3656 -0.0775 -0.0203
 3610POPC   NC381282  22.297  19.743   5.672 -0.2202  0.0343  0.0181
 3610POPC   PO481283  22.296  19.360   5.592  0.0112 -0.0730  0.1963
 3610POPC   GL181284  22.397  19.390   6.016 -0.2936 -0.0863  0.1014
 3610POPC   GL281285  22.387  19.117   6.095 -0.1850  0.3971 -0.4835
 3610POPC   C1A81286  22.517  19.554   6.463 -0.0001  0.3609 -0.1935
 3610POPC   D2A81287  22.528  19.474   6.890 -0.0896 -0.0622  0.1687
 3610POPC   C3A81288  22.494  19.275   7.323 -0.2146 -0.1731 -0.0651
 3610POPC   C4A81289  22.502  18.811   7.446  0.0118  0.1112  0.3981
 3610POPC   C1B81290  22.317  19.132   6.559  0.3394  0.1275  0.0964
 3610POPC   C2B81291  22.234  18.995   6.965  0.0081 -0.1065 -0.1629
 3610POPC   C3B81292  21.999  18.686   7.216  0.0321  0.2088 -0.0859
 3610POPC   C4B81293  21.656  18.671   7.579 -0.0775  0.1410  0.0727
 3611POPC   NC381294  21.402  32.795   4.089  0.0162  0.1492  0.0410
 3611POPC   PO481295  21.691  32.923   4.333 -0.2871  0.3207  0.0201
 3611POPC   GL181296  21.664  32.840   4.745  0.5394  0.0668 -0.0718
 3611POPC   GL281297  21.934  32.842   4.971  0.6029 -0.0615  0.0921
 3611POPC   C1A81298  21.387  32.983   5.094 -0.1212 -0.2920 -0.0333
 3611POPC   D2A81299  21.422  33.028   5.540 -0.0692  0.0854  0.0445
 3611POPC   C3A81300  21.543  32.737   5.884  0.1940 -0.0086  0.0684
 3611POPC   C4A81301  21.620  32.690   6.340 -0.4486  0.0694  0.2107
 3611POPC   C1B81302  21.783  32.612   5.364  0.1751  0.0910  0.0164
 3611POPC   C2B81303  21.842  32.370   5.660 -0.0834 -0.5011 -0.0922
 3611POPC   C3B81304  21.740  32.271   6.090  0.2390 -0.2516 -0.1178
 3611POPC   C4B81305  21.698  32.169   6.541  0.1269  0.2401  0.1896
 3612POPC   NC381306  23.614  28.062   5.618 -0.0943  0.3070 -0.1835
 3612POPC   PO481307  23.566  27.686   5.505 -0.0886  0.2321  0.3560
 3612POPC   GL181308  23.617  27.642   5.991 -0.2738 -0.3853 -0.1536
 3612POPC   GL281309  23.545  27.392   5.982  0.1645  0.5011  0.1636
 3612POPC   C1A81310  23.322  27.671   6.370  0.0420 -0.2126 -0.1745
 3612POPC   D2A81311  23.166  27.850   6.751 -0.0511 -0.0417  0.2872
 3612POPC   C3A81312  22.716  27.842   6.907 -0.1469  0.2420  0.1979
 3612POPC   C4A81313  22.308  28.004   7.059 -0.0437  0.3221  0.3669
 3612POPC   C1B81314  23.465  27.142   6.325 -0.1532 -0.0983  0.1211
 3612POPC   C2B81315  23.237  27.108   6.671  0.0824  0.1032 -0.1066
 3612POPC   C3B81316  23.294  26.918   7.077  0.0564  0.1202  0.1795
 3612POPC   C4B81317  23.392  26.517   7.302  0.2826  0.0806  0.0242
 3613POPC   NC381318  25.608   0.435   5.709 -0.1381  0.1790 -0.2630
 3613POPC   PO481319  25.784   0.487   5.387 -0.0212  0.1880 -0.3190
 3613POPC   GL181320  26.083   0.710   5.616 -0.2209 -0.1162  0.0929
 3613POPC   GL281321  26.373   0.782   5.598 -0.2899 -0.0573 -0.2467
 3613POPC   C1A81322  26.179   0.595   6.018  0.0417 -0.3436 -0.3240
 3613POPC   D2A81323  26.131   0.598   6.470  0.2094  0.0786  0.0038
 3613POPC   C3A81324  26.379   0.627   6.836  0.0693 -0.2957  0.2093
 3613POPC   C4A81325  26.353   0.845   7.227  0.0428 -0.1109 -0.0473
 3613POPC   C1B81326  26.624   0.735   5.997  0.1166  0.1467  0.0807
 3613POPC   C2B81327  26.611   0.533   6.411 -0.2139  0.0567  0.0706
 3613POPC   C3B81328  26.831   0.235   6.694  0.2999 -0.0581 -0.1489
 3613POPC   C4B81329  26.912  -0.209   6.696 -0.1430  0.0791 -0.1677
 3614POPC   NC381330  20.375  19.860   4.853  0.0545 -0.2246 -0.1478
 3614POPC   PO481331  20.074  20.137   4.949 -0.3279 -0.1152 -0.1731
 3614POPC   GL181332  20.010  20.417   5.283  0.0466 -0.1477  0.0676
 3614POPC   GL281333  19.887  20.308   5.515  0.0423 -0.2645  0.1103
 3614POPC   C1A81334  20.273  20.570   5.638 -0.3031 -0.0330 -0.0175
 3614POPC   D2A81335  20.291  20.304   5.970 -0.1168 -0.0409  0.1556
 3614POPC   C3A81336  20.497  20.465   6.366 -0.0223  0.1107  0.3659
 3614POPC   C4A81337  20.486  20.403   6.847  0.1586  0.1176  0.2830
 3614POPC   C1B81338  19.712  20.326   5.925  0.0771 -0.0499  0.2303
 3614POPC   C2B81339  19.406  20.488   6.298 -0.2000  0.0288 -0.2405
 3614POPC   C3B81340  19.066  20.308   6.530 -0.1355  0.0768 -0.4269
 3614POPC   C4B81341  18.963  20.355   6.995 -0.4873 -0.0773 -0.0328
 3615POPC   NC381342  26.470  19.161   6.449 -0.1122  0.2309 -0.0060
 3615POPC   PO481343  26.495  19.521   6.589 -0.1930  0.1473 -0.0456
 3615POPC   GL181344  26.443  19.452   6.977 -0.0513  0.1235  0.0454
 3615POPC   GL281345  26.279  19.217   6.895 -0.1480 -0.0667 -0.0707
 3615POPC   C1A81346  26.590  19.150   7.298 -0.2762  0.0563  0.0747
 3615POPC   D2A81347  26.979  18.946   7.422  0.3657 -0.1685 -0.0778
 3615POPC   C3A81348  27.021  18.894   7.899  0.1878  0.0373 -0.2206
 3615POPC   C4A81349  26.890  19.076   8.298  0.0466 -0.2391  0.1893
 3615POPC   C1B81350  26.142  18.873   7.196  0.2669  0.0826 -0.2259
 3615POPC   C2B81351  26.030  18.626   7.569  0.0165 -0.2094 -0.0913
 3615POPC   C3B81352  26.032  18.234   7.778 -0.3235 -0.0977  0.1228
 3615POPC   C4B81353  26.064  17.736   7.833  0.0780  0.1246 -0.0666
 3616POPC   NC381354  15.764  22.405   4.847  0.0118 -0.2856 -0.1351
 3616POPC   PO481355  15.439  22.248   4.961 -0.2187  0.1885 -0.2349
 3616POPC   GL181356  15.421  22.176   5.338  0.0043  0.0502 -0.0102
 3616POPC   GL281357  15.657  22.341   5.402  0.1245  0.3585 -0.0833
 3616POPC   C1A81358  15.538  22.028   5.759 -0.0927 -0.0379  0.0751
 3616POPC   D2A81359  15.501  21.929   6.219 -0.1153  0.0780 -0.0980
 3616POPC   C3A81360  15.438  21.779   6.633  0.0864 -0.1449  0.0512
 3616POPC   C4A81361  15.538  21.801   7.116 -0.0261  0.1198 -0.0507
 3616POPC   C1B81362  15.807  22.459   5.783  0.1848 -0.2139 -0.1682
 3616POPC   C2B81363  16.034  22.395   6.193 -0.0735 -0.6010 -0.1304
 3616POPC   C3B81364  16.216  22.180   6.566  0.0360 -0.0647  0.0274
 3616POPC   C4B81365  16.321  22.066   7.015 -0.4805  0.0058 -0.0808
 3617POPC   NC381366  27.354  21.617   8.611 -0.0728 -0.0865  0.2285
 3617POPC   PO481367  27.164  21.275   8.702  0.2163  0.0856  0.1156
 3617POPC   GL181368  27.454  21.053   8.658 -0.2960  0.1270  0.3387
 3617POPC   GL281369  27.349  20.802   8.624 -0.0277 -0.0595  0.2067
 3617POPC   C1A81370  27.704  20.846   9.070 -0.0855  0.0417 -0.0396
 3617POPC   D2A81371  27.759  20.758   9.538 -0.0669  0.2522  0.2465
 3617POPC   C3A81372  28.107  20.590   9.727 -0.1359  0.0870  0.0398
 3617POPC   C4A81373  28.498  20.699  10.021 -0.0343  0.0170  0.2628
 3617POPC   C1B81374  27.339  20.509   9.028 -0.2835 -0.0301  0.0678
 3617POPC   C2B81375  27.356  20.345   9.455 -0.2418 -0.2372 -0.0373
 3617POPC   C3B81376  27.613  20.234   9.841 -0.0888 -0.1981  0.3379
 3617POPC   C4B81377  27.522  20.346  10.313 -0.2233  0.0316  0.0679
 3618POPC   NC381378  24.271  22.551   8.275 -0.0397  0.1524 -0.1017
 3618POPC   PO481379  24.208  22.902   8.199  0.0005 -0.0255  0.0016
 3618POPC   GL181380  24.102  22.980   8.496  0.0075 -0.0277  0.0216
 3618POPC   GL281381  23.971  23.235   8.593  0.0529 -0.0266  0.4369
 3618POPC   C1A81382  23.769  22.719   8.748 -0.3586  0.0288  0.2235
 3618POPC   D2A81383  23.481  22.706   9.092  0.2673  0.1482  0.3528
 3618POPC   C3A81384  23.054  22.839   9.322 -0.2242 -0.1088  0.1988
 3618POPC   C4A81385  22.636  23.012   9.507  0.2391  0.0653 -0.1427
 3618POPC   C1B81386  23.606  23.202   8.824  0.0659 -0.0132  0.0852
 3618POPC   C2B81387  23.173  23.121   8.912 -0.0907  0.3092 -0.0813
 3618POPC   C3B81388  22.744  23.070   9.054 -0.2142 -0.2075  0.1297
 3618POPC   C4B81389  22.343  23.260   8.858 -0.1109  0.0556  0.1449
 3619POPC   NC381390  31.000  30.298   3.951 -0.1772 -0.3109 -0.0893
 3619POPC   PO481391  31.217  30.112   4.198  0.0319  0.0058 -0.0308
 3619POPC   GL181392  31.334  30.241   4.578 -0.1478 -0.2773  0.0433
 3619POPC   GL281393  31.186  30.084   4.701  0.1405  0.2725  0.0618
 3619POPC   C1A81394  31.769  30.303   4.522  0.0852 -0.0679 -0.3927
 3619POPC   D2A81395  32.053  30.495   4.252 -0.1326  0.2441  0.2675
 3619POPC   C3A81396  32.208  30.066   4.394 -0.0891 -0.3783 -0.0693
 3619POPC   C4A81397  32.183  29.829   4.779  0.0053  0.2227  0.0560
 3619POPC   C1B81398  31.213  29.921   5.163 -0.0694 -0.0171 -0.1234
 3619POPC   C2B81399  31.450  29.792   5.496 -0.4217 -0.1306 -0.3210
 3619POPC   C3B81400  31.564  29.584   5.858 -0.0244  0.1393  0.1455
 3619POPC   C4B81401  31.583  29.482   6.311 -0.0280  0.0334  0.0459
 3620POPC   NC381402  25.477  27.971   5.812 -0.1703  0.1613 -0.1289
 3620POPC   PO481403  25.117  27.889   5.767 -0.1725 -0.3571  0.0005
 3620POPC   GL181404  25.104  28.143   6.101 -0.1398  0.1278  0.3472
 3620POPC   GL281405  25.302  28.400   6.120 -0.1927 -0.1104  0.1208
 3620POPC   C1A81406  25.062  28.123   6.542  0.0812  0.1596  0.1510
 3620POPC   D2A81407  25.206  28.072   6.956  0.0637 -0.0258  0.0280
 3620POPC   C3A81408  24.843  27.829   7.069 -0.0478 -0.2683  0.1439
 3620POPC   C4A81409  24.496  27.976   7.327  0.0578  0.0654  0.2090
 3620POPC   C1B81410  25.556  28.488   6.491 -0.1394  0.0264  0.2624
 3620POPC   C2B81411  25.639  28.724   6.900 -0.1839  0.0209 -0.4459
 3620POPC   C3B81412  25.585  28.920   7.340 -0.1733 -0.2121 -0.0747
 3620POPC   C4B81413  25.383  29.284   7.451  0.1607  0.0924  0.1921
 3621POPC   NC381414  16.777  26.679   4.327  0.0736  0.0345  0.0491
 3621POPC   PO481415  16.624  26.291   4.373  0.2658  0.3700 -0.2849
 3621POPC   GL181416  16.839  26.145   4.764 -0.2138  0.2833 -0.0475
 3621POPC   GL281417  16.837  25.892   4.803 -0.0067  0.0346 -0.0176
 3621POPC   C1A81418  16.796  26.065   5.267 -0.0961 -0.1215 -0.1218
 3621POPC   D2A81419  17.251  26.041   5.508 -0.2260 -0.0317  0.1250
 3621POPC   C3A81420  17.279  25.940   5.905 -0.4504  0.2127 -0.2092
 3621POPC   C4A81421  17.444  25.829   6.251 -0.2136 -0.1538 -0.1986
 3621POPC   C1B81422  17.236  25.973   4.976 -0.1120 -0.0701 -0.2033
 3621POPC   C2B81423  17.665  25.943   5.158  0.3153 -0.1243 -0.1962
 3621POPC   C3B81424  17.917  25.812   5.509 -0.1447 -0.0987 -0.1593
 3621POPC   C4B81425  17.700  25.638   5.872  0.1282 -0.3072  0.0991
 3622POPC   NC381426  21.368  21.823   6.421 -0.3566  0.2282  0.0280
 3622POPC   PO481427  21.356  22.078   6.089  0.0560  0.1905 -0.0480
 3622POPC   GL181428  21.072  22.239   6.334 -0.0331  0.0385 -0.1367
 3622POPC   GL281429  20.936  22.497   6.342  0.1620  0.0166 -0.1968
 3622POPC   C1A81430  20.918  22.185   6.756 -0.3180 -0.1082  0.0335
 3622POPC   D2A81431  21.239  22.420   7.084 -0.2865 -0.0970 -0.0764
 3622POPC   C3A81432  21.215  22.295   7.521 -0.1484  0.1888 -0.2081
 3622POPC   C4A81433  21.329  22.602   7.870 -0.0688  0.3750  0.4010
 3622POPC   C1B81434  20.835  22.682   6.747 -0.2548 -0.1194  0.2133
 3622POPC   C2B81435  20.764  22.520   7.206  0.0643  0.3864 -0.1798
 3622POPC   C3B81436  20.569  22.303   7.554  0.0278  0.1225 -0.0414
 3622POPC   C4B81437  20.447  22.179   7.985 -0.1603 -0.1735  0.1165
 3623POPC   NC381438  25.622  22.698  11.363  0.0764 -0.3766  0.1679
 3623POPC   PO481439  25.386  22.559  11.656 -0.0184 -0.2859 -0.0813
 3623POPC   GL181440  25.026  22.470  11.852 -0.0250 -0.0371  0.1766
 3623POPC   GL281441  24.918  22.720  11.942  0.0268  0.1013  0.3898
 3623POPC   C1A81442  24.689  22.555  11.589  0.0335 -0.0979 -0.1750
 3623POPC   D2A81443  24.602  22.915  11.265  0.1003 -0.1068 -0.3603
 3623POPC   C3A81444  24.206  22.948  11.012  0.2536 -0.1892 -0.0456
 3623POPC   C4A81445  23.883  23.021  10.682  0.0275  0.1453  0.0567
 3623POPC   C1B81446  24.677  23.105  11.820  0.3059  0.1140  0.0850
 3623POPC   C2B81447  24.202  23.047  11.599  0.1159 -0.1224  0.3818
 3623POPC   C3B81448  23.786  22.858  11.462  0.1025 -0.0887 -0.2129
 3623POPC   C4B81449  23.600  22.768  11.071 -0.0335 -0.1110 -0.1139
 3624POPC   NC381450  31.900  27.879   4.582  0.0051  0.0647  0.1656
 3624POPC   PO481451  31.693  27.510   4.548 -0.2297 -0.1636 -0.0381
 3624POPC   GL181452  31.845  27.532   4.896  0.1456  0.2888 -0.1947
 3624POPC   GL281453  31.875  27.804   5.106 -0.0671  0.2484 -0.1411
 3624POPC   C1A81454  31.487  27.458   5.204  0.0264 -0.0782  0.1229
 3624POPC   D2A81455  31.245  27.299   5.552 -0.1447 -0.0311  0.0957
 3624POPC   C3A81456  31.086  27.404   5.952  0.2120  0.3240  0.2578
 3624POPC   C4A81457  31.440  27.524   6.235 -0.2299 -0.1780 -0.1335
 3624POPC   C1B81458  31.866  27.668   5.567  0.0743  0.1335 -0.3236
 3624POPC   C2B81459  31.391  27.739   5.741  0.1758  0.0426  0.0282
 3624POPC   C3B81460  30.941  27.894   5.922 -0.0316 -0.0905  0.0434
 3624POPC   C4B81461  30.657  27.689   6.201  0.1838  0.2422 -0.0854
 3625POPC   NC381462  20.918  17.074   4.154 -0.0603  0.3181 -0.3499
 3625POPC   PO481463  20.983  17.169   4.546 -0.1293  0.2565  0.4033
 3625POPC   GL181464  21.135  17.099   4.955 -0.1369  0.1090 -0.3020
 3625POPC   GL281465  21.231  16.849   4.914 -0.0878  0.1807 -0.2208
 3625POPC   C1A81466  21.575  16.998   5.217  0.1664  0.1594 -0.0389
 3625POPC   D2A81467  21.933  16.963   5.497 -0.0943  0.2495 -0.0889
 3625POPC   C3A81468  22.146  16.772   5.863  0.1236 -0.1705  0.0245
 3625POPC   C4A81469  22.014  16.629   6.311  0.1397  0.0325 -0.2582
 3625POPC   C1B81470  21.122  16.875   5.348 -0.1298 -0.1686 -0.2471
 3625POPC   C2B81471  20.908  17.151   5.641 -0.4741  0.0948  0.1298
 3625POPC   C3B81472  20.721  17.178   6.066  0.1859 -0.0495 -0.2329
 3625POPC   C4B81473  20.642  17.278   6.478 -0.0268 -0.0188 -0.0832
 3626POPC   NC381474  25.793  19.852   7.377  0.0118  0.0252  0.1966
 3626POPC   PO481475  25.738  20.207   7.297 -0.0260 -0.2410  0.2808
 3626POPC   GL181476  25.880  20.146   7.755  0.1460  0.1024 -0.2593
 3626POPC   GL281477  25.721  19.965   7.847  0.1141 -0.0520 -0.0930
 3626POPC   C1A81478  26.181  19.987   8.130 -0.2503  0.1488 -0.0426
 3626POPC   D2A81479  26.333  19.855   8.569  0.1351  0.2449 -0.2353
 3626POPC   C3A81480  26.357  19.424   8.740  0.0844  0.3421 -0.2274
 3626POPC   C4A81481  26.089  19.088   8.940  0.3601 -0.1187  0.0341
 3626POPC   C1B81482  25.925  19.593   7.911 -0.2109  0.0156 -0.1456
 3626POPC   C2B81483  26.365  19.468   8.027  0.0906  0.0669 -0.2280
 3626POPC   C3B81484  26.843  19.396   7.859 -0.2545  0.4851  0.1026
 3626POPC   C4B81485  27.141  19.580   7.573  0.0616  0.2231  0.2495
 3627POPC   NC381486  22.220  18.691   5.195 -0.2515  0.0967 -0.1388
 3627POPC   PO481487  22.231  18.297   5.163 -0.1969 -0.1327 -0.0518
 3627POPC   GL181488  21.944  18.318   5.398 -0.1566 -0.2783 -0.4338
 3627POPC   GL281489  21.807  18.560   5.498 -0.0296 -0.2942 -0.1268
 3627POPC   C1A81490  21.708  18.035   5.679  0.1295 -0.0952 -0.1607
 3627POPC   D2A81491  21.538  18.033   6.135 -0.3079  0.1852 -0.1964
 3627POPC   C3A81492  21.447  17.783   6.520 -0.0649  0.1702  0.2833
 3627POPC   C4A81493  21.603  17.617   6.900  0.2218  0.3731 -0.3303
 3627POPC   C1B81494  21.917  18.409   5.981 -0.0462 -0.0968 -0.3624
 3627POPC   C2B81495  21.912  18.276   6.425  0.0125 -0.0439 -0.0280
 3627POPC   C3B81496  21.596  18.291   6.690  0.1125  0.0179 -0.1602
 3627POPC   C4B81497  21.628  18.321   7.154  0.2398  0.0699  0.0564
 3628POPC   NC381498  23.411  19.104   5.684 -0.0004  0.0284  0.0740
 3628POPC   PO481499  23.729  18.987   5.907  0.1755 -0.1787  0.0497
 3628POPC   GL181500  23.904  19.007   6.346  0.2312 -0.0329 -0.0027
 3628POPC   GL281501  23.910  19.257   6.490  0.1685  0.0734  0.3260
 3628POPC   C1A81502  23.915  18.731   6.693  0.1927 -0.1464 -0.1136
 3628POPC   D2A81503  23.544  18.429   6.744  0.0800 -0.0322 -0.0683
 3628POPC   C3A81504  23.509  18.167   7.175  0.0285  0.2118 -0.0270
 3628POPC   C4A81505  23.190  17.866   7.312  0.1312  0.0862  0.2535
 3628POPC   C1B81506  23.602  19.059   6.761  0.0670  0.2118  0.0669
 3628POPC   C2B81507  23.294  19.048   7.101  0.0995  0.4431  0.0715
 3628POPC   C3B81508  22.983  18.996   7.448 -0.2053 -0.1556 -0.0275
 3628POPC   C4B81509  22.711  19.168   7.801  0.1151 -0.0995  0.1638
 3629POPC   NC381510  24.344  29.374   5.175 -0.1801  0.3392  0.0362
 3629POPC   PO481511  24.187  29.086   5.021 -0.0429  0.0673  0.0219
 3629POPC   GL181512  24.151  28.932   5.347  0.0334 -0.1786 -0.0308
 3629POPC   GL281513  23.872  28.897   5.442  0.1488 -0.1790  0.0768
 3629POPC   C1A81514  24.136  29.194   5.730  0.1874  0.1204 -0.2764
 3629POPC   D2A81515  24.287  29.498   6.054 -0.2421  0.2496 -0.1005
 3629POPC   C3A81516  24.086  29.799   6.374  0.3104  0.3419 -0.0072
 3629POPC   C4A81517  24.046  29.965   6.821 -0.1406  0.1132 -0.2087
 3629POPC   C1B81518  23.934  28.726   5.899  0.0735 -0.1174  0.1950
 3629POPC   C2B81519  24.001  28.514   6.351 -0.0290  0.1095 -0.2002
 3629POPC   C3B81520  24.056  28.415   6.789  0.2336 -0.0745 -0.2294
 3629POPC   C4B81521  23.802  28.473   7.172 -0.2111  0.0083 -0.0124
 3630POPC   NC381522  31.321  25.560   5.637 -0.0264  0.2497 -0.4296
 3630POPC   PO481523  31.047  25.795   5.437  0.2117 -0.0150  0.3548
 3630POPC   GL181524  31.316  26.042   5.696 -0.3495 -0.1236  0.0593
 3630POPC   GL281525  31.289  26.246   5.786  0.0934  0.1062 -0.0426
 3630POPC   C1A81526  31.571  26.034   6.108  0.0775  0.2042  0.1228
 3630POPC   D2A81527  31.826  25.679   6.420 -0.1701  0.1752  0.3032
 3630POPC   C3A81528  32.247  25.846   6.522 -0.1263  0.0670  0.1984
 3630POPC   C4A81529  32.516  26.216   6.402  0.0265  0.2359  0.1372
 3630POPC   C1B81530  30.989  26.466   6.092  0.0283  0.1673 -0.3443
 3630POPC   C2B81531  30.787  26.786   6.397 -0.2481 -0.1722 -0.1072
 3630POPC   C3B81532  30.511  27.118   6.619  0.0145  0.0592  0.3562
 3630POPC   C4B81533  30.132  27.437   6.609 -0.1572  0.0006  0.1390
 3631POPC   NC381534  27.976   0.895   5.243 -0.0072  0.0254  0.0703
 3631POPC   PO481535  28.151   1.205   5.076  0.2290 -0.1616 -0.1014
 3631POPC   GL181536  28.472   1.112   5.273 -0.4499 -0.1423 -0.1335
 3631POPC   GL281537  28.402   0.834   5.460  0.2059  0.1056  0.0342
 3631POPC   C1A81538  28.899   1.088   5.154  0.4179 -0.5080 -0.0636
 3631POPC   D2A81539  29.287   0.999   5.341  0.1026 -0.1676  0.0495
 3631POPC   C3A81540  29.548   1.185   5.704  0.4445  0.1958 -0.1674
 3631POPC   C4A81541  29.616   1.399   6.123 -0.0593 -0.1061  0.1881
 3631POPC   C1B81542  28.289   0.816   5.859 -0.0885 -0.0680  0.1728
 3631POPC   C2B81543  28.313   0.704   6.301 -0.0527  0.0822 -0.2272
 3631POPC   C3B81544  28.240   0.631   6.740  0.1261  0.1598 -0.0601
 3631POPC   C4B81545  28.107   0.537   7.135 -0.1465 -0.0394  0.1385
 3632POPC   NC381546  20.595  22.581   5.596 -0.0154 -0.0086  0.0966
 3632POPC   PO481547  20.226  22.509   5.541  0.1704 -0.2777 -0.0282
 3632POPC   GL181548  20.249  22.363   5.915  0.0554  0.0825 -0.0036
 3632POPC   GL281549  20.421  22.541   6.079 -0.1003 -0.3242 -0.0865
 3632POPC   C1A81550  20.085  21.976   6.162  0.1042  0.3051  0.3286
 3632POPC   D2A81551  19.598  21.834   6.266 -0.2052 -0.2176 -0.0320
 3632POPC   C3A81552  19.531  21.438   6.455 -0.0516  0.1684 -0.0585
 3632POPC   C4A81553  19.366  21.146   6.819 -0.1074 -0.1445 -0.1618
 3632POPC   C1B81554  20.028  22.554   6.260  0.1332 -0.3514 -0.1509
 3632POPC   C2B81555  19.834  22.641   6.714 -0.1599 -0.1417  0.1153
 3632POPC   C3B81556  19.875  22.977   7.077 -0.0931 -0.0447 -0.0896
 3632POPC   C4B81557  19.964  23.038   7.536  0.0777  0.0482 -0.1549
 3633POPC   NC381558  30.041  19.732   5.515 -0.0390 -0.2963 -0.0128
 3633POPC   PO481559  30.354  19.507   5.480  0.1014 -0.0739  0.3830
 3633POPC   GL181560  30.308  19.408   5.758 -0.1542 -0.0373 -0.0211
 3633POPC   GL281561  30.072  19.275   5.802 -0.1185 -0.1626 -0.0396
 3633POPC   C1A81562  30.437  19.145   6.090 -0.1270  0.1476  0.1106
 3633POPC   D2A81563  30.787  18.809   6.242 -0.0015 -0.0719  0.0985
 3633POPC   C3A81564  30.709  18.428   6.327 -0.0175 -0.0711  0.3157
 3633POPC   C4A81565  30.801  18.213   6.759 -0.1762 -0.0217 -0.2481
 3633POPC   C1B81566  29.950  19.256   6.223 -0.0275 -0.1842  0.0791
 3633POPC   C2B81567  29.978  19.242   6.737  0.1659  0.1798 -0.0112
 3633POPC   C3B81568  30.084  19.099   7.193 -0.0673  0.0543 -0.1039
 3633POPC   C4B81569  30.271  19.034   7.621  0.2374  0.1040  0.0578
 3634POPC   NC381570  27.800  23.143  10.497 -0.0095  0.4227 -0.1896
 3634POPC   PO481571  27.518  23.417  10.428 -0.0400  0.0065 -0.3021
 3634POPC   GL181572  27.604  23.872  10.448  0.0157 -0.2221 -0.0663
 3634POPC   GL281573  27.510  23.908  10.622  0.0916 -0.1426 -0.1718
 3634POPC   C1A81574  28.044  23.936  10.401 -0.0524 -0.1083  0.1918
 3634POPC   D2A81575  28.484  23.811  10.381 -0.1431  0.1885  0.2497
 3634POPC   C3A81576  28.657  23.457  10.626 -0.1420  0.3528  0.1812
 3634POPC   C4A81577  28.861  23.032  10.687  0.1746  0.1651 -0.0838
 3634POPC   C1B81578  27.661  24.341  10.531  0.2118  0.0190 -0.0730
 3634POPC   C2B81579  27.926  24.746  10.483 -0.2100  0.1612 -0.0977
 3634POPC   C3B81580  28.134  25.036  10.748 -0.1313  0.3741 -0.2686
 3634POPC   C4B81581  28.575  25.092  10.881 -0.0478 -0.0273  0.3808
 3635POPC   NC381582  29.107  25.009   6.065  0.0460 -0.2014  0.2010
 3635POPC   PO481583  29.036  24.933   6.482 -0.1001 -0.1196 -0.0648
 3635POPC   GL181584  29.195  24.918   6.866 -0.1527 -0.1255 -0.0834
 3635POPC   GL281585  29.241  25.195   6.857  0.0010  0.1012  0.1437
 3635POPC   C1A81586  29.119  25.051   7.289 -0.1257 -0.0295  0.3401
 3635POPC   D2A81587  29.251  25.274   7.710 -0.1455  0.1296  0.0061
 3635POPC   C3A81588  29.075  25.556   8.029 -0.2637  0.2367  0.0737
 3635POPC   C4A81589  29.030  26.041   7.939  0.3057  0.0251  0.0807
 3635POPC   C1B81590  29.450  25.477   7.189  0.1141 -0.1369  0.2280
 3635POPC   C2B81591  29.713  25.756   7.400 -0.4409 -0.1473 -0.0412
 3635POPC   C3B81592  29.653  26.194   7.472 -0.0611  0.1254  0.0651
 3635POPC   C4B81593  29.497  26.537   7.299  0.0041 -0.0571 -0.0497
 3636POPC   NC381594  29.045  20.678   6.152  0.2878 -0.1649  0.1594
 3636POPC   PO481595  29.391  20.831   6.211 -0.2438 -0.3388  0.2592
 3636POPC   GL181596  29.609  20.716   6.540 -0.1437 -0.2876 -0.0379
 3636POPC   GL281597  29.370  20.514   6.655  0.1131 -0.1280 -0.0830
 3636POPC   C1A81598  29.561  20.829   6.985  0.1419 -0.0883 -0.4357
 3636POPC   D2A81599  29.690  20.754   7.380  0.0643 -0.1355 -0.0502
 3636POPC   C3A81600  29.964  20.593   7.672  0.0612 -0.1442  0.3874
 3636POPC   C4A81601  30.424  20.436   7.470 -0.0440  0.0476  0.0852
 3636POPC   C1B81602  29.455  20.361   7.086 -0.1221  0.4138  0.0638
 3636POPC   C2B81603  29.560  20.251   7.549 -0.2429 -0.3491  0.1334
 3636POPC   C3B81604  29.654  19.942   7.932 -0.1294 -0.4001  0.0960
 3636POPC   C4B81605  29.511  19.498   7.892  0.2954 -0.2188  0.2273
 3637POPC   NC381606  26.179  24.580   7.652 -0.0353  0.0217  0.1758
 3637POPC   PO481607  25.808  24.560   7.619 -0.2617  0.1372  0.0965
 3637POPC   GL181608  25.634  24.619   7.935  0.2834  0.3179 -0.0596
 3637POPC   GL281609  25.336  24.657   8.002 -0.2965  0.0843 -0.2180
 3637POPC   C1A81610  25.591  25.090   8.045 -0.1110 -0.1015  0.0479
 3637POPC   D2A81611  25.399  25.446   8.274  0.0654  0.1145 -0.0204
 3637POPC   C3A81612  25.294  25.642   8.682  0.0785  0.1057  0.0372
 3637POPC   C4A81613  25.132  25.994   8.983 -0.1006  0.0069 -0.2405
 3637POPC   C1B81614  25.146  24.981   8.202 -0.0641  0.0815 -0.3406
 3637POPC   C2B81615  24.859  25.282   8.420 -0.1351 -0.1435 -0.0412
 3637POPC   C3B81616  24.441  25.402   8.614  0.1272 -0.1347  0.0676
 3637POPC   C4B81617  24.262  25.728   8.874  0.0457 -0.3078  0.1528
 3638POPC   NC381618  24.233  24.785   7.088 -0.1006 -0.3329 -0.1600
 3638POPC   PO481619  24.430  24.515   7.322 -0.0158  0.1715 -0.0108
 3638POPC   GL181620  24.329  24.571   7.740 -0.3089 -0.0827  0.0738
 3638POPC   GL281621  24.373  24.342   7.918  0.1632  0.2106  0.2397
 3638POPC   C1A81622  24.602  24.780   8.054  0.0770  0.0009  0.2495
 3638POPC   D2A81623  24.712  25.192   7.948 -0.0131 -0.0217 -0.0040
 3638POPC   C3A81624  24.563  25.557   8.169 -0.0734  0.1386  0.4894
 3638POPC   C4A81625  24.385  25.910   8.439 -0.1542 -0.3260  0.0805
 3638POPC   C1B81626  24.023  24.454   8.189  0.1036  0.2767  0.2777
 3638POPC   C2B81627  23.710  24.635   8.495 -0.0073 -0.1821  0.0349
 3638POPC   C3B81628  23.454  25.030   8.432  0.0013 -0.1318  0.4169
 3638POPC   C4B81629  23.474  25.476   8.406  0.0257 -0.2348 -0.1561
 3639POPC   NC381630  27.240  19.741   6.141 -0.1178  0.0728 -0.0777
 3639POPC   PO481631  27.495  19.456   6.180 -0.0542  0.0712 -0.3292
 3639POPC   GL181632  27.568  19.277   6.409 -0.1325  0.2901 -0.3689
 3639POPC   GL281633  27.835  19.351   6.539  0.3069 -0.1165 -0.0680
 3639POPC   C1A81634  27.254  19.041   6.681  0.0091  0.0991  0.1487
 3639POPC   D2A81635  27.156  18.662   6.965 -0.0107 -0.1689 -0.0787
 3639POPC   C3A81636  27.437  18.305   7.021 -0.3227  0.3320 -0.3582
 3639POPC   C4A81637  27.710  17.950   6.860  0.0369 -0.4118 -0.1273
 3639POPC   C1B81638  27.742  19.039   6.840 -0.0417  0.0125 -0.1688
 3639POPC   C2B81639  27.631  18.726   7.188  0.3285 -0.1839  0.0231
 3639POPC   C3B81640  27.753  18.340   7.419  0.0084 -0.1944 -0.0574
 3639POPC   C4B81641  27.918  17.914   7.442  0.1148 -0.0941 -0.1409
 3640POPC   NC381642  20.200  18.914   4.828 -0.0456 -0.3282 -0.1136
 3640POPC   PO481643  20.130  19.293   4.796  0.4820 -0.1558 -0.0258
 3640POPC   GL181644  19.841  19.452   4.981 -0.1123  0.2571 -0.3548
 3640POPC   GL281645  19.955  19.221   5.269  0.0594 -0.0811  0.1427
 3640POPC   C1A81646  19.491  19.417   5.286  0.0310 -0.0693 -0.3736
 3640POPC   D2A81647  19.290  19.586   5.652 -0.1229 -0.0543  0.2925
 3640POPC   C3A81648  19.022  19.489   6.048  0.0053 -0.3777 -0.1321
 3640POPC   C4A81649  18.720  19.178   6.155  0.0733  0.2744 -0.0046
 3640POPC   C1B81650  20.119  19.069   5.658 -0.0483 -0.0121 -0.1885
 3640POPC   C2B81651  19.953  18.996   6.072 -0.3269 -0.0727 -0.0933
 3640POPC   C3B81652  19.730  18.907   6.448 -0.0770 -0.2311 -0.2678
 3640POPC   C4B81653  19.450  19.082   6.802  0.3263  0.1101 -0.0260
 3641POPC   NC381654  27.982   1.696   5.100  0.0992 -0.3286  0.0078
 3641POPC   PO481655  27.709   1.429   5.078 -0.0801  0.0150 -0.1714
 3641POPC   GL181656  27.804   1.279   5.467  0.2409 -0.1238 -0.5070
 3641POPC   GL281657  28.066   1.255   5.582 -0.1926 -0.2091 -0.2020
 3641POPC   C1A81658  27.755   0.889   5.786 -0.0215 -0.2620  0.1372
 3641POPC   D2A81659  27.460   0.767   6.128  0.0371  0.1128 -0.2308
 3641POPC   C3A81660  27.675   0.569   6.503  0.2079 -0.2137  0.0555
 3641POPC   C4A81661  27.716   0.352   6.860 -0.2178  0.0791  0.2150
 3641POPC   C1B81662  27.836   1.345   5.942  0.1461 -0.1110 -0.2839
 3641POPC   C2B81663  27.765   1.605   6.305 -0.1255 -0.0039 -0.2016
 3641POPC   C3B81664  27.895   1.810   6.722  0.2022  0.0433 -0.2547
 3641POPC   C4B81665  27.725   1.760   7.168 -0.1399  0.2414  0.2264
 3642POPC   NC381666   0.896  22.347   4.779 -0.1093 -0.2578  0.2668
 3642POPC   PO481667   1.142  22.421   5.049  0.0263  0.0610  0.0111
 3642POPC   GL181668   1.421  22.491   5.307 -0.0856 -0.2728  0.1614
 3642POPC   GL281669   1.192  22.610   5.514  0.1803  0.0067  0.0393
 3642POPC   C1A81670   1.567  22.325   5.732 -0.0835 -0.4068  0.1661
 3642POPC   D2A81671   1.536  22.539   6.141  0.0260  0.2361  0.0475
 3642POPC   C3A81672   1.610  22.222   6.454 -0.0416 -0.2880 -0.0679
 3642POPC   C4A81673   1.445  22.005   6.859  0.2809  0.2903  0.1902
 3642POPC   C1B81674   1.123  22.591   5.952  0.0618 -0.1764  0.0434
 3642POPC   C2B81675   1.157  22.603   6.414  0.0318  0.3132  0.2388
 3642POPC   C3B81676   1.335  22.480   6.834 -0.0366 -0.2925 -0.1333
 3642POPC   C4B81677   1.155  22.188   7.185  0.4611 -0.1951  0.2753
 3643POPC   NC381678  22.124  30.068   4.255 -0.2733 -0.0470  0.2201
 3643POPC   PO481679  22.411  29.835   4.149 -0.2689 -0.2508 -0.1044
 3643POPC   GL181680  22.410  29.850   4.539 -0.3140  0.0305 -0.2139
 3643POPC   GL281681  22.572  29.819   4.729 -0.0654  0.0223  0.1848
 3643POPC   C1A81682  22.049  30.086   4.733 -0.1621 -0.1874  0.1904
 3643POPC   D2A81683  21.666  29.928   4.905  0.0738  0.2568 -0.1637
 3643POPC   C3A81684  21.598  29.660   5.256 -0.3363 -0.0093  0.3173
 3643POPC   C4A81685  21.578  29.373   5.653  0.1856  0.0038  0.2342
 3643POPC   C1B81686  22.554  30.100   5.111 -0.1528  0.3264 -0.3400
 3643POPC   C2B81687  22.512  30.314   5.496 -0.0386  0.1692 -0.1818
 3643POPC   C3B81688  22.510  30.763   5.767 -0.0845  0.1099  0.1105
 3643POPC   C4B81689  22.487  31.112   6.050  0.1834 -0.1128 -0.1090
 3644POPC   NC381690  21.628  27.971   4.231 -0.1718 -0.1764 -0.1683
 3644POPC   PO481691  21.971  27.944   4.431  0.0535 -0.3373  0.0510
 3644POPC   GL181692  21.927  27.853   4.869  0.0426  0.2058  0.1182
 3644POPC   GL281693  21.685  27.974   4.944  0.0153  0.3551 -0.2035
 3644POPC   C1A81694  22.273  27.827   5.211  0.1263  0.2446  0.2756
 3644POPC   D2A81695  22.422  27.531   5.472  0.3164  0.1589 -0.1582
 3644POPC   C3A81696  22.849  27.705   5.588 -0.1614  0.1980 -0.1272
 3644POPC   C4A81697  23.085  27.801   5.998 -0.0941 -0.2384 -0.1464
 3644POPC   C1B81698  21.252  28.145   5.091 -0.1777  0.1019 -0.1809
 3644POPC   C2B81699  21.025  28.464   5.359  0.0576 -0.0017 -0.3214
 3644POPC   C3B81700  20.828  28.832   5.616  0.0980 -0.2619 -0.2111
 3644POPC   C4B81701  20.445  28.799   5.923  0.0331 -0.1907  0.1955
 3645POPC   NC381702  25.634  18.528   5.529  0.2457 -0.0730 -0.0436
 3645POPC   PO481703  25.327  18.595   5.754  0.1317  0.2650  0.0091
 3645POPC   GL181704  25.245  18.477   6.113 -0.1315  0.1794  0.2427
 3645POPC   GL281705  25.242  18.668   6.366 -0.2134  0.0702 -0.1029
 3645POPC   C1A81706  24.921  18.198   6.369  0.0561  0.0903  0.0231
 3645POPC   D2A81707  24.516  17.900   6.345 -0.0457  0.1065 -0.0211
 3645POPC   C3A81708  24.287  17.697   6.735 -0.1251  0.1618  0.0916
 3645POPC   C4A81709  24.168  17.774   7.210  0.0141 -0.3927  0.1167
 3645POPC   C1B81710  24.845  18.618   6.569  0.5512 -0.2034  0.0161
 3645POPC   C2B81711  24.666  18.559   7.011  0.4202  0.1525 -0.1697
 3645POPC   C3B81712  24.565  18.395   7.502 -0.0928 -0.1972  0.1838
 3645POPC   C4B81713  24.630  18.200   7.927 -0.1669  0.3054  0.1013
 3646POPC   NC381714  17.754  25.099   4.844 -0.1076  0.0846 -0.1485
 3646POPC   PO481715  17.880  25.236   4.498 -0.0331 -0.0737  0.2784
 3646POPC   GL181716  18.134  25.379   4.751  0.0474  0.0453 -0.0696
 3646POPC   GL281717  18.290  25.664   4.750  0.0448 -0.3160 -0.6801
 3646POPC   C1A81718  18.104  25.244   5.211  0.1654 -0.4448  0.1314
 3646POPC   D2A81719  18.188  25.356   5.667 -0.3132  0.1217  0.3002
 3646POPC   C3A81720  18.281  25.573   6.048  0.0586 -0.0867 -0.0901
 3646POPC   C4A81721  18.545  25.696   6.436 -0.1305 -0.3215  0.0298
 3646POPC   C1B81722  18.405  25.750   5.175 -0.2394  0.0070 -0.0433
 3646POPC   C2B81723  18.453  25.773   5.650 -0.1809  0.1003  0.0075
 3646POPC   C3B81724  18.389  26.022   6.047 -0.2539 -0.0751 -0.2634
 3646POPC   C4B81725  18.379  26.123   6.504  0.0475  0.1707 -0.1185
 3647POPC   NC381726  32.726  24.712   5.523  0.1795  0.0604 -0.4265
 3647POPC   PO481727  32.983  24.852   5.252  0.0376 -0.0248  0.1413
 3647POPC   GL181728  33.159  24.834   5.602 -0.0504 -0.3277 -0.1400
 3647POPC   GL281729  33.435  24.786   5.527 -0.3244  0.4820  0.0724
 3647POPC   C1A81730  33.385  25.073   5.950  0.4321  0.5239 -0.0688
 3647POPC   D2A81731  33.762  25.028   6.165 -0.3017  0.0961  0.0948
 3647POPC   C3A81732  33.504  25.066   6.564 -0.1406  0.2669  0.0261
 3647POPC   C4A81733  33.145  24.804   6.737 -0.0562 -0.1543 -0.2713
 3647POPC   C1B81734  33.286  24.423   5.778  0.0853 -0.2125  0.0291
 3647POPC   C2B81735  33.444  24.163   6.100  0.0526  0.2119  0.2132
 3647POPC   C3B81736  33.464  23.835   6.428 -0.3157 -0.1196 -0.3165
 3647POPC   C4B81737  33.516  23.587   6.813 -0.2208  0.0696 -0.1881
 3648POPC   NC381738  26.875  23.770   9.646  0.1816  0.0188 -0.2551
 3648POPC   PO481739  26.519  23.710   9.554 -0.0585 -0.0768 -0.0832
 3648POPC   GL181740  26.526  23.884   9.941  0.0203  0.1789  0.1259
 3648POPC   GL281741  26.304  23.896  10.011  0.0204  0.1938 -0.0130
 3648POPC   C1A81742  26.848  24.090  10.192  0.3113 -0.4434  0.1226
 3648POPC   D2A81743  26.835  24.083  10.600 -0.2087 -0.1357  0.2194
 3648POPC   C3A81744  27.194  24.364  10.700  0.1113  0.2004 -0.0281
 3648POPC   C4A81745  27.494  24.491  11.034  0.0572  0.0664  0.0038
 3648POPC   C1B81746  25.946  24.178  10.193 -0.1399  0.0640 -0.1149
 3648POPC   C2B81747  25.789  24.378  10.601 -0.0134 -0.1276 -0.1358
 3648POPC   C3B81748  25.933  24.599  10.955  0.4668 -0.2086  0.2385
 3648POPC   C4B81749  26.216  24.842  11.213 -0.1628  0.2405  0.1913
 3649POPC   NC381750  25.008  22.222  10.149 -0.1488 -0.2182  0.2591
 3649POPC   PO481751  25.070  22.457   9.812  0.0495  0.0985  0.2809
 3649POPC   GL181752  24.601  22.476   9.764 -0.3498 -0.0291  0.2896
 3649POPC   GL281753  24.519  22.258   9.999 -0.0690  0.0819  0.1335
 3649POPC   C1A81754  24.172  22.247   9.640  0.0385  0.1678 -0.1341
 3649POPC   D2A81755  23.734  22.172   9.711  0.0323 -0.1567  0.0188
 3649POPC   C3A81756  23.526  21.809   9.471 -0.1517  0.0776  0.1606
 3649POPC   C4A81757  23.523  21.539   9.035 -0.0046  0.2095  0.0846
 3649POPC   C1B81758  24.114  22.217  10.277  0.0156 -0.0338  0.0562
 3649POPC   C2B81759  24.049  21.888  10.625  0.2154  0.2351 -0.0740
 3649POPC   C3B81760  23.783  21.541  10.786  0.0159  0.0128 -0.2166
 3649POPC   C4B81761  23.717  21.357  11.179  0.2920  0.1643 -0.1163
 3650POPC   NC381762  26.623  19.950   6.813  0.0146 -0.1752  0.0213
 3650POPC   PO481763  26.849  19.877   6.461 -0.0418 -0.2194  0.3461
 3650POPC   GL181764  27.096  19.756   6.788 -0.0830 -0.2153 -0.1389
 3650POPC   GL281765  27.341  19.715   6.623 -0.0601 -0.0503 -0.2233
 3650POPC   C1A81766  27.251  19.973   7.158  0.0050  0.1533  0.0423
 3650POPC   D2A81767  27.607  19.888   7.369 -0.0878  0.3287  0.2976
 3650POPC   C3A81768  27.812  20.213   7.620  0.0758 -0.1577  0.3442
 3650POPC   C4A81769  27.943  20.634   7.709 -0.0306 -0.0982  0.1580
 3650POPC   C1B81770  27.412  19.449   6.996 -0.1742 -0.0726  0.1632
 3650POPC   C2B81771  27.486  19.173   7.298  0.2364  0.1709  0.0794
 3650POPC   C3B81772  27.460  19.201   7.727  0.1916 -0.0214  0.0274
 3650POPC   C4B81773  27.831  18.975   7.910 -0.1023  0.0775 -0.1430
 3651POPC   NC381774  21.310  25.027   5.299 -0.1063  0.1639  0.1879
 3651POPC   PO481775  21.304  25.239   5.612  0.5397 -0.2659 -0.0561
 3651POPC   GL181776  21.180  25.535   5.851  0.0694  0.2501 -0.1666
 3651POPC   GL281777  21.244  25.434   6.071 -0.2067 -0.0001  0.0892
 3651POPC   C1A81778  20.883  25.723   6.210  0.3746 -0.0574 -0.1461
 3651POPC   D2A81779  20.762  25.675   6.621  0.1700  0.2151  0.1724
 3651POPC   C3A81780  20.283  25.605   6.617 -0.0310 -0.0401 -0.0835
 3651POPC   C4A81781  19.888  25.717   6.887  0.0081 -0.0513 -0.0460
 3651POPC   C1B81782  21.392  25.613   6.493  0.0842 -0.1983 -0.1460
 3651POPC   C2B81783  21.517  25.788   6.935  0.3867 -0.0738  0.0795
 3651POPC   C3B81784  21.773  25.752   7.276 -0.0617  0.0916  0.0409
 3651POPC   C4B81785  21.982  25.760   7.683  0.1028  0.1660  0.2815
 3652POPC   NC381786  23.521  26.417   5.838 -0.0735  0.1543  0.2135
 3652POPC   PO481787  23.410  26.727   5.646  0.2111  0.0812 -0.0708
 3652POPC   GL181788  23.191  26.870   5.929  0.2245  0.2172  0.2043
 3652POPC   GL281789  23.145  27.138   5.767 -0.3252 -0.0702 -0.0131
 3652POPC   C1A81790  23.178  26.693   6.352 -0.0019 -0.1710  0.0178
 3652POPC   D2A81791  22.777  26.537   6.565 -0.1020  0.2175  0.2445
 3652POPC   C3A81792  22.728  26.825   6.829 -0.1918  0.0066  0.1143
 3652POPC   C4A81793  22.394  26.972   7.116 -0.3112 -0.3555  0.1906
 3652POPC   C1B81794  23.028  27.351   6.143 -0.1590  0.0059 -0.0361
 3652POPC   C2B81795  22.871  27.503   6.590 -0.0458 -0.0675 -0.3540
 3652POPC   C3B81796  22.852  27.338   7.027  0.3372 -0.0706  0.0947
 3652POPC   C4B81797  23.084  27.543   7.369  0.1540 -0.4518  0.3255
 3653POPC   NC381798  27.935  23.008   8.110 -0.1957  0.2215 -0.1871
 3653POPC   PO481799  28.171  22.689   8.017 -0.0335 -0.1942 -0.1264
 3653POPC   GL181800  28.382  22.751   8.323 -0.2265  0.0840  0.0798
 3653POPC   GL281801  28.473  23.019   8.354  0.1937 -0.0913  0.2900
 3653POPC   C1A81802  28.793  22.508   8.366  0.2019  0.1067  0.0443
 3653POPC   D2A81803  29.122  22.230   8.402  0.0480 -0.1569 -0.1743
 3653POPC   C3A81804  29.437  22.260   8.712 -0.1788  0.2420  0.3731
 3653POPC   C4A81805  29.588  22.562   9.024  0.2351  0.1664 -0.1434
 3653POPC   C1B81806  28.952  23.042   8.449  0.0764  0.1590  0.1463
 3653POPC   C2B81807  29.224  22.985   8.068 -0.2263  0.0399 -0.2793
 3653POPC   C3B81808  29.749  22.841   8.069  0.0116 -0.1299  0.1037
 3653POPC   C4B81809  30.187  22.906   7.946 -0.0870  0.0829 -0.0638
 3654POPC   NC381810  26.437  32.735   5.463  0.2938 -0.2897 -0.1187
 3654POPC   PO481811  26.046  32.651   5.377  0.0208 -0.0140  0.0154
 3654POPC   GL181812  26.179  32.453   5.729  0.0354 -0.3104  0.3607
 3654POPC   GL281813  26.388  32.560   5.945 -0.1405 -0.0970 -0.0274
 3654POPC   C1A81814  25.978  32.226   6.078 -0.0159 -0.0392 -0.0260
 3654POPC   D2A81815  25.943  32.042   6.481 -0.1766 -0.3531  0.0009
 3654POPC   C3A81816  25.862  32.297   6.870  0.0960 -0.1102 -0.1349
 3654POPC   C4A81817  26.067  32.666   7.110 -0.0174  0.2765 -0.1208
 3654POPC   C1B81818  26.567  32.103   5.893  0.0290  0.0396  0.3364
 3654POPC   C2B81819  26.901  31.888   6.140  0.1610 -0.0550 -0.1612
 3654POPC   C3B81820  26.943  32.040   6.590  0.0679  0.2527  0.3911
 3654POPC   C4B81821  27.032  32.284   6.998  0.0912  0.1458  0.1073
 3655POPC   NC381822  21.891  17.634   4.764  0.2736 -0.0873 -0.1628
 3655POPC   PO481823  22.098  17.336   4.658 -0.3342 -0.0075  0.0545
 3655POPC   GL181824  22.256  17.464   5.106  0.1153  0.0456  0.1453
 3655POPC   GL281825  22.286  17.209   5.148  0.1392  0.0446  0.1156
 3655POPC   C1A81826  21.892  17.490   5.417 -0.1497 -0.1522  0.1255
 3655POPC   D2A81827  21.425  17.446   5.422  0.0380 -0.0769 -0.1698
 3655POPC   C3A81828  21.422  17.083   5.756  0.2931  0.4272  0.1752
 3655POPC   C4A81829  21.164  16.943   6.120  0.0558  0.0230 -0.1248
 3655POPC   C1B81830  22.519  17.037   5.509 -0.1131 -0.1532  0.1690
 3655POPC   C2B81831  22.602  16.995   5.978 -0.0479  0.0227  0.3338
 3655POPC   C3B81832  22.822  17.057   6.313  0.0743  0.5128  0.0544
 3655POPC   C4B81833  23.028  16.930   6.717  0.1582 -0.0992 -0.2161
 3656POPC   NC381834  28.967  19.105   4.979  0.0608 -0.2222 -0.1536
 3656POPC   PO481835  28.700  19.188   5.313 -0.1522 -0.0513  0.0327
 3656POPC   GL181836  28.651  18.980   5.639 -0.1533 -0.1323  0.3795
 3656POPC   GL281837  28.972  18.917   5.625 -0.1181 -0.0426 -0.4311
 3656POPC   C1A81838  28.691  18.996   6.113 -0.5779 -0.2504 -0.2212
 3656POPC   D2A81839  28.654  18.935   6.547  0.3114  0.1936 -0.3058
 3656POPC   C3A81840  28.927  18.838   6.914 -0.3276 -0.4267 -0.1418
 3656POPC   C4A81841  29.013  18.819   7.379 -0.3927 -0.1471 -0.2271
 3656POPC   C1B81842  29.213  18.726   5.994 -0.0019  0.2188  0.2365
 3656POPC   C2B81843  29.397  18.428   6.342  0.0245  0.5299  0.1651
 3656POPC   C3B81844  29.316  18.132   6.703 -0.4003  0.2032  0.2077
 3656POPC   C4B81845  29.252  18.316   7.071  0.0094  0.1029  0.1900
 3657POPC   NC381846  16.932  19.403   4.400 -0.1422 -0.1552 -0.1909
 3657POPC   PO481847  17.068  19.447   4.716  0.0236 -0.0271 -0.1444
 3657POPC   GL181848  17.034  19.400   5.120  0.0445 -0.1251 -0.2286
 3657POPC   GL281849  17.110  19.146   5.203  0.0542  0.2287 -0.1119
 3657POPC   C1A81850  16.824  19.351   5.522 -0.1732  0.0659  0.1355
 3657POPC   D2A81851  16.696  19.349   5.970  0.1786  0.0914  0.0931
 3657POPC   C3A81852  16.451  19.074   6.212 -0.0155  0.0284  0.0379
 3657POPC   C4A81853  16.149  18.771   6.378 -0.1976  0.3088 -0.0341
 3657POPC   C1B81854  16.974  18.863   5.568  0.1478 -0.0739  0.0597
 3657POPC   C2B81855  16.818  18.554   5.883  0.2573 -0.2033  0.0844
 3657POPC   C3B81856  16.526  18.431   6.216  0.0360 -0.2116  0.0085
 3657POPC   C4B81857  16.142  18.238   6.478 -0.2587 -0.2528 -0.1456
 3658POPC   NC381858  24.598  21.541   9.146 -0.1927 -0.1065  0.0469
 3658POPC   PO481859  24.930  21.471   9.352 -0.0877  0.1923  0.3041
 3658POPC   GL181860  24.775  21.512   9.725 -0.2073 -0.3219  0.0869
 3658POPC   GL281861  24.688  21.308   9.868 -0.1281  0.1602 -0.0812
 3658POPC   C1A81862  24.735  21.783  10.084  0.0738  0.0641  0.1425
 3658POPC   D2A81863  24.479  21.794  10.451 -0.2318 -0.0467 -0.1605
 3658POPC   C3A81864  24.520  21.565  10.856  0.1472  0.1536  0.3919
 3658POPC   C4A81865  24.379  21.651  11.274  0.0712 -0.1045 -0.1559
 3658POPC   C1B81866  24.357  21.381  10.148  0.0630  0.0921 -0.2158
 3658POPC   C2B81867  24.103  21.166  10.464 -0.2970 -0.0384 -0.1742
 3658POPC   C3B81868  24.176  21.223  10.963  0.0430  0.0705  0.4495
 3658POPC   C4B81869  24.040  20.998  11.319  0.1406 -0.3833 -0.0685
 3659POPC   NC381870  27.281  27.459   5.684  0.1745 -0.1816  0.2602
 3659POPC   PO481871  27.385  27.083   5.755  0.1189 -0.0777 -0.2350
 3659POPC   GL181872  27.174  27.068   6.177  0.2365 -0.1120 -0.0923
 3659POPC   GL281873  27.200  27.322   6.151  0.2984  0.0763  0.0719
 3659POPC   C1A81874  27.300  27.089   6.640  0.3178  0.3368 -0.3650
 3659POPC   D2A81875  27.329  27.146   7.082  0.2228 -0.0189  0.1182
 3659POPC   C3A81876  27.386  27.544   7.249 -0.0286 -0.0161 -0.0722
 3659POPC   C4A81877  27.737  27.840   7.209  0.1003  0.1037  0.0714
 3659POPC   C1B81878  26.932  27.645   6.339  0.0628  0.1490 -0.1079
 3659POPC   C2B81879  26.563  27.691   6.686 -0.0207  0.2346  0.3219
 3659POPC   C3B81880  26.326  27.966   6.989  0.3076  0.2110  0.1734
 3659POPC   C4B81881  26.062  27.891   7.406  0.0819 -0.0362  0.1539
 3660POPC   NC381882  23.388  17.062   5.203  0.2345 -0.0169 -0.3856
 3660POPC   PO481883  23.726  17.108   5.367  0.0247  0.1347 -0.3872
 3660POPC   GL181884  23.461  17.005   5.705 -0.0775  0.1790 -0.0930
 3660POPC   GL281885  23.181  17.066   5.717 -0.0870  0.0941 -0.2280
 3660POPC   C1A81886  23.740  16.751   6.021  0.2713 -0.1354 -0.0719
 3660POPC   D2A81887  24.070  16.714   6.360 -0.0333  0.2114 -0.1286
 3660POPC   C3A81888  23.930  16.845   6.795  0.0433 -0.1113 -0.2607
 3660POPC   C4A81889  24.005  16.799   7.294 -0.1648  0.3821 -0.0111
 3660POPC   C1B81890  23.213  17.437   6.053  0.0672 -0.3469  0.0102
 3660POPC   C2B81891  22.881  17.615   6.372  0.0004  0.1310  0.2521
 3660POPC   C3B81892  22.496  17.519   6.622 -0.0014 -0.0461 -0.2552
 3660POPC   C4B81893  22.011  17.517   6.591  0.0428  0.3125 -0.0334
 3661POPC   NC381894  19.808  24.361   4.609 -0.2303 -0.1014  0.0779
 3661POPC   PO481895  19.883  24.036   4.769  0.0349  0.2144 -0.0172
 3661POPC   GL181896  19.622  24.300   5.012  0.1502  0.2100  0.0732
 3661POPC   GL281897  19.529  24.121   5.240  0.2046  0.1510 -0.3264
 3661POPC   C1A81898  19.646  24.630   5.341  0.0169  0.4760 -0.1628
 3661POPC   D2A81899  19.492  24.757   5.774 -0.3658  0.1323 -0.1766
 3661POPC   C3A81900  19.688  25.030   6.088 -0.1643  0.0829  0.0192
 3661POPC   C4A81901  19.557  25.278   6.467 -0.0562 -0.1270  0.2556
 3661POPC   C1B81902  19.347  24.115   5.682  0.0815 -0.0046  0.2125
 3661POPC   C2B81903  19.301  23.976   6.136 -0.1580 -0.3915 -0.2203
 3661POPC   C3B81904  19.203  23.797   6.506 -0.0326  0.0635  0.1690
 3661POPC   C4B81905  18.898  23.640   6.852  0.2086  0.0858 -0.0468
 3662POPC   NC381906  32.585  22.877   4.946  0.1185  0.3871 -0.0378
 3662POPC   PO481907  32.944  22.740   5.099 -0.2274 -0.2270  0.0542
 3662POPC   GL181908  32.926  22.732   5.534 -0.1109 -0.1603  0.0150
 3662POPC   GL281909  33.030  22.461   5.573 -0.2525 -0.0079  0.0504
 3662POPC   C1A81910  32.872  22.911   5.991  0.3136 -0.3291 -0.0723
 3662POPC   D2A81911  32.687  23.044   6.422 -0.2447 -0.2664 -0.1899
 3662POPC   C3A81912  32.429  23.221   6.788 -0.2023  0.1119  0.0326
 3662POPC   C4A81913  32.212  23.175   7.208 -0.2280  0.1361  0.0525
 3662POPC   C1B81914  33.021  22.322   6.080 -0.1777 -0.1572  0.2793
 3662POPC   C2B81915  33.123  22.135   6.481  0.3355  0.1695 -0.0851
 3662POPC   C3B81916  33.097  21.923   6.853  0.4331 -0.3123 -0.1848
 3662POPC   C4B81917  32.837  21.572   7.050  0.0023 -0.3479  0.1637
 3663POPC   NC381918  27.260  31.711   4.809 -0.1570  0.0646  0.1355
 3663POPC   PO481919  27.492  31.427   4.643 -0.0336  0.1321  0.0582
 3663POPC   GL181920  27.447  31.314   5.017 -0.0152  0.1612 -0.0060
 3663POPC   GL281921  27.740  31.397   5.126 -0.3644 -0.0203 -0.0415
 3663POPC   C1A81922  27.031  31.429   5.242 -0.1493  0.4218 -0.0846
 3663POPC   D2A81923  26.591  31.433   5.459 -0.0080  0.3104  0.2467
 3663POPC   C3A81924  26.492  31.183   5.882  0.1671 -0.0143 -0.0488
 3663POPC   C4A81925  26.267  31.145   6.319 -0.0023 -0.2467 -0.1834
 3663POPC   C1B81926  28.023  31.045   5.340  0.1292  0.3242 -0.0317
 3663POPC   C2B81927  28.273  30.906   5.692 -0.3209  0.0958 -0.0280
 3663POPC   C3B81928  28.590  31.216   5.901 -0.2137  0.3184  0.2246
 3663POPC   C4B81929  28.543  31.468   6.288  0.1934 -0.0542 -0.0997
 3664POPC   NC381930  22.969  25.647   5.248 -0.2306 -0.0905 -0.0402
 3664POPC   PO481931  23.040  25.757   5.616  0.0078 -0.2595 -0.0004
 3664POPC   GL181932  22.749  26.037   5.795  0.1279  0.0187 -0.2239
 3664POPC   GL281933  22.975  26.245   5.889  0.2962  0.0403 -0.1917
 3664POPC   C1A81934  22.502  26.012   6.215  0.0233 -0.0514 -0.1013
 3664POPC   D2A81935  22.360  26.194   6.607  0.0013  0.0261 -0.0104
 3664POPC   C3A81936  22.558  26.323   7.012  0.1489 -0.4112  0.0098
 3664POPC   C4A81937  22.825  26.603   7.312  0.2624  0.1624  0.0593
 3664POPC   C1B81938  22.825  26.646   6.077 -0.3227 -0.1357  0.0864
 3664POPC   C2B81939  22.682  27.006   6.296  0.2957 -0.3988 -0.0817
 3664POPC   C3B81940  22.475  27.158   6.626 -0.0234 -0.0865  0.2923
 3664POPC   C4B81941  22.195  27.514   6.780 -0.1278  0.1367  0.1544
 3665POPC   NC381942  32.673  24.226   4.874 -0.1007  0.2190  0.0892
 3665POPC   PO481943  32.349  24.070   4.980  0.0019 -0.1242  0.0012
 3665POPC   GL181944  32.582  24.214   5.296 -0.1385 -0.0226 -0.2865
 3665POPC   GL281945  32.379  24.155   5.496  0.0380  0.0188  0.2075
 3665POPC   C1A81946  32.831  24.260   5.662  0.2288 -0.0227  0.1924
 3665POPC   D2A81947  32.859  24.526   6.019  0.0878  0.0652 -0.2855
 3665POPC   C3A81948  32.766  24.525   6.520  0.1342  0.1657 -0.2612
 3665POPC   C4A81949  32.974  24.393   6.920 -0.0164  0.1443  0.1603
 3665POPC   C1B81950  32.431  23.958   5.935 -0.0694  0.0152 -0.3225
 3665POPC   C2B81951  32.519  24.113   6.361 -0.2605 -0.0119 -0.1332
 3665POPC   C3B81952  32.559  24.193   6.818 -0.0676  0.1945  0.1438
 3665POPC   C4B81953  32.691  24.057   7.241  0.0065 -0.0353 -0.2224
 3666POPC   NC381954  28.671  30.103   4.348  0.0182  0.1422  0.2168
 3666POPC   PO481955  28.978  30.229   4.568 -0.1700 -0.1052 -0.0424
 3666POPC   GL181956  29.268  30.401   4.720  0.0112 -0.0887 -0.0994
 3666POPC   GL281957  29.185  30.456   4.952 -0.0572 -0.0594 -0.1977
 3666POPC   C1A81958  29.736  30.429   4.838 -0.3219  0.0026 -0.1112
 3666POPC   D2A81959  29.967  30.488   5.236 -0.1492 -0.2002  0.1627
 3666POPC   C3A81960  29.842  30.515   5.716 -0.0778 -0.3054 -0.0596
 3666POPC   C4A81961  29.925  30.172   6.047 -0.3162 -0.1018  0.0207
 3666POPC   C1B81962  29.475  30.412   5.279 -0.2089  0.0861 -0.1603
 3666POPC   C2B81963  29.375  30.399   5.739  0.3454 -0.0133  0.2640
 3666POPC   C3B81964  29.156  30.694   6.073 -0.1787  0.1999  0.0355
 3666POPC   C4B81965  28.912  31.081   6.237 -0.0626 -0.1192 -0.1670
 3667POPC   NC381966  22.069  22.293   7.104  0.1454 -0.0840  0.4812
 3667POPC   PO481967  22.039  22.202   6.722 -0.3016 -0.1897  0.1278
 3667POPC   GL181968  21.663  22.296   6.884  0.2325  0.0697  0.3526
 3667POPC   GL281969  21.591  22.009   6.848  0.0938  0.1817 -0.0726
 3667POPC   C1A81970  21.628  22.122   7.310  0.1096  0.1563  0.4080
 3667POPC   D2A81971  21.584  22.046   7.806  0.0401  0.2443 -0.0829
 3667POPC   C3A81972  21.708  21.729   8.112 -0.2300  0.0722  0.1360
 3667POPC   C4A81973  21.971  21.376   7.985 -0.0874 -0.2802  0.0889
 3667POPC   C1B81974  21.139  21.820   6.945 -0.1605  0.0058 -0.2171
 3667POPC   C2B81975  20.773  22.000   7.201 -0.3576  0.1674 -0.0361
 3667POPC   C3B81976  20.372  22.220   7.041 -0.0933  0.4559 -0.1497
 3667POPC   C4B81977  20.068  22.106   6.676 -0.0363 -0.0451 -0.0273
 3668POPC   NC381978  18.395  18.734   4.642  0.0060  0.0618 -0.0103
 3668POPC   PO481979  18.349  18.351   4.566 -0.3587  0.0462 -0.0513
 3668POPC   GL181980  18.252  18.363   4.952 -0.1349 -0.0811 -0.0852
 3668POPC   GL281981  18.042  18.354   4.959  0.1395 -0.1308  0.3043
 3668POPC   C1A81982  18.272  18.187   5.403  0.0697  0.0595 -0.1337
 3668POPC   D2A81983  18.044  18.007   5.718  0.1020  0.1050  0.1322
 3668POPC   C3A81984  18.089  17.608   5.923  0.2370 -0.0808  0.2465
 3668POPC   C4A81985  17.935  17.189   5.876 -0.4533 -0.2874  0.1767
 3668POPC   C1B81986  17.857  17.991   5.201 -0.1238  0.1141  0.1740
 3668POPC   C2B81987  17.579  17.848   5.448  0.0954  0.3762  0.2646
 3668POPC   C3B81988  17.627  17.839   5.911 -0.0363  0.2349  0.0581
 3668POPC   C4B81989  17.369  17.856   6.323 -0.2309  0.1103  0.1440
 3669POPC   NC381990  29.629  25.706   6.120 -0.1795 -0.0620 -0.2230
 3669POPC   PO481991  29.843  25.708   5.781  0.1879  0.0602  0.0893
 3669POPC   GL181992  30.060  25.865   6.089  0.0041  0.0586  0.0241
 3669POPC   GL281993  30.007  26.087   6.171 -0.2635 -0.1358 -0.2588
 3669POPC   C1A81994  30.374  25.771   6.381  0.1649  0.3095  0.1605
 3669POPC   D2A81995  30.391  25.633   6.826 -0.3189  0.1005 -0.0297
 3669POPC   C3A81996  30.053  25.886   7.066  0.3898  0.1064  0.1832
 3669POPC   C4A81997  30.145  26.047   7.443 -0.0343  0.0349 -0.2204
 3669POPC   C1B81998  29.697  26.189   6.483 -0.1367  0.2890 -0.0159
 3669POPC   C2B81999  29.792  26.325   6.952 -0.3086 -0.0049 -0.0839
 3669POPC   C3B82000  30.197  26.432   7.080 -0.2582  0.2199  0.0586
 3669POPC   C4B82001  30.576  26.672   7.062 -0.3671 -0.2940 -0.1194
 3670POPC   NC382002  23.212  28.047   5.332  0.1761  0.1409  0.0015
 3670POPC   PO482003  23.445  28.276   5.104 -0.1294 -0.0505 -0.2842
 3670POPC   GL182004  23.532  28.460   5.425 -0.0286  0.0936  0.1337
 3670POPC   GL282005  23.389  28.741   5.448  0.0616  0.2631  0.0397
 3670POPC   C1A82006  23.481  28.473   5.920 -0.1533  0.1834  0.3742
 3670POPC   D2A82007  23.108  28.396   6.209 -0.1594  0.0173  0.0785
 3670POPC   C3A82008  23.084  28.678   6.553 -0.0407 -0.0032  0.0407
 3670POPC   C4A82009  23.005  28.995   6.861  0.2247  0.0216  0.2345
 3670POPC   C1B82010  23.121  28.807   5.843 -0.2343 -0.0469  0.2747
 3670POPC   C2B82011  22.757  28.911   6.161 -0.0178 -0.5532  0.1048
 3670POPC   C3B82012  22.499  28.801   6.561 -0.0162 -0.3905 -0.0043
 3670POPC   C4B82013  22.571  28.736   6.987  0.0661 -0.2333  0.1810
 3671POPC   NC382014  21.630  18.940   4.972  0.3965  0.0826 -0.2689
 3671POPC   PO482015  21.505  19.269   5.170  0.2215  0.0674  0.1886
 3671POPC   GL182016  21.441  18.947   5.488 -0.2337  0.5148 -0.1139
 3671POPC   GL282017  21.273  19.148   5.554 -0.1496 -0.0446 -0.1350
 3671POPC   C1A82018  21.647  18.813   5.869  0.2157  0.0914 -0.1532
 3671POPC   D2A82019  21.560  18.602   6.285  0.1418 -0.0519  0.0196
 3671POPC   C3A82020  21.364  18.933   6.520 -0.0672  0.0893 -0.1971
 3671POPC   C4A82021  21.094  18.970   6.850 -0.0710 -0.2032  0.2785
 3671POPC   C1B82022  21.325  19.362   5.996 -0.1986 -0.1653  0.1916
 3671POPC   C2B82023  21.280  19.417   6.435  0.2390  0.1439  0.2988
 3671POPC   C3B82024  21.062  19.495   6.814 -0.1658 -0.1005  0.0468
 3671POPC   C4B82025  20.978  19.445   7.237 -0.2260  0.2262  0.0533
 3672POPC   NC382026  19.013  20.896   4.629  0.2752 -0.2108 -0.0594
 3672POPC   PO482027  18.870  21.121   4.900  0.1191 -0.0095  0.3461
 3672POPC   GL182028  19.120  21.124   5.140  0.1282  0.3675  0.4076
 3672POPC   GL282029  19.373  21.021   5.231 -0.1050 -0.0594  0.2850
 3672POPC   C1A82030  18.976  20.966   5.541  0.1110 -0.1821  0.1707
 3672POPC   D2A82031  18.595  21.048   5.826  0.1171 -0.0841  0.2161
 3672POPC   C3A82032  18.303  20.764   6.102  0.0686  0.0173 -0.2362
 3672POPC   C4A82033  18.222  20.801   6.557 -0.0054  0.0015 -0.1879
 3672POPC   C1B82034  19.440  21.108   5.687 -0.0120  0.0552  0.2676
 3672POPC   C2B82035  19.589  21.034   6.129  0.1175  0.0523  0.2582
 3672POPC   C3B82036  19.693  20.887   6.551  0.0718 -0.2385 -0.2709
 3672POPC   C4B82037  19.517  20.572   6.870 -0.1401  0.0433 -0.2019
 3673POPC   NC382038  25.996  21.903  11.411  0.0830  0.2194 -0.2091
 3673POPC   PO482039  26.187  22.049  11.677 -0.1119 -0.0965 -0.0227
 3673POPC   GL182040  26.146  21.628  11.794 -0.2072 -0.3556  0.3618
 3673POPC   GL282041  26.459  21.578  11.726  0.0057  0.0998 -0.0215
 3673POPC   C1A82042  25.676  21.609  11.873  0.2695 -0.3400  0.0853
 3673POPC   D2A82043  25.306  21.592  12.128 -0.0469  0.0204  0.0127
 3673POPC   C3A82044  25.362  21.233  12.424  0.0943  0.0009  0.0643
 3673POPC   C4A82045  25.618  21.001  12.683 -0.0383  0.1878 -0.4029
 3673POPC   C1B82046  26.477  21.124  11.697 -0.2271  0.0439 -0.3354
 3673POPC   C2B82047  26.213  20.747  11.756  0.0059 -0.1605 -0.3489
 3673POPC   C3B82048  26.014  20.508  12.074 -0.1529 -0.0631 -0.2177
 3673POPC   C4B82049  25.672  20.205  12.011  0.2418  0.0108 -0.1175
 3674POPC   NC382050  15.935  18.602  15.640  0.2443 -0.2756  0.1283
 3674POPC   PO482051  16.046  18.966  15.576  0.0439  0.1089  0.0637
 3674POPC   GL182052  15.897  19.112  15.823  0.0749 -0.3048 -0.2689
 3674POPC   GL282053  15.792  18.939  16.018 -0.0278 -0.2017  0.1394
 3674POPC   C1A82054  15.750  19.382  16.196 -0.2708  0.2073  0.1035
 3674POPC   D2A82055  15.696  19.397  16.665  0.2353  0.1515  0.0422
 3674POPC   C3A82056  15.442  19.726  16.727  0.0607  0.1615 -0.0943
 3674POPC   C4A82057  15.383  20.085  16.967  0.1165 -0.3578  0.1155
 3674POPC   C1B82058  15.478  18.989  16.338  0.4867 -0.2806  0.0221
 3674POPC   C2B82059  15.248  19.278  16.618 -0.0150  0.0190 -0.0235
 3674POPC   C3B82060  15.197  19.234  17.125 -0.1448  0.0303 -0.4234
 3674POPC   C4B82061  15.375  19.052  17.534  0.0045  0.0348  0.5216
 3675POPC   NC382062  25.088   0.109  14.668  0.0910  0.4335  0.2834
 3675POPC   PO482063  25.135   0.297  14.344  0.0289  0.0596  0.1299
 3675POPC   GL182064  25.224   0.574  14.646 -0.0788  0.0294  0.3803
 3675POPC   GL282065  25.041   0.579  14.898  0.0546  0.1817 -0.1989
 3675POPC   C1A82066  25.529   0.740  15.022 -0.3131 -0.3840  0.0733
 3675POPC   D2A82067  25.686   0.912  15.410  0.1720  0.3514  0.0718
 3675POPC   C3A82068  25.749   1.383  15.584  0.0364  0.1171 -0.0627
 3675POPC   C4A82069  25.927   1.796  15.643  0.0534  0.2053  0.2387
 3675POPC   C1B82070  24.973   1.056  14.922  0.2077 -0.0992 -0.2847
 3675POPC   C2B82071  24.845   1.463  15.028  0.0220 -0.1276  0.2526
 3675POPC   C3B82072  24.703   1.813  15.250  0.2280 -0.1977 -0.1101
 3675POPC   C4B82073  24.611   2.225  15.066  0.3312 -0.6462 -0.2101
 3676POPC   NC382074  20.955  19.282  15.818  0.2868 -0.0177 -0.1062
 3676POPC   PO482075  20.581  19.227  15.761 -0.0668 -0.3381  0.2131
 3676POPC   GL182076  20.464  19.103  16.175 -0.1232  0.4102  0.0579
 3676POPC   GL282077  20.574  19.425  16.201  0.0518  0.1910  0.1867
 3676POPC   C1A82078  20.934  19.088  16.341  0.2346  0.0847 -0.1752
 3676POPC   D2A82079  21.376  19.126  16.487 -0.4256  0.1957 -0.1926
 3676POPC   C3A82080  21.511  19.495  16.612 -0.1045 -0.0303 -0.1862
 3676POPC   C4A82081  21.280  19.657  16.975 -0.1271 -0.2383  0.3890
 3676POPC   C1B82082  20.504  19.148  16.611  0.0398  0.0203 -0.1771
 3676POPC   C2B82083  20.441  19.164  16.990  0.1459 -0.1241  0.0810
 3676POPC   C3B82084  20.275  18.859  17.305  0.3360  0.0049 -0.0119
 3676POPC   C4B82085  20.382  18.431  17.382 -0.1137  0.0220 -0.0202
 3677POPC   NC382086   0.185  31.196  16.671 -0.0362  0.0089  0.0222
 3677POPC   PO482087   0.466  31.072  16.925 -0.1545 -0.1200 -0.0253
 3677POPC   GL182088   0.298  31.114  17.356 -0.1959 -0.0134 -0.2349
 3677POPC   GL282089   0.029  31.087  17.243  0.2010 -0.1940  0.1682
 3677POPC   C1A82090   0.527  31.076  17.803 -0.2592  0.0220 -0.2114
 3677POPC   D2A82091   0.672  31.033  18.235 -0.0450  0.0380  0.0543
 3677POPC   C3A82092   0.612  31.412  18.534 -0.0486  0.0613  0.1064
 3677POPC   C4A82093   0.683  31.425  19.011 -0.0395 -0.0418 -0.0298
 3677POPC   C1B82094  -0.012  31.081  17.737 -0.2343 -0.1494  0.0630
 3677POPC   C2B82095   0.097  30.971  18.160  0.0965 -0.0856  0.0610
 3677POPC   C3B82096   0.097  31.067  18.583  0.0858  0.5898 -0.1682
 3677POPC   C4B82097   0.122  31.483  18.713  0.1129  0.1270  0.1067
 3678POPC   NC382098  30.373  29.704  16.808  0.0037 -0.1378 -0.2420
 3678POPC   PO482099  30.726  29.849  16.688 -0.1461  0.1031  0.1928
 3678POPC   GL182100  30.829  29.754  17.063 -0.5074 -0.3412  0.1468
 3678POPC   GL282101  30.882  29.942  17.211  0.2208 -0.2465  0.0096
 3678POPC   C1A82102  31.135  29.573  17.384 -0.2811 -0.0056 -0.2029
 3678POPC   D2A82103  31.195  29.552  17.817  0.2410 -0.4280 -0.2140
 3678POPC   C3A82104  30.897  29.482  18.074 -0.2062  0.1464 -0.1915
 3678POPC   C4A82105  30.581  29.713  18.316  0.1315  0.0582  0.3893
 3678POPC   C1B82106  30.903  30.309  17.500  0.1296  0.5657 -0.0238
 3678POPC   C2B82107  30.933  30.519  17.959  0.0785 -0.0252 -0.1536
 3678POPC   C3B82108  30.630  30.740  18.250 -0.1707 -0.0645  0.1896
 3678POPC   C4B82109  30.238  30.972  18.444 -0.1018  0.0477  0.2250
 3679POPC   NC382110  18.852  17.826  16.102  0.0044 -0.0292 -0.5479
 3679POPC   PO482111  19.094  17.713  15.832 -0.0115  0.2031 -0.2588
 3679POPC   GL182112  19.268  17.703  16.225 -0.0749 -0.2838 -0.0828
 3679POPC   GL282113  19.553  17.566  16.214 -0.0285 -0.0530  0.1672
 3679POPC   C1A82114  19.187  18.008  16.585  0.0442  0.2944  0.1505
 3679POPC   D2A82115  18.958  18.250  16.968 -0.2904 -0.2490 -0.2499
 3679POPC   C3A82116  18.865  18.099  17.375 -0.1031 -0.1116 -0.2280
 3679POPC   C4A82117  18.490  18.054  17.728 -0.1522  0.1136  0.1429
 3679POPC   C1B82118  19.653  17.225  16.522 -0.2161  0.1339 -0.2594
 3679POPC   C2B82119  19.882  17.178  16.929 -0.4062  0.0174 -0.3048
 3679POPC   C3B82120  20.204  17.386  17.164  0.0650  0.0354 -0.0293
 3679POPC   C4B82121  20.389  17.347  17.532  0.1212  0.0497  0.2873
 3680POPC   NC382122  23.320  27.123  10.231 -0.1658  0.0176  0.3913
 3680POPC   PO482123  23.629  27.318  10.175 -0.3716 -0.0749 -0.1486
 3680POPC   GL182124  23.638  27.308   9.771  0.0032 -0.2223 -0.0705
 3680POPC   GL282125  23.416  27.477   9.786 -0.1285  0.0669  0.0195
 3680POPC   C1A82126  23.991  27.138   9.482 -0.1258 -0.4811  0.0385
 3680POPC   D2A82127  24.155  26.772   9.312  0.2828 -0.1860 -0.0080
 3680POPC   C3A82128  24.216  26.380   9.556  0.0941  0.2369 -0.1616
 3680POPC   C4A82129  24.379  25.928   9.425 -0.0804  0.1253 -0.3450
 3680POPC   C1B82130  23.461  27.325   9.368 -0.0346 -0.0484  0.1022
 3680POPC   C2B82131  23.545  27.153   8.991  0.0953  0.1821 -0.2055
 3680POPC   C3B82132  23.624  26.885   8.634  0.1488 -0.0861 -0.2378
 3680POPC   C4B82133  23.709  26.543   8.345  0.1631  0.0848  0.2764
 3681POPC   NC382134  19.161  18.253  16.119  0.1784  0.0814  0.1836
 3681POPC   PO482135  19.459  18.089  15.880  0.0612  0.0137 -0.2669
 3681POPC   GL182136  19.537  18.063  16.306  0.1065  0.2112  0.2623
 3681POPC   GL282137  19.656  18.258  16.311 -0.2600 -0.2178 -0.3838
 3681POPC   C1A82138  19.587  17.773  16.689  0.2028 -0.2888 -0.0499
 3681POPC   D2A82139  19.720  17.644  17.100 -0.3476  0.1424  0.0640
 3681POPC   C3A82140  19.797  17.486  17.552  0.2354 -0.2556  0.2168
 3681POPC   C4A82141  19.999  17.216  17.879  0.0975 -0.0715 -0.3023
 3681POPC   C1B82142  19.867  18.584  16.480 -0.2335  0.1538 -0.1214
 3681POPC   C2B82143  19.999  18.676  16.925 -0.0262 -0.0561  0.4530
 3681POPC   C3B82144  19.759  18.668  17.314 -0.0256 -0.1893 -0.0106
 3681POPC   C4B82145  19.771  18.642  17.757 -0.3062 -0.0650  0.0961
 3682POPC   NC382146  28.502  18.050  11.485  0.1362  0.0869 -0.1438
 3682POPC   PO482147  28.648  18.092  11.151  0.1498  0.1377 -0.0555
 3682POPC   GL182148  28.758  18.476  11.270 -0.3803 -0.0232 -0.0222
 3682POPC   GL282149  28.817  18.743  11.166 -0.0603  0.1999 -0.1934
 3682POPC   C1A82150  28.804  18.759  11.637 -0.1013 -0.4831  0.0879
 3682POPC   D2A82151  28.433  19.051  11.710 -0.0110  0.1305  0.1044
 3682POPC   C3A82152  28.209  19.368  11.515 -0.1659 -0.3738 -0.0041
 3682POPC   C4A82153  27.910  19.668  11.398 -0.2056 -0.4585  0.0505
 3682POPC   C1B82154  28.543  19.079  11.227 -0.1659 -0.0222  0.1027
 3682POPC   C2B82155  28.454  19.498  11.122 -0.2604 -0.2332  0.0752
 3682POPC   C3B82156  28.263  19.920  11.065 -0.3874  0.1742 -0.0137
 3682POPC   C4B82157  27.938  20.179  11.164 -0.0344 -0.3805  0.1369
 3683POPC   NC382158  17.169  16.305  15.886  0.3435  0.1715  0.2880
 3683POPC   PO482159  17.504  16.374  16.067  0.1439 -0.2292 -0.0480
 3683POPC   GL182160  17.839  16.216  16.411  0.2315 -0.3508 -0.2595
 3683POPC   GL282161  18.064  16.349  16.218  0.0283  0.1206 -0.2985
 3683POPC   C1A82162  17.910  16.214  16.844 -0.2329 -0.1624 -0.0178
 3683POPC   D2A82163  18.181  16.360  17.156  0.1051 -0.2401  0.3746
 3683POPC   C3A82164  18.470  16.684  17.181  0.1150 -0.1874  0.1246
 3683POPC   C4A82165  18.849  16.929  17.165 -0.1465 -0.0314 -0.0848
 3683POPC   C1B82166  18.313  16.229  16.581 -0.0778 -0.0294  0.0290
 3683POPC   C2B82167  18.644  16.263  16.835  0.1710 -0.1461 -0.1863
 3683POPC   C3B82168  18.970  16.436  17.188 -0.2008  0.1592  0.3796
 3683POPC   C4B82169  18.774  16.517  17.630  0.0582 -0.2122 -0.2911
 3684POPC   NC382170  28.220  28.023  16.211 -0.0572 -0.0258  0.3250
 3684POPC   PO482171  28.469  28.323  16.030 -0.0941  0.1755 -0.3180
 3684POPC   GL182172  28.538  28.376  16.398 -0.1007  0.0816  0.0790
 3684POPC   GL282173  28.641  28.085  16.503 -0.0728  0.0608 -0.0141
 3684POPC   C1A82174  28.460  28.703  16.727 -0.2435 -0.1530  0.4561
 3684POPC   D2A82175  28.241  29.020  17.019  0.0600  0.2826 -0.3126
 3684POPC   C3A82176  28.294  29.465  16.955 -0.1924  0.0210 -0.1805
 3684POPC   C4A82177  28.332  29.889  17.162  0.3096 -0.3677 -0.0321
 3684POPC   C1B82178  28.230  28.208  16.694 -0.1816  0.3506  0.3137
 3684POPC   C2B82179  28.055  28.573  16.957 -0.1751 -0.2034 -0.0900
 3684POPC   C3B82180  27.848  28.800  17.306  0.1450  0.0123  0.2035
 3684POPC   C4B82181  27.829  28.836  17.785 -0.1117  0.5170  0.0556
 3685POPC   NC382182  32.124  24.246  15.865  0.2912  0.0060 -0.1353
 3685POPC   PO482183  31.840  24.481  15.646  0.0044  0.2237 -0.1095
 3685POPC   GL182184  31.473  24.477  15.824 -0.0204  0.3261  0.1848
 3685POPC   GL282185  31.309  24.727  15.912  0.3551 -0.3129 -0.0611
 3685POPC   C1A82186  31.343  24.061  16.018  0.0965  0.2880 -0.0330
 3685POPC   D2A82187  31.384  23.744  16.407 -0.2806  0.1224 -0.0889
 3685POPC   C3A82188  31.723  23.612  16.627  0.2741 -0.2067 -0.0752
 3685POPC   C4A82189  31.890  23.376  17.015 -0.0228  0.1149 -0.0756
 3685POPC   C1B82190  31.079  24.486  16.215  0.1489 -0.0501 -0.0001
 3685POPC   C2B82191  31.008  24.080  16.432  0.2000  0.1914 -0.0749
 3685POPC   C3B82192  30.737  23.670  16.323 -0.0484 -0.0012  0.0271
 3685POPC   C4B82193  30.487  23.658  16.710  0.0733 -0.2175  0.2644
 3686POPC   NC382194  21.997  28.956  16.665 -0.0145 -0.0198  0.0309
 3686POPC   PO482195  21.654  29.106  16.615 -0.1276 -0.0065 -0.1302
 3686POPC   GL182196  21.833  29.122  17.067  0.0122  0.0801 -0.1725
 3686POPC   GL282197  21.721  28.872  17.057  0.3372  0.1025 -0.0480
 3686POPC   C1A82198  21.740  29.136  17.498 -0.2292  0.1677  0.0174
 3686POPC   D2A82199  21.574  29.184  17.907  0.0326  0.0133 -0.2426
 3686POPC   C3A82200  21.291  29.244  18.271  0.2967  0.2419  0.0126
 3686POPC   C4A82201  21.220  29.231  18.737 -0.0682  0.0811 -0.2569
 3686POPC   C1B82202  21.727  28.636  17.438  0.2405 -0.1697  0.1620
 3686POPC   C2B82203  21.750  28.678  17.906 -0.0887  0.0135  0.0268
 3686POPC   C3B82204  21.790  28.498  18.357 -0.0945  0.0987  0.1726
 3686POPC   C4B82205  21.844  28.504  18.808  0.0489 -0.1266  0.0386
 3687POPC   NC382206  29.942  28.289  16.209 -0.2928  0.1422 -0.2507
 3687POPC   PO482207  30.221  28.319  16.505  0.2303 -0.0338 -0.3428
 3687POPC   GL182208  30.165  28.518  16.844 -0.1777 -0.1878  0.2243
 3687POPC   GL282209  30.127  28.799  16.811 -0.0586 -0.3586  0.3865
 3687POPC   C1A82210  30.266  28.387  17.290 -0.0837 -0.0636 -0.0635
 3687POPC   D2A82211  30.334  28.268  17.736  0.0269 -0.0423 -0.0111
 3687POPC   C3A82212  30.379  27.900  17.998  0.2721 -0.1853  0.2292
 3687POPC   C4A82213  30.313  27.633  18.396 -0.1921  0.1424  0.0923
 3687POPC   C1B82214  29.916  28.785  17.208  0.0593 -0.1285 -0.1995
 3687POPC   C2B82215  29.563  28.517  17.497  0.1291 -0.1764 -0.1698
 3687POPC   C3B82216  29.522  28.446  17.968  0.0203 -0.0657  0.0289
 3687POPC   C4B82217  29.272  28.512  18.370 -0.0596 -0.0004 -0.2366
 3688POPC   NC382218  27.588  27.731  15.886 -0.0091  0.1503  0.3914
 3688POPC   PO482219  27.967  27.647  15.819 -0.0767  0.1313 -0.0708
 3688POPC   GL182220  28.032  27.435  16.083 -0.0666 -0.1241  0.3335
 3688POPC   GL282221  27.749  27.236  16.133 -0.2529 -0.1453 -0.2920
 3688POPC   C1A82222  28.240  27.080  16.313  0.0168 -0.0995 -0.1633
 3688POPC   D2A82223  28.143  26.804  16.647  0.2332 -0.0663  0.1045
 3688POPC   C3A82224  28.049  26.855  17.123  0.4278 -0.1424 -0.2001
 3688POPC   C4A82225  27.973  26.871  17.565  0.0563 -0.0878  0.2548
 3688POPC   C1B82226  27.545  27.299  16.536  0.2847 -0.0235  0.2399
 3688POPC   C2B82227  27.618  27.178  17.013 -0.0120 -0.1371 -0.0636
 3688POPC   C3B82228  27.469  27.013  17.512 -0.2799  0.1170  0.1411
 3688POPC   C4B82229  27.613  26.710  17.823  0.0896 -0.3300 -0.1117
 3689POPC   NC382230  31.963  23.153  14.501  0.0145 -0.2724 -0.1192
 3689POPC   PO482231  31.690  23.445  14.496  0.0621 -0.0366 -0.1634
 3689POPC   GL182232  31.405  23.317  14.760 -0.0133  0.2623 -0.2030
 3689POPC   GL282233  31.357  23.318  15.025 -0.0099 -0.1496  0.0541
 3689POPC   C1A82234  31.005  23.067  14.889  0.1267 -0.0137  0.3157
 3689POPC   D2A82235  30.559  22.967  15.031  0.2184 -0.1201 -0.3496
 3689POPC   C3A82236  30.133  23.092  15.193 -0.1321 -0.1367  0.0488
 3689POPC   C4A82237  29.852  23.442  15.198 -0.1626 -0.1306  0.0693
 3689POPC   C1B82238  31.027  23.265  15.355  0.0739 -0.3547  0.0178
 3689POPC   C2B82239  30.600  23.243  15.477 -0.2059 -0.1722 -0.0516
 3689POPC   C3B82240  30.184  23.300  15.753 -0.0848 -0.1134  0.0063
 3689POPC   C4B82241  29.725  23.420  15.904  0.1127 -0.2445 -0.0607
 3690POPC   NC382242  16.772  31.749  16.106  0.0994 -0.1221  0.2528
 3690POPC   PO482243  16.787  31.916  16.472  0.0594 -0.0172 -0.0449
 3690POPC   GL182244  16.855  31.983  16.889 -0.2719  0.1532  0.0416
 3690POPC   GL282245  17.059  31.788  16.921  0.1432  0.3171 -0.0810
 3690POPC   C1A82246  16.646  32.266  17.153  0.1653 -0.1455 -0.1057
 3690POPC   D2A82247  16.593  32.720  17.145 -0.3166 -0.2737  0.2201
 3690POPC   C3A82248  16.536  33.032  17.438  0.1318  0.0780 -0.0020
 3690POPC   C4A82249  16.584  33.235  17.864 -0.0310  0.1888  0.0487
 3690POPC   C1B82250  17.092  32.136  17.240  0.0601 -0.1250 -0.1149
 3690POPC   C2B82251  17.095  32.477  17.489  0.2228 -0.0987 -0.1552
 3690POPC   C3B82252  16.808  32.728  17.752  0.4577 -0.1312  0.0565
 3690POPC   C4B82253  16.532  32.797  18.112  0.3008  0.0945 -0.0067
 3691POPC   NC382254  26.402  17.173  10.203 -0.0471 -0.0451  0.0757
 3691POPC   PO482255  26.043  17.334  10.290  0.0926 -0.3063  0.2168
 3691POPC   GL182256  26.217  17.526  10.013  0.4663  0.2084 -0.1175
 3691POPC   GL282257  26.238  17.840  10.006 -0.1567  0.3239  0.2696
 3691POPC   C1A82258  26.088  17.638   9.550 -0.3562  0.0301 -0.0635
 3691POPC   D2A82259  26.202  17.810   9.132  0.1463  0.1275 -0.0755
 3691POPC   C3A82260  26.410  17.729   8.734 -0.1161 -0.1203  0.2937
 3691POPC   C4A82261  26.138  17.614   8.362  0.1599 -0.4125 -0.1751
 3691POPC   C1B82262  26.325  18.071   9.636  0.0228  0.1396  0.3252
 3691POPC   C2B82263  26.331  18.317   9.198  0.2276  0.1406  0.1735
 3691POPC   C3B82264  26.550  18.749   9.166  0.0614 -0.0459 -0.1160
 3691POPC   C4B82265  26.614  19.195   9.211  0.0015 -0.3064  0.3582
 3692POPC   NC382266  16.335  27.962  16.899  0.2824  0.1384 -0.0765
 3692POPC   PO482267  15.935  27.914  16.787  0.3699 -0.0457 -0.0866
 3692POPC   GL182268  15.853  27.934  17.159 -0.0761 -0.0875 -0.1795
 3692POPC   GL282269  15.929  28.100  17.299 -0.1042 -0.0357 -0.1741
 3692POPC   C1A82270  15.590  27.715  17.492 -0.0964  0.2715 -0.1364
 3692POPC   D2A82271  15.215  27.695  17.709  0.4567 -0.4686  0.1249
 3692POPC   C3A82272  15.131  27.496  18.116  0.3837 -0.1980  0.1698
 3692POPC   C4A82273  15.051  27.423  18.532 -0.1664  0.2135  0.3515
 3692POPC   C1B82274  16.023  28.365  17.681 -0.3783  0.1848 -0.2343
 3692POPC   C2B82275  15.902  28.597  18.065  0.1686  0.1937 -0.0345
 3692POPC   C3B82276  15.762  28.567  18.487 -0.2086 -0.2513 -0.2085
 3692POPC   C4B82277  15.705  28.469  18.903  0.1000 -0.1252  0.0341
 3693POPC   NC382278  26.418  32.115  15.044  0.2230 -0.1240  0.1614
 3693POPC   PO482279  26.378  31.772  15.229 -0.2170 -0.0972 -0.2132
 3693POPC   GL182280  26.100  32.050  15.353 -0.1608 -0.0404 -0.0164
 3693POPC   GL282281  26.064  31.940  15.614  0.2811  0.1517 -0.0484
 3693POPC   C1A82282  26.161  32.493  15.411  0.0583  0.1623  0.3526
 3693POPC   D2A82283  25.956  32.850  15.607 -0.0466  0.0389 -0.0438
 3693POPC   C3A82284  25.785  32.996  16.013 -0.1387  0.1327  0.0493
 3693POPC   C4A82285  25.653  33.265  16.386  0.1717 -0.0080  0.0201
 3693POPC   C1B82286  25.903  32.040  16.029  0.1697 -0.2738 -0.0620
 3693POPC   C2B82287  25.974  32.081  16.520 -0.3371 -0.0448 -0.0260
 3693POPC   C3B82288  26.087  32.429  16.773 -0.0024  0.2184 -0.4592
 3693POPC   C4B82289  26.140  32.539  17.167  0.0883  0.0587 -0.0025
 3694POPC   NC382290  31.846  22.068  14.777 -0.0484  0.0148  0.0125
 3694POPC   PO482291  31.812  22.450  14.660  0.0239  0.0310 -0.0411
 3694POPC   GL182292  31.403  22.308  14.698 -0.0760  0.0447 -0.0644
 3694POPC   GL282293  31.122  22.272  14.582 -0.2438  0.1174 -0.2973
 3694POPC   C1A82294  31.259  21.907  14.859 -0.2633  0.3947 -0.0007
 3694POPC   D2A82295  30.879  21.802  14.994  0.2170  0.0414 -0.2368
 3694POPC   C3A82296  30.444  21.642  14.929 -0.2798  0.1349 -0.2341
 3694POPC   C4A82297  30.236  21.548  14.538  0.2138 -0.4178 -0.0511
 3694POPC   C1B82298  30.855  22.537  14.903 -0.1109  0.3560  0.2680
 3694POPC   C2B82299  30.371  22.508  14.987  0.1003  0.1721 -0.0164
 3694POPC   C3B82300  29.954  22.450  15.256 -0.0196 -0.0537 -0.0572
 3694POPC   C4B82301  29.580  22.330  15.469 -0.1432 -0.0409 -0.1673
 3695POPC   NC382302  31.888  22.545  12.485  0.1512 -0.0559 -0.1727
 3695POPC   PO482303  31.591  22.590  12.213 -0.0543 -0.1719 -0.0292
 3695POPC   GL182304  31.230  22.618  12.092 -0.0928 -0.3174  0.0196
 3695POPC   GL282305  31.152  22.874  12.302  0.0607  0.0937 -0.0859
 3695POPC   C1A82306  30.859  22.360  12.025 -0.0226 -0.3386  0.3666
 3695POPC   D2A82307  30.439  22.447  11.894  0.0320  0.2605 -0.3052
 3695POPC   C3A82308  30.001  22.471  11.757  0.0779  0.0592  0.0777
 3695POPC   C4A82309  29.651  22.183  11.621  0.2692 -0.1040  0.1696
 3695POPC   C1B82310  30.688  22.807  12.312 -0.2009 -0.1926 -0.1523
 3695POPC   C2B82311  30.272  22.913  12.029  0.4812 -0.2533 -0.3830
 3695POPC   C3B82312  29.825  22.878  11.866 -0.1514 -0.0128  0.1092
 3695POPC   C4B82313  29.452  22.599  11.917  0.2016 -0.3922 -0.0811
 3696POPC   NC382314   0.306  16.665  16.312  0.2986 -0.0314  0.2953
 3696POPC   PO482315   0.288  16.285  16.315  0.3999  0.0966  0.3153
 3696POPC   GL182316   0.314  16.161  16.725  0.1029  0.2602 -0.1182
 3696POPC   GL282317   0.409  16.435  16.806 -0.2304  0.3125 -0.0064
 3696POPC   C1A82318   0.267  16.160  17.199  0.2093  0.3279  0.0086
 3696POPC   D2A82319   0.031  16.162  17.619  0.0486  0.0396  0.2384
 3696POPC   C3A82320  -0.045  15.967  18.000 -0.0039  0.1130 -0.2288
 3696POPC   C4A82321  -0.332  15.853  18.362  0.0538 -0.0489 -0.1725
 3696POPC   C1B82322   0.138  16.677  17.012  0.0712  0.2010  0.3749
 3696POPC   C2B82323  -0.111  16.551  17.369 -0.2523  0.1126  0.1896
 3696POPC   C3B82324  -0.334  16.690  17.711  0.2230  0.2242 -0.2809
 3696POPC   C4B82325  -0.661  16.768  18.100 -0.1909  0.0415 -0.0272
 3697POPC   NC382326  20.192  27.439  16.288  0.1243  0.1309 -0.1188
 3697POPC   PO482327  20.536  27.668  16.369  0.0401 -0.1092  0.0214
 3697POPC   GL182328  20.843  27.737  16.648  0.1859  0.0025 -0.0269
 3697POPC   GL282329  20.813  27.604  16.952  0.1328 -0.1198  0.0334
 3697POPC   C1A82330  21.259  27.462  16.840  0.0820 -0.1594 -0.0815
 3697POPC   D2A82331  21.473  27.064  16.870  0.1170  0.0012  0.1321
 3697POPC   C3A82332  21.338  27.108  17.296 -0.0355 -0.0771 -0.2501
 3697POPC   C4A82333  21.311  27.066  17.817  0.0353  0.1728  0.0653
 3697POPC   C1B82334  20.937  27.471  17.362  0.1189 -0.1566  0.0260
 3697POPC   C2B82335  20.859  27.430  17.789  0.0471  0.0380  0.0261
 3697POPC   C3B82336  21.038  27.294  18.137  0.1401  0.2570 -0.0301
 3697POPC   C4B82337  21.152  27.383  18.597 -0.0866 -0.0524  0.0867
 3698POPC   NC382338  20.103  19.544  15.848 -0.0508  0.1350  0.0538
 3698POPC   PO482339  19.781  19.395  15.712 -0.2360  0.1449  0.0607
 3698POPC   GL182340  19.557  19.496  16.000 -0.4868  0.1265  0.1129
 3698POPC   GL282341  19.700  19.764  16.102 -0.2526  0.3876 -0.1277
 3698POPC   C1A82342  19.588  19.411  16.461 -0.3914 -0.0060  0.1902
 3698POPC   D2A82343  19.869  19.084  16.647 -0.1375 -0.0067 -0.2874
 3698POPC   C3A82344  19.895  19.152  17.096 -0.0247 -0.0193 -0.2708
 3698POPC   C4A82345  20.159  19.425  17.414 -0.0809 -0.2582 -0.1118
 3698POPC   C1B82346  19.790  19.831  16.571 -0.1577  0.0561  0.1624
 3698POPC   C2B82347  19.649  19.693  16.992  0.1148  0.1790  0.0238
 3698POPC   C3B82348  19.691  19.576  17.436 -0.4073 -0.3466  0.0315
 3698POPC   C4B82349  19.764  19.523  17.911 -0.0596  0.0182 -0.4375
 3699POPC   NC382350  29.676  29.551  16.490  0.0785  0.3088 -0.0837
 3699POPC   PO482351  29.466  29.902  16.495 -0.0799  0.3162 -0.0039
 3699POPC   GL182352  29.523  30.003  16.892  0.2261  0.0430  0.0545
 3699POPC   GL282353  29.632  29.759  16.973  0.0316 -0.1787 -0.0663
 3699POPC   C1A82354  29.589  30.259  17.222  0.0296 -0.0175  0.2354
 3699POPC   D2A82355  29.417  30.428  17.597 -0.1740  0.1077 -0.2858
 3699POPC   C3A82356  29.528  30.686  17.928  0.0132  0.2662 -0.0053
 3699POPC   C4A82357  29.475  30.739  18.388  0.1170 -0.0078 -0.1745
 3699POPC   C1B82358  29.633  29.838  17.485 -0.1802 -0.2220  0.0749
 3699POPC   C2B82359  29.545  29.511  17.854 -0.0325  0.1146  0.4426
 3699POPC   C3B82360  29.680  29.300  18.114 -0.2254  0.0056  0.3679
 3699POPC   C4B82361  29.859  29.370  18.504  0.1400  0.1131  0.1558
 3700POPC   NC382362  25.790  27.239  12.742  0.1744  0.2142  0.2809
 3700POPC   PO482363  25.681  27.048  13.049 -0.0364  0.1283 -0.1399
 3700POPC   GL182364  25.705  26.722  13.134 -0.1020 -0.1004 -0.1304
 3700POPC   GL282365  25.910  26.534  12.952 -0.1955  0.1934 -0.2299
 3700POPC   C1A82366  25.393  26.360  13.239 -0.1339 -0.1207 -0.0331
 3700POPC   D2A82367  25.150  25.930  13.237  0.2974  0.1419 -0.0545
 3700POPC   C3A82368  25.110  25.539  13.497  0.1041  0.1300 -0.0871
 3700POPC   C4A82369  25.090  25.081  13.563  0.1486  0.1884 -0.2869
 3700POPC   C1B82370  25.917  26.147  12.704  0.0912  0.0203 -0.0541
 3700POPC   C2B82371  25.982  25.699  12.720  0.0633 -0.2915 -0.2578
 3700POPC   C3B82372  25.918  25.317  12.512 -0.1614  0.1272  0.0101
 3700POPC   C4B82373  26.130  25.086  12.138 -0.1190  0.1706  0.0326
 3701POPC   NC382374  18.757  25.067  15.901  0.0874 -0.0902 -0.1214
 3701POPC   PO482375  19.009  25.254  16.132 -0.0828  0.3169 -0.1374
 3701POPC   GL182376  19.035  25.010  16.372 -0.2616 -0.1629 -0.0706
 3701POPC   GL282377  18.770  25.020  16.519  0.6092 -0.0128 -0.0006
 3701POPC   C1A82378  19.150  25.067  16.835  0.0329  0.0771  0.4748
 3701POPC   D2A82379  19.081  25.210  17.253 -0.1194  0.1183  0.1356
 3701POPC   C3A82380  18.738  25.478  17.366  0.2847 -0.1524  0.1980
 3701POPC   C4A82381  18.467  25.894  17.284  0.1050  0.2074  0.0984
 3701POPC   C1B82382  18.664  25.085  16.945 -0.0796 -0.3082  0.0146
 3701POPC   C2B82383  18.600  24.859  17.332 -0.2407 -0.1248 -0.2093
 3701POPC   C3B82384  18.458  24.702  17.758 -0.0680  0.0507 -0.1965
 3701POPC   C4B82385  18.276  24.610  18.207 -0.2980 -0.0064  0.0157
 3702POPC   NC382386  26.817  27.105  12.171 -0.0899  0.2844  0.0113
 3702POPC   PO482387  26.458  26.963  12.271 -0.2357  0.1162  0.1955
 3702POPC   GL182388  26.342  26.670  11.989 -0.4073 -0.1424 -0.0183
 3702POPC   GL282389  26.554  26.610  11.896 -0.1559  0.0744  0.1208
 3702POPC   C1A82390  26.180  26.304  11.734  0.0176  0.1197 -0.2329
 3702POPC   D2A82391  26.162  26.142  11.316  0.1375 -0.6230  0.0657
 3702POPC   C3A82392  26.233  25.813  11.030  0.0891 -0.3021  0.0761
 3702POPC   C4A82393  26.333  25.425  11.027 -0.2338 -0.1428 -0.2373
 3702POPC   C1B82394  26.550  26.206  12.087  0.2210 -0.1754 -0.1119
 3702POPC   C2B82395  26.720  25.905  12.294  0.0125 -0.0956  0.2306
 3702POPC   C3B82396  26.344  25.596  12.430 -0.0754  0.0151  0.1491
 3702POPC   C4B82397  26.447  25.286  12.737  0.0565  0.1333  0.3080
 3703POPC   NC382398  22.902  25.707  14.663  0.2582 -0.2364  0.1068
 3703POPC   PO482399  22.605  25.455  14.804  0.1849  0.2852  0.0661
 3703POPC   GL182400  22.669  25.510  15.150 -0.2207  0.0399  0.0857
 3703POPC   GL282401  22.998  25.545  15.134  0.0132 -0.0180  0.3250
 3703POPC   C1A82402  22.631  25.254  15.532 -0.0657  0.0441  0.1311
 3703POPC   D2A82403  23.036  25.194  15.851  0.1295  0.1252  0.3063
 3703POPC   C3A82404  22.980  25.315  16.275 -0.0822 -0.2010  0.2680
 3703POPC   C4A82405  22.915  25.090  16.654 -0.1290  0.1046 -0.3501
 3703POPC   C1B82406  23.109  25.160  15.348  0.1815 -0.0601  0.1968
 3703POPC   C2B82407  23.274  24.797  15.490 -0.1030  0.1694 -0.2597
 3703POPC   C3B82408  23.678  24.711  15.644  0.0738 -0.0638 -0.1011
 3703POPC   C4B82409  24.064  24.988  15.666  0.0027  0.0678  0.5546
 3704POPC   NC382410  20.202  25.544  15.850  0.0051  0.1547  0.0641
 3704POPC   PO482411  19.833  25.434  15.943  0.2258 -0.0040 -0.2030
 3704POPC   GL182412  19.758  25.481  16.347  0.1977 -0.0518 -0.3706
 3704POPC   GL282413  20.051  25.601  16.368 -0.0282  0.0406 -0.2502
 3704POPC   C1A82414  19.765  25.337  16.787 -0.0519 -0.0929 -0.5042
 3704POPC   D2A82415  20.034  25.100  17.117  0.0361 -0.2559 -0.0381
 3704POPC   C3A82416  20.238  24.943  17.606 -0.0561 -0.2489  0.0627
 3704POPC   C4A82417  20.546  25.039  17.881  0.2813  0.1597  0.1120
 3704POPC   C1B82418  20.247  25.317  16.658 -0.1340  0.0745  0.1657
 3704POPC   C2B82419  20.660  25.101  16.626  0.3808 -0.2623  0.0215
 3704POPC   C3B82420  20.978  24.976  16.940  0.1202  0.1050  0.1919
 3704POPC   C4B82421  21.251  24.897  17.235 -0.3429 -0.4739  0.2345
 3705POPC   NC382422  32.018  31.235  16.544 -0.3075  0.1483  0.2546
 3705POPC   PO482423  31.834  31.461  16.249  0.1321  0.4138  0.1333
 3705POPC   GL182424  31.897  31.670  16.654  0.3435  0.1796  0.1067
 3705POPC   GL282425  31.635  31.555  16.785 -0.0626 -0.1420 -0.0440
 3705POPC   C1A82426  31.938  31.957  16.988 -0.0300 -0.0706 -0.1739
 3705POPC   D2A82427  32.202  32.148  17.364  0.0362  0.1275 -0.2308
 3705POPC   C3A82428  32.108  32.140  17.784 -0.3112  0.1424  0.0466
 3705POPC   C4A82429  32.148  31.726  18.010  0.0012  0.1523  0.2921
 3705POPC   C1B82430  31.457  31.672  17.159  0.0057 -0.0618 -0.2401
 3705POPC   C2B82431  31.363  31.584  17.570  0.0699 -0.1418 -0.1329
 3705POPC   C3B82432  31.213  31.572  17.996 -0.0256  0.1960  0.0359
 3705POPC   C4B82433  30.957  31.606  18.404 -0.2177  0.1502  0.2071
 3706POPC   NC382434  28.336  27.006  12.717  0.1636  0.2595  0.0328
 3706POPC   PO482435  28.004  27.013  12.994 -0.0198  0.1332  0.0783
 3706POPC   GL182436  28.005  26.527  13.011 -0.2451  0.1698 -0.0967
 3706POPC   GL282437  28.284  26.414  12.856  0.1207 -0.0828  0.1849
 3706POPC   C1A82438  27.812  26.111  13.136  0.1345 -0.1347  0.1762
 3706POPC   D2A82439  27.941  25.706  13.434  0.1936 -0.0903 -0.0666
 3706POPC   C3A82440  28.061  25.830  13.845  0.0830 -0.0408  0.0461
 3706POPC   C4A82441  27.831  26.216  14.026 -0.5579 -0.0313  0.0751
 3706POPC   C1B82442  28.342  26.056  12.590 -0.0482  0.2695  0.0171
 3706POPC   C2B82443  28.511  25.644  12.490  0.0607  0.2973 -0.0350
 3706POPC   C3B82444  28.746  25.269  12.524  0.0492  0.0834 -0.0410
 3706POPC   C4B82445  28.696  24.780  12.566  0.0092  0.1855  0.2920
 3707POPC   NC382446  28.894  31.013  16.354 -0.1413 -0.2700  0.3352
 3707POPC   PO482447  29.214  31.124  16.176 -0.1647 -0.2378  0.2847
 3707POPC   GL182448  29.322  31.214  16.564 -0.1793  0.4415  0.0908
 3707POPC   GL282449  29.179  31.473  16.637  0.0353  0.1722  0.1258
 3707POPC   C1A82450  29.004  31.000  16.885 -0.1937  0.0493 -0.0360
 3707POPC   D2A82451  28.806  31.048  17.343 -0.0311 -0.1148 -0.1269
 3707POPC   C3A82452  28.876  31.365  17.672 -0.2028 -0.1845 -0.2275
 3707POPC   C4A82453  28.836  31.279  18.137 -0.3089  0.0441  0.0314
 3707POPC   C1B82454  29.470  31.704  16.958 -0.0842  0.1483 -0.1654
 3707POPC   C2B82455  29.628  32.038  17.258 -0.3486  0.0004  0.0848
 3707POPC   C3B82456  29.555  32.271  17.635  0.1504  0.0896  0.3135
 3707POPC   C4B82457  29.380  32.567  17.811  0.2234 -0.1097 -0.0452
 3708POPC   NC382458  31.968  32.666  15.782 -0.0777  0.0724 -0.3781
 3708POPC   PO482459  32.005  32.654  16.148 -0.2113  0.0970  0.2418
 3708POPC   GL182460  31.878  32.787  16.516 -0.0237 -0.1968  0.0738
 3708POPC   GL282461  31.842  33.031  16.505 -0.0481 -0.0706  0.1947
 3708POPC   C1A82462  31.772  32.741  16.947 -0.2314 -0.0030 -0.4817
 3708POPC   D2A82463  31.806  32.563  17.359 -0.0360 -0.1794 -0.2215
 3708POPC   C3A82464  32.134  32.622  17.673  0.3437 -0.3105  0.1126
 3708POPC   C4A82465  32.531  32.413  17.663  0.0126  0.3391  0.0973
 3708POPC   C1B82466  31.691  33.295  16.805  0.2099  0.0677  0.0472
 3708POPC   C2B82467  31.861  33.547  17.178 -0.0033 -0.1699  0.7199
 3708POPC   C3B82468  31.943  33.467  17.594  0.1465  0.1470  0.0943
 3708POPC   C4B82469  32.185  33.548  17.989 -0.0778  0.0919  0.0944
 3709POPC   NC382470  18.632  27.143  16.103  0.3291 -0.0461 -0.1553
 3709POPC   PO482471  18.882  27.337  16.342 -0.1680 -0.1397 -0.0420
 3709POPC   GL182472  18.685  27.258  16.725 -0.1173 -0.0864 -0.0021
 3709POPC   GL282473  18.744  26.958  16.772 -0.1582 -0.0473  0.1276
 3709POPC   C1A82474  18.608  27.330  17.199  0.4183  0.0516  0.3367
 3709POPC   D2A82475  18.488  27.117  17.567 -0.2598  0.0262 -0.2981
 3709POPC   C3A82476  18.756  26.794  17.735 -0.0920 -0.0581  0.0959
 3709POPC   C4A82477  18.803  26.450  18.129 -0.1065  0.2270  0.0913
 3709POPC   C1B82478  18.770  26.695  17.188 -0.0602  0.0867  0.0972
 3709POPC   C2B82479  18.566  26.454  17.495 -0.0019  0.0697 -0.1489
 3709POPC   C3B82480  18.485  26.179  17.877  0.0786  0.1446 -0.1970
 3709POPC   C4B82481  18.486  26.075  18.309  0.0076 -0.0309 -0.1157
 3710POPC   NC382482  19.928  24.572  16.256  0.0044  0.3484  0.1718
 3710POPC   PO482483  20.225  24.454  16.066  0.0505  0.0752 -0.1149
 3710POPC   GL182484  20.390  24.219  16.313  0.1228 -0.1358 -0.2629
 3710POPC   GL282485  20.215  24.267  16.608  0.0589 -0.0085 -0.1282
 3710POPC   C1A82486  20.737  24.025  16.600  0.0039 -0.3645  0.2907
 3710POPC   D2A82487  21.124  23.882  16.834 -0.3786  0.0275  0.0867
 3710POPC   C3A82488  20.947  23.661  17.191 -0.0866 -0.2414  0.4029
 3710POPC   C4A82489  20.877  23.279  17.427 -0.3146 -0.2624 -0.4344
 3710POPC   C1B82490  20.493  24.350  16.983  0.0382  0.1356  0.0662
 3710POPC   C2B82491  20.632  24.089  17.316  0.0436 -0.0029  0.1368
 3710POPC   C3B82492  20.773  24.296  17.703  0.0988 -0.0383 -0.1680
 3710POPC   C4B82493  21.162  24.236  17.926 -0.1329 -0.0069 -0.1107
 3711POPC   NC382494  27.453  28.248  15.903 -0.2563 -0.1523  0.1092
 3711POPC   PO482495  27.598  28.572  16.144 -0.4817 -0.0226  0.2204
 3711POPC   GL182496  27.580  28.537  16.530  0.0965  0.2348  0.1307
 3711POPC   GL282497  27.754  28.267  16.507  0.1582 -0.1757  0.4069
 3711POPC   C1A82498  27.459  28.315  16.938 -0.0149 -0.0598 -0.1392
 3711POPC   D2A82499  27.788  28.241  17.280  0.0447 -0.3314 -0.1294
 3711POPC   C3A82500  28.260  28.265  17.340  0.3327  0.2506 -0.0439
 3711POPC   C4A82501  28.592  28.222  17.020 -0.5673 -0.0993  0.0182
 3711POPC   C1B82502  27.825  27.936  16.803 -0.0001  0.3224 -0.0407
 3711POPC   C2B82503  27.764  27.750  17.205  0.1571  0.0180 -0.0863
 3711POPC   C3B82504  27.820  27.413  17.450 -0.1381 -0.0408 -0.3560
 3711POPC   C4B82505  27.902  27.246  17.851  0.2481 -0.0621 -0.3174
 3712POPC   NC382506  19.250  28.840  17.056 -0.1862 -0.0713  0.3449
 3712POPC   PO482507  19.611  28.670  17.168 -0.1897 -0.3625  0.0808
 3712POPC   GL182508  19.855  28.569  17.360  0.1528 -0.2176 -0.2244
 3712POPC   GL282509  19.721  28.292  17.501 -0.1045  0.1468 -0.0016
 3712POPC   C1A82510  19.924  28.733  17.765  0.0071 -0.2974 -0.0722
 3712POPC   D2A82511  20.375  28.855  17.969 -0.0124 -0.0152 -0.0368
 3712POPC   C3A82512  20.447  28.777  18.413  0.0515  0.1034  0.1577
 3712POPC   C4A82513  20.523  28.528  18.774  0.2049  0.0837  0.2671
 3712POPC   C1B82514  19.750  28.323  17.986  0.1494  0.1487 -0.1433
 3712POPC   C2B82515  19.440  28.414  18.362  0.1473 -0.2251  0.0974
 3712POPC   C3B82516  19.107  28.651  18.577 -0.3726  0.2821  0.1115
 3712POPC   C4B82517  18.814  28.851  18.817  0.0686 -0.1163  0.1248
 3713POPC   NC382518  22.752  19.058  12.251  0.0818  0.2875  0.0632
 3713POPC   PO482519  22.804  18.814  12.547 -0.1010 -0.0581 -0.0867
 3713POPC   GL182520  23.110  18.724  12.783  0.1605 -0.1129  0.2781
 3713POPC   GL282521  23.372  18.631  12.606 -0.1551 -0.1696 -0.0125
 3713POPC   C1A82522  23.382  18.864  13.112 -0.1071  0.2401 -0.2306
 3713POPC   D2A82523  23.645  18.972  13.452  0.1312 -0.0582  0.3651
 3713POPC   C3A82524  23.833  19.331  13.657  0.2609  0.1579 -0.0296
 3713POPC   C4A82525  23.710  19.756  13.685 -0.0272  0.0854 -0.0177
 3713POPC   C1B82526  23.728  18.511  12.824 -0.3115  0.0785 -0.0661
 3713POPC   C2B82527  23.942  18.800  13.063  0.0831 -0.2659 -0.2005
 3713POPC   C3B82528  24.133  19.115  13.341  0.1181  0.4197  0.0128
 3713POPC   C4B82529  24.282  19.505  13.466 -0.1068  0.0077 -0.1662
 3714POPC   NC382530  25.180  28.970  16.256 -0.2207  0.0025 -0.2755
 3714POPC   PO482531  25.297  28.680  16.531 -0.1856 -0.2257  0.0351
 3714POPC   GL182532  25.449  28.536  16.899  0.0236  0.1446 -0.1895
 3714POPC   GL282533  25.367  28.773  17.004 -0.2526 -0.3703 -0.0909
 3714POPC   C1A82534  25.401  28.318  17.311  0.2027 -0.1319  0.1428
 3714POPC   D2A82535  25.563  28.004  17.594 -0.1015 -0.1434 -0.1503
 3714POPC   C3A82536  25.794  28.128  18.052  0.2369 -0.0143  0.0679
 3714POPC   C4A82537  25.698  28.394  18.370  0.0759 -0.0355 -0.0687
 3714POPC   C1B82538  25.490  29.072  17.344  0.0816 -0.0452  0.0100
 3714POPC   C2B82539  25.697  29.065  17.762 -0.1780 -0.0536 -0.0306
 3714POPC   C3B82540  25.701  28.920  18.219  0.0008  0.2043 -0.1126
 3714POPC   C4B82541  25.635  28.838  18.618  0.0421  0.4783  0.0414
 3715POPC   NC382542  18.742  19.461  15.479  0.1182 -0.1203 -0.1021
 3715POPC   PO482543  18.796  19.814  15.293 -0.2707  0.2142 -0.0361
 3715POPC   GL182544  19.065  19.876  15.655  0.2321  0.0091  0.0244
 3715POPC   GL282545  19.284  19.900  15.950 -0.1671  0.0402  0.1959
 3715POPC   C1A82546  18.841  19.702  16.006 -0.1812 -0.0267  0.1316
 3715POPC   D2A82547  18.824  19.820  16.448  0.4398  0.0707  0.1713
 3715POPC   C3A82548  18.723  19.665  16.864  0.2046 -0.0451  0.0583
 3715POPC   C4A82549  18.580  19.489  17.268 -0.0363 -0.1445  0.2345
 3715POPC   C1B82550  19.387  19.974  16.386 -0.3488  0.3400 -0.0312
 3715POPC   C2B82551  19.221  20.099  16.833 -0.1450  0.0423  0.0997
 3715POPC   C3B82552  19.104  19.889  17.214 -0.0403 -0.0190 -0.1829
 3715POPC   C4B82553  18.731  19.899  17.527  0.2528 -0.1551  0.1037
 3716POPC   NC382554  26.806  26.638  12.315 -0.2997 -0.2212 -0.4571
 3716POPC   PO482555  26.687  26.806  12.667  0.1228 -0.2440 -0.1483
 3716POPC   GL182556  26.896  26.441  12.848  0.0902  0.0490  0.7183
 3716POPC   GL282557  26.915  26.231  12.680  0.0806  0.0517 -0.0661
 3716POPC   C1A82558  27.212  26.158  13.047  0.0024  0.1244 -0.0635
 3716POPC   D2A82559  27.473  25.766  13.139 -0.0339  0.1832 -0.0979
 3716POPC   C3A82560  27.701  25.376  13.129 -0.1048  0.2466  0.3413
 3716POPC   C4A82561  27.591  24.972  12.988 -0.0386 -0.0873 -0.0666
 3716POPC   C1B82562  27.131  25.862  12.571  0.3825  0.1696  0.0757
 3716POPC   C2B82563  27.445  25.522  12.633 -0.0770  0.0474 -0.4191
 3716POPC   C3B82564  27.842  25.357  12.569  0.0200  0.0273  0.1773
 3716POPC   C4B82565  28.123  25.064  12.718 -0.0658 -0.0831  0.1202
 3717POPC   NC382566  18.301  21.616  15.808 -0.2467  0.0668  0.0970
 3717POPC   PO482567  18.684  21.492  15.727  0.2640  0.1572  0.0021
 3717POPC   GL182568  18.635  21.614  16.162  0.5629 -0.1810  0.2150
 3717POPC   GL282569  18.630  21.349  16.249  0.2306 -0.0270 -0.1437
 3717POPC   C1A82570  18.838  21.903  16.467  0.2998 -0.2274 -0.0751
 3717POPC   D2A82571  18.717  21.936  16.954  0.1215  0.0768  0.0751
 3717POPC   C3A82572  18.319  21.894  17.192  0.0512 -0.0888 -0.1308
 3717POPC   C4A82573  18.101  22.031  17.615 -0.2264  0.0150  0.0213
 3717POPC   C1B82574  18.515  21.532  16.671 -0.2780 -0.0319  0.1527
 3717POPC   C2B82575  18.620  21.413  17.112 -0.5818  0.2850 -0.3796
 3717POPC   C3B82576  18.574  21.001  17.246 -0.2824 -0.2070 -0.2643
 3717POPC   C4B82577  18.868  20.724  17.498  0.2703 -0.2760 -0.2821
 3718POPC   NC382578  31.628  24.031  15.649 -0.0027 -0.2382 -0.0847
 3718POPC   PO482579  31.561  23.868  15.303  0.0699  0.1860  0.1384
 3718POPC   GL182580  31.224  23.704  15.329 -0.0446 -0.0924  0.0997
 3718POPC   GL282581  31.300  23.643  15.606 -0.3639 -0.1443 -0.1846
 3718POPC   C1A82582  30.823  23.704  15.505  0.0235 -0.0881  0.1022
 3718POPC   D2A82583  30.592  23.574  15.846  0.2229  0.5202 -0.1251
 3718POPC   C3A82584  30.745  23.215  16.112  0.1714 -0.2137 -0.1177
 3718POPC   C4A82585  30.813  22.831  16.430 -0.1487  0.0825 -0.1038
 3718POPC   C1B82586  31.137  23.554  16.005  0.2338  0.2799  0.0026
 3718POPC   C2B82587  31.133  23.317  16.440 -0.1465 -0.1535  0.1212
 3718POPC   C3B82588  30.788  23.247  16.721  0.1702  0.0196 -0.1567
 3718POPC   C4B82589  30.659  23.357  17.131 -0.3756  0.1960 -0.4361
 3719POPC   NC382590  26.095  29.634   9.207  0.3758 -0.1481  0.3023
 3719POPC   PO482591  26.361  29.527   8.993  0.1166  0.1905 -0.1185
 3719POPC   GL182592  26.419  29.567   8.618  0.0570 -0.3760 -0.0206
 3719POPC   GL282593  26.352  29.794   8.400  0.2134  0.2190  0.0037
 3719POPC   C1A82594  26.277  29.304   8.277  0.0710  0.1749 -0.1882
 3719POPC   D2A82595  26.340  29.266   7.769 -0.1946  0.0441 -0.0633
 3719POPC   C3A82596  26.303  29.183   7.341  0.1368  0.0711  0.2389
 3719POPC   C4A82597  25.952  29.051   7.069  0.2280 -0.2384 -0.2301
 3719POPC   C1B82598  26.417  29.783   7.889  0.0329  0.1761  0.2082
 3719POPC   C2B82599  26.196  29.673   7.526 -0.2081 -0.0668 -0.1243
 3719POPC   C3B82600  26.035  29.725   7.075 -0.3123  0.0282 -0.2121
 3719POPC   C4B82601  25.816  29.758   6.697  0.0468 -0.1490 -0.0198
 3720POPC   NC382602  17.504  25.771  15.940  0.1893  0.2016  0.1885
 3720POPC   PO482603  17.373  25.377  15.963 -0.4714  0.0646 -0.2773
 3720POPC   GL182604  17.430  25.240  16.368 -0.1450 -0.1256 -0.0426
 3720POPC   GL282605  17.553  24.921  16.236 -0.1705 -0.1472 -0.1059
 3720POPC   C1A82606  17.186  25.335  16.715 -0.2388  0.2376 -0.1590
 3720POPC   D2A82607  17.036  25.362  17.136 -0.0057 -0.1654  0.2203
 3720POPC   C3A82608  16.630  25.612  17.263  0.0375 -0.4802 -0.1000
 3720POPC   C4A82609  16.146  25.697  17.191 -0.1947  0.0658  0.0625
 3720POPC   C1B82610  17.328  24.872  16.641 -0.1464  0.0219 -0.1284
 3720POPC   C2B82611  17.042  24.802  16.982  0.2185 -0.0581 -0.0820
 3720POPC   C3B82612  16.925  24.778  17.396 -0.0640 -0.0750 -0.2877
 3720POPC   C4B82613  17.053  24.636  17.799  0.2665 -0.0138 -0.1402
 3721POPC   NC382614  18.599  17.004  16.220 -0.0459  0.0875  0.0608
 3721POPC   PO482615  18.248  17.076  16.013 -0.0118 -0.1308 -0.1166
 3721POPC   GL182616  18.167  16.917  16.400 -0.0076 -0.2376 -0.1413
 3721POPC   GL282617  18.355  16.742  16.586  0.1756  0.0789  0.0390
 3721POPC   C1A82618  17.885  16.623  16.636  0.1641  0.0177  0.0489
 3721POPC   D2A82619  17.583  16.617  17.017  0.2939  0.0918 -0.1840
 3721POPC   C3A82620  17.429  16.169  17.052  0.2494 -0.0312 -0.3107
 3721POPC   C4A82621  17.330  15.742  17.022  0.2308 -0.0482  0.1034
 3721POPC   C1B82622  18.387  17.079  16.887 -0.2990  0.0661 -0.2989
 3721POPC   C2B82623  18.334  17.171  17.353 -0.0774  0.0904  0.0528
 3721POPC   C3B82624  18.586  16.954  17.651 -0.0272 -0.1402 -0.1839
 3721POPC   C4B82625  18.498  16.727  18.014  0.0436 -0.1251  0.0340
 3722POPC   NC382626  27.706  26.954  13.413 -0.2772  0.2970  0.0820
 3722POPC   PO482627  27.951  26.884  13.719 -0.1802  0.1700  0.2211
 3722POPC   GL182628  28.047  26.512  13.681  0.1766  0.0442  0.2056
 3722POPC   GL282629  27.782  26.415  13.572 -0.1761  0.1076 -0.1177
 3722POPC   C1A82630  28.292  26.265  13.336  0.5989  0.0732 -0.3123
 3722POPC   D2A82631  28.433  25.904  13.098 -0.1243 -0.0070 -0.0480
 3722POPC   C3A82632  28.059  25.688  12.877  0.1065 -0.2953 -0.1392
 3722POPC   C4A82633  27.697  25.913  12.689 -0.1459 -0.3553 -0.0107
 3722POPC   C1B82634  27.559  26.025  13.599  0.1330 -0.1504  0.0587
 3722POPC   C2B82635  27.137  25.915  13.520  0.0806  0.3033 -0.0147
 3722POPC   C3B82636  26.803  25.522  13.488  0.1400  0.0028 -0.1210
 3722POPC   C4B82637  26.699  25.146  13.193  0.3972  0.1882 -0.2242
 3723POPC   NC382638  31.141  23.673  12.621 -0.1689 -0.0681 -0.1924
 3723POPC   PO482639  31.381  23.357  12.525 -0.2006  0.2125  0.0758
 3723POPC   GL182640  31.083  23.124  12.715  0.0195  0.1429 -0.1769
 3723POPC   GL282641  30.955  23.317  12.932  0.0559  0.0408  0.1875
 3723POPC   C1A82642  30.916  22.669  12.737  0.2419 -0.1882 -0.2720
 3723POPC   D2A82643  30.499  22.481  12.692  0.0686  0.0866  0.3138
 3723POPC   C3A82644  30.186  22.458  12.365 -0.0691  0.2175  0.2202
 3723POPC   C4A82645  29.818  22.530  12.255  0.2090 -0.0049  0.2035
 3723POPC   C1B82646  30.524  23.381  12.861  0.0388 -0.2042  0.1839
 3723POPC   C2B82647  30.094  23.529  12.680  0.2181  0.2564 -0.2600
 3723POPC   C3B82648  29.632  23.617  12.845 -0.1798  0.1510 -0.1369
 3723POPC   C4B82649  29.197  23.345  12.813  0.0040 -0.2084  0.0768
 3724POPC   NC382650  27.797  29.549  16.308  0.0978 -0.1476 -0.5255
 3724POPC   PO482651  27.423  29.433  16.240  0.0383 -0.1107 -0.3111
 3724POPC   GL182652  27.316  29.522  16.618 -0.3243  0.1521 -0.0409
 3724POPC   GL282653  27.044  29.547  16.709 -0.0766 -0.0027 -0.0917
 3724POPC   C1A82654  27.450  29.680  17.021 -0.3050  0.1387 -0.0063
 3724POPC   D2A82655  27.348  29.870  17.447  0.0775 -0.0825  0.0931
 3724POPC   C3A82656  27.271  29.807  17.913 -0.0457  0.0036  0.3345
 3724POPC   C4A82657  27.132  29.776  18.368  0.0163  0.2997 -0.1791
 3724POPC   C1B82658  26.892  29.738  17.083  0.0786 -0.1363  0.1190
 3724POPC   C2B82659  26.776  29.858  17.538 -0.0399 -0.0304 -0.2313
 3724POPC   C3B82660  26.590  29.707  17.877 -0.2200 -0.1876 -0.1032
 3724POPC   C4B82661  26.348  29.558  18.208 -0.1208 -0.0812  0.2829
 3725POPC   NC382662  16.395  18.852  15.905  0.0870 -0.0963  0.2072
 3725POPC   PO482663  16.666  19.084  15.716 -0.0001  0.1549 -0.1008
 3725POPC   GL182664  16.576  19.293  16.037  0.1256  0.0520  0.2161
 3725POPC   GL282665  16.780  19.341  16.213  0.0837  0.0970  0.0757
 3725POPC   C1A82666  16.219  19.279  16.370  0.1376 -0.0457  0.2908
 3725POPC   D2A82667  15.959  18.978  16.530 -0.1187 -0.0905 -0.0745
 3725POPC   C3A82668  15.581  18.918  16.841 -0.1057  0.0120 -0.1679
 3725POPC   C4A82669  15.358  18.672  17.153  0.1564  0.0649 -0.0438
 3725POPC   C1B82670  16.780  19.336  16.702 -0.1142  0.1325  0.2976
 3725POPC   C2B82671  16.675  19.309  17.174 -0.2806  0.1469  0.1187
 3725POPC   C3B82672  16.650  19.332  17.601  0.0674 -0.0929 -0.1201
 3725POPC   C4B82673  16.852  19.262  18.026  0.1744 -0.3010  0.0492
 3726POPC   NC382674   0.186  31.715  16.245  0.1145 -0.2823 -0.2976
 3726POPC   PO482675  -0.069  31.413  16.302 -0.0354  0.3173 -0.0857
 3726POPC   GL182676  -0.310  31.438  16.634 -0.1798  0.3837  0.2328
 3726POPC   GL282677  -0.502  31.602  16.615  0.4105  0.1389 -0.1604
 3726POPC   C1A82678  -0.407  31.162  16.980 -0.1397 -0.1428  0.4312
 3726POPC   D2A82679  -0.564  31.050  17.353 -0.1999 -0.0312 -0.2779
 3726POPC   C3A82680  -0.701  31.225  17.784  0.1313  0.1648  0.0572
 3726POPC   C4A82681  -0.836  31.086  18.187  0.0117 -0.0092 -0.2341
 3726POPC   C1B82682  -0.331  31.718  17.028  0.1695  0.1382 -0.4498
 3726POPC   C2B82683  -0.222  31.882  17.473  0.1202  0.3454  0.2130
 3726POPC   C3B82684  -0.264  31.956  17.895  0.0986 -0.0920 -0.0376
 3726POPC   C4B82685  -0.175  31.755  18.354  0.0427 -0.0231 -0.0476
 3727POPC   NC382686  19.606  29.843  16.384  0.0292 -0.1118 -0.0350
 3727POPC   PO482687  19.426  29.712  16.721  0.1963 -0.3398 -0.1263
 3727POPC   GL182688  19.624  29.861  16.969  0.0104 -0.1551 -0.0801
 3727POPC   GL282689  19.550  30.126  17.079  0.3010  0.0702 -0.0301
 3727POPC   C1A82690  19.810  29.687  17.366 -0.0292  0.1706  0.2744
 3727POPC   D2A82691  19.550  29.711  17.726 -0.3680  0.3366  0.1053
 3727POPC   C3A82692  19.514  29.314  18.036  0.1148 -0.0080  0.0057
 3727POPC   C4A82693  19.530  28.809  18.111 -0.1593 -0.4621  0.0990
 3727POPC   C1B82694  19.631  30.106  17.487 -0.0533 -0.1009 -0.2067
 3727POPC   C2B82695  19.673  30.177  17.917  0.1130 -0.1164  0.1709
 3727POPC   C3B82696  19.806  29.986  18.370  0.1138 -0.1785  0.0357
 3727POPC   C4B82697  19.741  29.976  18.819  0.2766  0.0641 -0.0132
 3728POPC   NC382698  31.654  27.034  16.390  0.0735  0.2752 -0.0431
 3728POPC   PO482699  31.660  27.365  16.573  0.0905 -0.1120 -0.1465
 3728POPC   GL182700  31.776  27.071  16.838 -0.0616  0.0546  0.2025
 3728POPC   GL282701  31.857  27.211  17.105  0.2700 -0.0341  0.1146
 3728POPC   C1A82702  31.652  26.758  17.154 -0.1961  0.0873 -0.1450
 3728POPC   D2A82703  31.923  26.439  17.368  0.1722  0.2406 -0.0825
 3728POPC   C3A82704  31.764  26.238  17.763 -0.0467 -0.0658 -0.0103
 3728POPC   C4A82705  31.802  26.238  18.234 -0.2783  0.2210 -0.0691
 3728POPC   C1B82706  32.000  26.975  17.503  0.0670  0.1359  0.2787
 3728POPC   C2B82707  32.023  26.701  17.847  0.1973  0.0800  0.0308
 3728POPC   C3B82708  32.215  26.566  18.192 -0.0074 -0.2296 -0.1606
 3728POPC   C4B82709  32.515  26.815  18.447  0.0956 -0.1534 -0.0336
 3729POPC   NC382710  22.323  16.278  15.278  0.1029 -0.1736  0.1845
 3729POPC   PO482711  21.991  16.289  15.467 -0.0620  0.2956  0.1664
 3729POPC   GL182712  22.090  16.526  15.594  0.1669  0.0366  0.1100
 3729POPC   GL282713  22.368  16.645  15.674 -0.1028 -0.1008  0.2958
 3729POPC   C1A82714  22.143  16.450  16.086 -0.3219  0.1210  0.2408
 3729POPC   D2A82715  22.162  16.713  16.437 -0.0877 -0.1558  0.0648
 3729POPC   C3A82716  22.358  17.171  16.299  0.0676 -0.1077  0.3752
 3729POPC   C4A82717  22.440  17.516  16.085  0.3507 -0.2614 -0.1375
 3729POPC   C1B82718  22.562  16.874  15.978 -0.0237 -0.3849  0.0141
 3729POPC   C2B82719  22.781  16.904  16.369  0.0511  0.1395  0.0817
 3729POPC   C3B82720  23.180  16.999  16.552  0.0155  0.2808  0.0217
 3729POPC   C4B82721  23.587  17.045  16.680 -0.2644 -0.1441  0.0912
 3730POPC   NC382722  29.025  29.056  16.446  0.1969 -0.0205  0.0340
 3730POPC   PO482723  29.289  28.803  16.426 -0.3025  0.1048  0.0576
 3730POPC   GL182724  29.256  28.467  16.610 -0.0885 -0.1552 -0.1126
 3730POPC   GL282725  29.003  28.442  16.615 -0.0442  0.1672  0.1240
 3730POPC   C1A82726  29.324  28.359  17.049  0.1679  0.1410 -0.1975
 3730POPC   D2A82727  28.979  28.380  17.344  0.0119  0.3611 -0.0983
 3730POPC   C3A82728  28.636  28.197  17.586 -0.2426 -0.1639 -0.0147
 3730POPC   C4A82729  28.569  28.210  18.045  0.0862  0.0795  0.0813
 3730POPC   C1B82730  28.908  28.643  16.983  0.1066  0.1116  0.0420
 3730POPC   C2B82731  28.543  28.670  17.281 -0.1404 -0.0155 -0.1142
 3730POPC   C3B82732  28.457  28.814  17.720 -0.0801  0.1846 -0.0442
 3730POPC   C4B82733  28.309  28.822  18.161  0.0377 -0.2891 -0.0471
 3731POPC   NC382734  24.582  31.603  14.761 -0.1324 -0.3434 -0.2094
 3731POPC   PO482735  24.740  31.663  15.130  0.0504 -0.3623 -0.2202
 3731POPC   GL182736  24.844  32.002  15.402 -0.0928 -0.2765 -0.0106
 3731POPC   GL282737  25.089  32.063  15.331 -0.1277 -0.0837  0.0289
 3731POPC   C1A82738  24.870  31.837  15.839 -0.3050  0.0472  0.1519
 3731POPC   D2A82739  24.971  32.175  16.151  0.4661 -0.2744  0.0563
 3731POPC   C3A82740  24.794  32.271  16.570 -0.2601 -0.1009  0.0083
 3731POPC   C4A82741  24.701  32.463  16.960  0.3311  0.1592 -0.1474
 3731POPC   C1B82742  25.222  32.280  15.695 -0.1080 -0.2776 -0.0819
 3731POPC   C2B82743  25.068  32.654  15.970 -0.1077  0.2002  0.0636
 3731POPC   C3B82744  24.997  32.726  16.447 -0.1899  0.1864 -0.0556
 3731POPC   C4B82745  25.198  32.512  16.785  0.2435 -0.2659  0.0281
 3732POPC   NC382746  20.425  18.904  15.103 -0.0189 -0.1060  0.2390
 3732POPC   PO482747  20.402  18.717  15.421  0.3721  0.3508 -0.3038
 3732POPC   GL182748  20.717  18.482  15.687  0.0195 -0.0544 -0.0965
 3732POPC   GL282749  20.683  18.753  15.873 -0.2097  0.1969  0.1642
 3732POPC   C1A82750  21.107  18.483  15.955 -0.0094  0.2924 -0.0061
 3732POPC   D2A82751  21.297  18.862  16.078 -0.0136 -0.1702  0.0540
 3732POPC   C3A82752  21.517  19.256  16.048 -0.0266  0.1983  0.2723
 3732POPC   C4A82753  21.662  19.636  16.167 -0.1421 -0.3030 -0.1724
 3732POPC   C1B82754  20.750  18.583  16.310  0.1648  0.1605 -0.0777
 3732POPC   C2B82755  21.052  18.681  16.596  0.1498  0.2072 -0.2428
 3732POPC   C3B82756  21.461  18.515  16.819 -0.1341 -0.0666  0.3074
 3732POPC   C4B82757  21.784  18.341  17.158  0.0320  0.0938 -0.0512
 3733POPC   NC382758  28.780  27.095  11.812 -0.0876 -0.0651 -0.3188
 3733POPC   PO482759  28.995  27.362  11.659  0.1572 -0.0514  0.2853
 3733POPC   GL182760  28.893  27.031  11.367  0.0304 -0.0986  0.1909
 3733POPC   GL282761  29.023  26.769  11.254 -0.2396 -0.0997 -0.0976
 3733POPC   C1A82762  28.552  26.710  11.428 -0.3077 -0.0578  0.0899
 3733POPC   D2A82763  28.272  26.457  11.223 -0.0164 -0.1143  0.0899
 3733POPC   C3A82764  28.189  26.125  10.915 -0.1238  0.0411  0.0423
 3733POPC   C4A82765  28.178  25.707  10.840 -0.1002 -0.0472 -0.0141
 3733POPC   C1B82766  28.851  26.410  11.030 -0.3009  0.1731  0.2851
 3733POPC   C2B82767  28.678  25.918  10.987  0.0602 -0.1789  0.1342
 3733POPC   C3B82768  28.773  25.586  10.752 -0.1910  0.0879  0.1384
 3733POPC   C4B82769  28.541  25.379  10.446  0.0107 -0.0397 -0.2916
 3734POPC   NC382770  29.509  27.448  15.943 -0.0956  0.1639 -0.2417
 3734POPC   PO482771  29.656  27.790  16.062 -0.0386  0.0585 -0.1621
 3734POPC   GL182772  29.494  27.678  16.405  0.0918  0.3562  0.1521
 3734POPC   GL282773  29.700  27.454  16.402 -0.0365 -0.0361 -0.2255
 3734POPC   C1A82774  29.361  27.342  16.714 -0.0516 -0.1508  0.2674
 3734POPC   D2A82775  28.987  27.325  16.987  0.2639  0.1043 -0.3407
 3734POPC   C3A82776  29.101  27.341  17.414 -0.1022 -0.2017 -0.2651
 3734POPC   C4A82777  29.209  27.494  17.857  0.2593  0.2002  0.2963
 3734POPC   C1B82778  29.875  27.199  16.809 -0.3048 -0.1627 -0.1214
 3734POPC   C2B82779  29.640  27.305  17.218 -0.0116 -0.1427  0.1426
 3734POPC   C3B82780  29.671  27.431  17.670  0.0186 -0.2378  0.2079
 3734POPC   C4B82781  29.946  27.515  18.021 -0.0704 -0.0847  0.0882
 3735POPC   NC382782  27.203  27.309  15.278 -0.0871 -0.0412  0.1496
 3735POPC   PO482783  27.371  27.200  14.936 -0.0918 -0.1351 -0.2397
 3735POPC   GL182784  27.304  26.800  14.962  0.1345  0.1325  0.0582
 3735POPC   GL282785  27.227  26.660  14.717  0.1349 -0.0949 -0.0428
 3735POPC   C1A82786  27.272  26.483  15.328 -0.0627 -0.0212  0.2553
 3735POPC   D2A82787  27.219  26.172  15.674 -0.0214  0.0630  0.0493
 3735POPC   C3A82788  27.332  25.749  15.860  0.0985 -0.0897 -0.0155
 3735POPC   C4A82789  27.515  25.299  15.895 -0.0133 -0.0768  0.0649
 3735POPC   C1B82790  27.039  26.300  14.924 -0.0402  0.1015  0.3761
 3735POPC   C2B82791  27.204  26.017  15.206 -0.0946  0.2657  0.1182
 3735POPC   C3B82792  27.263  25.595  15.365 -0.1047  0.2931  0.2505
 3735POPC   C4B82793  27.349  25.190  15.219 -0.0882  0.1504 -0.0363
 3736POPC   NC382794  32.521  26.684  16.343  0.0150 -0.1439 -0.1155
 3736POPC   PO482795  32.640  26.648  16.696  0.3012 -0.0196 -0.2501
 3736POPC   GL182796  32.577  26.614  17.054 -0.0862  0.0592  0.2895
 3736POPC   GL282797  32.323  26.672  17.146  0.2714 -0.2082  0.3770
 3736POPC   C1A82798  32.469  26.274  17.307  0.1359  0.3754  0.1153
 3736POPC   D2A82799  32.264  26.295  17.764 -0.1521  0.1020  0.0560
 3736POPC   C3A82800  32.108  25.886  17.935 -0.0849  0.0666  0.2001
 3736POPC   C4A82801  31.942  25.726  18.318  0.3012  0.2658 -0.1041
 3736POPC   C1B82802  32.485  26.739  17.557 -0.0980  0.1224  0.3831
 3736POPC   C2B82803  32.350  26.989  17.984 -0.0680  0.0619  0.1436
 3736POPC   C3B82804  32.201  27.256  18.309 -0.2741  0.1918 -0.2492
 3736POPC   C4B82805  32.205  27.234  18.787  0.1366  0.1212 -0.2350
 3737POPC   NC382806  27.501  27.027  14.425 -0.2016 -0.0342 -0.1709
 3737POPC   PO482807  27.235  26.969  14.123 -0.1050 -0.2936  0.0988
 3737POPC   GL182808  27.269  26.582  14.223 -0.0774  0.0971  0.1562
 3737POPC   GL282809  27.329  26.393  14.052 -0.2561 -0.1800  0.1888
 3737POPC   C1A82810  27.568  26.338  14.441  0.0945  0.2525  0.0856
 3737POPC   D2A82811  27.546  25.892  14.676  0.0945 -0.0655  0.4578
 3737POPC   C3A82812  27.685  25.777  15.089  0.2001 -0.0889 -0.1036
 3737POPC   C4A82813  27.658  26.065  15.424 -0.0695  0.3411 -0.2296
 3737POPC   C1B82814  27.357  25.984  14.172 -0.0779 -0.1392 -0.0903
 3737POPC   C2B82815  27.327  25.509  14.278  0.1414  0.0650 -0.1775
 3737POPC   C3B82816  27.204  25.046  14.165  0.2080 -0.0169 -0.0320
 3737POPC   C4B82817  27.190  24.602  14.228 -0.1011 -0.0113 -0.1416
 3738POPC   NC382818  21.358  23.376  14.626  0.2017 -0.0145  0.0976
 3738POPC   PO482819  21.205  23.246  14.946 -0.0044  0.0760 -0.1605
 3738POPC   GL182820  21.126  23.308  15.330  0.0821  0.0784  0.3806
 3738POPC   GL282821  21.164  23.559  15.440  0.0216 -0.0432  0.1271
 3738POPC   C1A82822  21.093  23.139  15.812 -0.0430 -0.0079  0.1704
 3738POPC   D2A82823  21.347  23.139  16.178  0.2408  0.0187  0.0640
 3738POPC   C3A82824  21.517  22.725  16.342 -0.3554  0.0008 -0.0028
 3738POPC   C4A82825  21.971  22.699  16.493  0.2172 -0.0222  0.0701
 3738POPC   C1B82826  21.493  23.521  15.783  0.3341 -0.0495 -0.1368
 3738POPC   C2B82827  21.797  23.385  16.099 -0.1996  0.1868  0.2179
 3738POPC   C3B82828  21.764  23.179  16.532  0.0006  0.0833  0.0645
 3738POPC   C4B82829  21.736  23.007  16.989 -0.0341  0.3494  0.1654
 3739POPC   NC382830  25.775  28.184  10.020 -0.3821  0.2344 -0.0483
 3739POPC   PO482831  25.446  28.355   9.918  0.1721 -0.2542 -0.3197
 3739POPC   GL182832  25.278  28.100   9.714  0.1241  0.1078  0.0412
 3739POPC   GL282833  25.402  27.879   9.790  0.3794  0.0064 -0.2060
 3739POPC   C1A82834  25.538  28.024   9.351 -0.0361 -0.2269  0.2117
 3739POPC   D2A82835  25.515  27.716   9.053  0.0180 -0.0549  0.1313
 3739POPC   C3A82836  25.414  27.365   8.783  0.0562 -0.0348  0.3420
 3739POPC   C4A82837  25.434  27.346   8.326 -0.0195  0.3323 -0.1433
 3739POPC   C1B82838  25.261  27.467   9.560 -0.1087 -0.0384 -0.1622
 3739POPC   C2B82839  25.492  27.041   9.294  0.0994 -0.1456  0.3442
 3739POPC   C3B82840  25.535  26.866   8.893  0.1514  0.1507 -0.0651
 3739POPC   C4B82841  25.464  26.893   8.443  0.0364  0.0549  0.1126
 3740POPC   NC382842  17.852  23.545  15.682  0.0945  0.0923 -0.0578
 3740POPC   PO482843  17.470  23.400  15.599  0.5281  0.2483 -0.0875
 3740POPC   GL182844  17.329  23.165  15.929 -0.1102 -0.2089  0.0224
 3740POPC   GL282845  17.491  23.271  16.158 -0.3502 -0.0518 -0.2016
 3740POPC   C1A82846  17.274  22.829  16.271  0.1098 -0.1011  0.1752
 3740POPC   D2A82847  17.377  22.403  16.504 -0.0819 -0.0590  0.0553
 3740POPC   C3A82848  17.410  22.392  16.962 -0.0003 -0.1548  0.1309
 3740POPC   C4A82849  17.236  22.254  17.399  0.1887  0.0015 -0.1423
 3740POPC   C1B82850  17.254  23.226  16.525 -0.0833 -0.0807 -0.1249
 3740POPC   C2B82851  17.172  23.345  16.928 -0.0284  0.1406 -0.0528
 3740POPC   C3B82852  17.053  23.353  17.401 -0.0683  0.5726  0.2739
 3740POPC   C4B82853  17.062  23.398  17.859  0.1436  0.1809 -0.3736
 3741POPC   NC382854  18.505  20.239  15.457  0.1018  0.1233 -0.3639
 3741POPC   PO482855  18.093  20.192  15.512 -0.0122 -0.1047 -0.0429
 3741POPC   GL182856  18.189  20.277  15.931 -0.1835  0.2670 -0.4026
 3741POPC   GL282857  18.453  20.368  15.975 -0.1778 -0.1935  0.4437
 3741POPC   C1A82858  18.240  20.066  16.285  0.0723  0.1622 -0.1646
 3741POPC   D2A82859  18.445  20.124  16.672 -0.0743 -0.1854  0.1281
 3741POPC   C3A82860  18.372  20.014  17.156  0.2312 -0.1955 -0.1800
 3741POPC   C4A82861  18.246  19.839  17.551 -0.2042 -0.0242 -0.2265
 3741POPC   C1B82862  18.829  20.228  16.175 -0.3549 -0.2579 -0.2451
 3741POPC   C2B82863  19.224  20.421  16.430  0.4939  0.0484  0.0264
 3741POPC   C3B82864  19.341  20.666  16.824  0.0378 -0.0366 -0.1116
 3741POPC   C4B82865  19.234  20.605  17.231  0.0694  0.3392  0.0717
 3742POPC   NC382866  25.965  30.756  15.920 -0.0680  0.3116  0.0147
 3742POPC   PO482867  26.054  30.388  15.975 -0.0667 -0.2169 -0.0734
 3742POPC   GL182868  26.115  30.655  16.392 -0.0162  0.2302  0.0709
 3742POPC   GL282869  26.287  30.449  16.489 -0.0044 -0.3913 -0.3428
 3742POPC   C1A82870  26.029  30.744  16.820 -0.0203 -0.2183 -0.1455
 3742POPC   D2A82871  26.112  30.925  17.284  0.1255  0.5238 -0.1402
 3742POPC   C3A82872  26.304  30.580  17.510 -0.3407 -0.0714 -0.0069
 3742POPC   C4A82873  26.362  30.463  18.001 -0.0534  0.0009 -0.0552
 3742POPC   C1B82874  26.531  30.661  16.880 -0.0420  0.1912  0.0986
 3742POPC   C2B82875  26.820  30.558  17.190  0.3511  0.0147  0.0509
 3742POPC   C3B82876  26.846  30.681  17.664  0.0201  0.0166 -0.1292
 3742POPC   C4B82877  26.768  30.725  18.103  0.3886 -0.0630 -0.1239
 3743POPC   NC382878  31.558  21.804  13.634 -0.0815  0.1728  0.0908
 3743POPC   PO482879  31.389  21.676  13.984 -0.2324  0.2265  0.0330
 3743POPC   GL182880  31.075  21.378  13.955 -0.0600 -0.4893 -0.1952
 3743POPC   GL282881  30.883  21.479  14.128 -0.0567 -0.0451 -0.2102
 3743POPC   C1A82882  30.699  21.290  13.705  0.1056  0.2376  0.0013
 3743POPC   D2A82883  30.341  21.015  13.838  0.3156 -0.3585 -0.2088
 3743POPC   C3A82884  30.102  21.171  14.125 -0.1301 -0.0084  0.1863
 3743POPC   C4A82885  29.738  21.309  14.333 -0.1769 -0.1865 -0.1254
 3743POPC   C1B82886  30.822  21.805  14.484 -0.0452  0.1026  0.1286
 3743POPC   C2B82887  30.648  22.125  14.719  0.1445  0.0073  0.2044
 3743POPC   C3B82888  30.166  22.049  14.924 -0.2751  0.2668 -0.0420
 3743POPC   C4B82889  29.705  22.005  15.052 -0.3847  0.4424 -0.1176
 3744POPC   NC382890  21.556  23.551  12.243  0.0616 -0.0636 -0.0094
 3744POPC   PO482891  21.791  23.266  12.314 -0.0971 -0.0105  0.1330
 3744POPC   GL182892  22.163  23.176  12.074  0.0135 -0.2958  0.0140
 3744POPC   GL282893  22.344  23.312  12.286 -0.0770 -0.0503 -0.1196
 3744POPC   C1A82894  22.569  23.083  11.881 -0.3279  0.2142  0.0900
 3744POPC   D2A82895  22.918  23.266  11.627 -0.5900  0.1979 -0.1574
 3744POPC   C3A82896  23.232  23.072  11.324  0.1983  0.0739  0.0231
 3744POPC   C4A82897  23.179  22.570  11.223 -0.0213 -0.0989  0.1894
 3744POPC   C1B82898  22.683  22.998  12.424 -0.3157 -0.0453 -0.0931
 3744POPC   C2B82899  22.999  22.757  12.620  0.1596 -0.0281 -0.2084
 3744POPC   C3B82900  23.287  22.405  12.819  0.0280  0.0657 -0.1869
 3744POPC   C4B82901  23.659  22.253  13.006 -0.0594  0.1389 -0.1519
 3745POPC   NC382902  30.112  25.789  13.496 -0.1620 -0.0025 -0.1656
 3745POPC   PO482903  29.891  26.123  13.458 -0.1752 -0.1950 -0.1178
 3745POPC   GL182904  29.653  25.758  13.524  0.0801  0.1160 -0.0204
 3745POPC   GL282905  29.754  25.515  13.701 -0.0783  0.0991 -0.1606
 3745POPC   C1A82906  29.313  25.526  13.274  0.1245  0.2175  0.2211
 3745POPC   D2A82907  28.963  25.544  12.952  0.0599  0.0361  0.1297
 3745POPC   C3A82908  28.553  25.420  13.113 -0.0502  0.3217 -0.0638
 3745POPC   C4A82909  28.171  25.150  13.247  0.2013 -0.0883 -0.2253
 3745POPC   C1B82910  29.662  25.196  14.106  0.0863  0.1026  0.3194
 3745POPC   C2B82911  29.361  24.913  14.290 -0.1175  0.2987 -0.0909
 3745POPC   C3B82912  28.988  24.651  14.362 -0.0664  0.0354 -0.0546
 3745POPC   C4B82913  28.669  24.377  14.321  0.0850  0.0400  0.2352
 3746POPC   NC382914   1.157  25.867  15.927 -0.4005 -0.3339  0.2216
 3746POPC   PO482915   1.070  25.513  16.091 -0.2813  0.0826  0.3516
 3746POPC   GL182916   1.090  25.734  16.390  0.1729  0.1664  0.3572
 3746POPC   GL282917   1.212  25.624  16.664  0.1654  0.2033 -0.1044
 3746POPC   C1A82918   0.837  26.019  16.615 -0.3226  0.0351 -0.3184
 3746POPC   D2A82919   1.053  26.394  16.769 -0.1545  0.0400 -0.2223
 3746POPC   C3A82920   1.081  26.456  17.209  0.0930 -0.1107  0.1078
 3746POPC   C4A82921   1.076  26.128  17.572  0.0538 -0.0896  0.0910
 3746POPC   C1B82922   1.593  25.530  16.911 -0.0581  0.1915 -0.0626
 3746POPC   C2B82923   1.862  25.575  17.258 -0.2565  0.0518  0.0593
 3746POPC   C3B82924   2.049  25.946  17.494 -0.3461  0.0274  0.0509
 3746POPC   C4B82925   1.990  26.080  17.986 -0.1088  0.1603 -0.2798
 3747POPC   NC382926  27.337  30.330  16.385 -0.1553 -0.1348 -0.0012
 3747POPC   PO482927  27.500  29.968  16.436 -0.1071 -0.3430  0.3396
 3747POPC   GL182928  27.558  30.140  16.863 -0.0415  0.1303  0.0629
 3747POPC   GL282929  27.715  30.339  16.724 -0.0341  0.3861 -0.3084
 3747POPC   C1A82930  27.625  30.269  17.299 -0.1940  0.1242 -0.1659
 3747POPC   D2A82931  27.513  30.358  17.780  0.1239  0.0373 -0.0852
 3747POPC   C3A82932  27.781  30.199  18.089  0.4809  0.3395  0.0138
 3747POPC   C4A82933  27.921  30.341  18.524 -0.0387  0.1949 -0.1651
 3747POPC   C1B82934  27.823  30.742  16.824  0.3077 -0.1632  0.1724
 3747POPC   C2B82935  28.032  31.054  17.075  0.1318 -0.0593 -0.1194
 3747POPC   C3B82936  28.349  31.078  17.464 -0.1769 -0.1546  0.2344
 3747POPC   C4B82937  28.562  30.908  17.910 -0.1076  0.0454 -0.0468
 3748POPC   NC382938  32.049  31.889  16.245  0.0398 -0.2170  0.0695
 3748POPC   PO482939  31.644  31.890  16.330  0.1150  0.1581  0.0460
 3748POPC   GL182940  31.667  32.112  16.545  0.0426 -0.3580  0.1709
 3748POPC   GL282941  31.946  32.266  16.520  0.1878 -0.1011  0.2600
 3748POPC   C1A82942  31.609  32.271  16.938 -0.0830  0.2927  0.1546
 3748POPC   D2A82943  31.405  32.168  17.333  0.0137  0.1939 -0.3154
 3748POPC   C3A82944  31.534  32.463  17.705  0.1859  0.0556 -0.1915
 3748POPC   C4A82945  31.832  32.510  18.045  0.3723  0.0095  0.0875
 3748POPC   C1B82946  32.171  32.417  16.861 -0.1687  0.1360  0.1002
 3748POPC   C2B82947  32.371  32.590  17.185  0.0257 -0.5545  0.1627
 3748POPC   C3B82948  32.497  32.915  17.394 -0.0467 -0.1246 -0.1284
 3748POPC   C4B82949  32.535  33.253  17.746 -0.2075 -0.1213  0.1613
 3749POPC   NC382950  18.416  28.381  16.354  0.0294  0.3516  0.2748
 3749POPC   PO482951  18.486  27.995  16.385 -0.1550  0.2289 -0.0673
 3749POPC   GL182952  18.448  28.090  16.761  0.1831  0.1310 -0.4139
 3749POPC   GL282953  18.224  28.130  16.921 -0.3019  0.0277  0.0809
 3749POPC   C1A82954  18.567  27.879  17.139 -0.0875 -0.0499 -0.1488
 3749POPC   D2A82955  18.884  27.875  17.494 -0.0864 -0.0524  0.1055
 3749POPC   C3A82956  18.697  27.503  17.685 -0.0623  0.2175  0.2311
 3749POPC   C4A82957  18.453  27.359  18.087 -0.2010 -0.1703  0.0933
 3749POPC   C1B82958  18.252  28.112  17.399 -0.1276 -0.2895  0.0312
 3749POPC   C2B82959  18.143  27.843  17.821  0.4314 -0.1144  0.0968
 3749POPC   C3B82960  17.948  27.654  18.128 -0.1052 -0.1156  0.2028
 3749POPC   C4B82961  17.983  27.299  18.404  0.0214  0.0082  0.2193
 3750POPC   NC382962  17.462  27.857  16.740  0.1180 -0.0259 -0.0445
 3750POPC   PO482963  17.082  27.712  16.660  0.0099 -0.1175 -0.0465
 3750POPC   GL182964  16.848  27.590  16.992  0.0550  0.0407  0.0387
 3750POPC   GL282965  16.665  27.361  16.969 -0.1042 -0.1223  0.0501
 3750POPC   C1A82966  16.556  27.732  17.271 -0.1412  0.0610 -0.1710
 3750POPC   D2A82967  16.208  27.899  17.628 -0.0620 -0.0143  0.0295
 3750POPC   C3A82968  15.882  27.882  17.923 -0.1571 -0.0716 -0.3578
 3750POPC   C4A82969  15.619  27.580  18.176 -0.1989  0.0985  0.3820
 3750POPC   C1B82970  16.456  26.998  17.188 -0.1374  0.1132  0.2008
 3750POPC   C2B82971  16.305  26.916  17.659  0.0800  0.1919  0.0847
 3750POPC   C3B82972  16.438  27.043  18.051  0.0650 -0.0123 -0.0623
 3750POPC   C4B82973  16.487  27.414  18.314  0.2424  0.1943  0.0516
 3751POPC   NC382974   0.624  26.855  16.609  0.1398 -0.1324  0.3382
 3751POPC   PO482975   0.269  26.837  16.468  0.0756 -0.0333  0.0518
 3751POPC   GL182976   0.289  26.827  16.909  0.2339 -0.0036  0.0086
 3751POPC   GL282977   0.186  27.127  16.934  0.0279  0.2333  0.0305
 3751POPC   C1A82978   0.211  26.417  17.170 -0.1087  0.1422 -0.2821
 3751POPC   D2A82979   0.064  26.148  17.501 -0.3715  0.0413  0.0230
 3751POPC   C3A82980  -0.302  25.837  17.536  0.0137 -0.4329 -0.0948
 3751POPC   C4A82981  -0.347  25.483  17.829  0.0830  0.0634  0.1091
 3751POPC   C1B82982   0.088  26.866  17.285  0.0126  0.0443  0.0145
 3751POPC   C2B82983   0.219  26.612  17.659  0.1984 -0.1995  0.3743
 3751POPC   C3B82984   0.332  26.344  18.060  0.0991  0.1462  0.0886
 3751POPC   C4B82985   0.350  26.069  18.402 -0.1146 -0.0262 -0.0439
 3752POPC   NC382986  29.699  31.098  16.270  0.0200  0.1943 -0.0035
 3752POPC   PO482987  29.812  30.847  16.549 -0.0545 -0.0539 -0.0123
 3752POPC   GL182988  29.781  30.972  16.879 -0.1111  0.2131  0.1054
 3752POPC   GL282989  29.596  30.685  16.961 -0.1871 -0.2481 -0.3209
 3752POPC   C1A82990  29.447  31.161  17.056  0.2327 -0.3327 -0.2294
 3752POPC   D2A82991  29.110  31.407  17.149  0.1378  0.1620 -0.1944
 3752POPC   C3A82992  29.201  31.697  17.454 -0.0640 -0.2221 -0.0494
 3752POPC   C4A82993  29.108  32.023  17.738 -0.2530 -0.0473  0.0002
 3752POPC   C1B82994  29.664  30.806  17.428  0.0215  0.0385  0.1922
 3752POPC   C2B82995  29.766  31.139  17.826 -0.0477  0.3388  0.0997
 3752POPC   C3B82996  29.606  31.535  17.943  0.0666  0.1751  0.0661
 3752POPC   C4B82997  29.142  31.613  18.023 -0.5530 -0.2985 -0.2073
 3753POPC   NC382998  20.223  16.186  15.853  0.0549 -0.2916  0.2559
 3753POPC   PO482999  19.939  16.502  15.793 -0.2391  0.1965 -0.1374
 3753POPC   GL183000  20.043  16.676  16.142 -0.1105  0.4285  0.0236
 3753POPC   GL283001  19.799  16.633  16.271 -0.0534  0.0670 -0.1162
 3753POPC   C1A83002  20.071  17.075  16.348 -0.0546 -0.3457  0.1975
 3753POPC   D2A83003  20.121  17.438  16.546  0.2990 -0.0930 -0.0077
 3753POPC   C3A83004  20.061  17.892  16.451  0.0091  0.0989  0.0937
 3753POPC   C4A83005  20.035  18.142  16.849 -0.1360  0.0616 -0.1374
 3753POPC   C1B83006  19.558  16.775  16.637 -0.0154  0.2825  0.3437
 3753POPC   C2B83007  19.339  17.053  16.921 -0.0077  0.1000  0.0745
 3753POPC   C3B83008  19.289  17.286  17.254  0.2175  0.0701  0.1616
 3753POPC   C4B83009  19.078  17.106  17.639  0.1064  0.0096 -0.4910
 3754POPC   NC383010  26.485  27.058  11.182  0.2015 -0.2222 -0.0327
 3754POPC   PO483011  26.827  27.194  11.313 -0.0691  0.1213  0.1440
 3754POPC   GL183012  26.939  26.843  11.502  0.2471 -0.0513 -0.2420
 3754POPC   GL283013  26.965  26.872  11.783 -0.0234 -0.1047  0.1482
 3754POPC   C1A83014  27.145  26.456  11.287  0.0898 -0.4133 -0.0922
 3754POPC   D2A83015  27.239  26.043  11.438 -0.0531  0.1327 -0.0227
 3754POPC   C3A83016  26.963  25.635  11.331  0.1306 -0.1707  0.0462
 3754POPC   C4A83017  26.800  25.278  11.109  0.0966  0.4374 -0.2338
 3754POPC   C1B83018  27.082  26.435  11.815 -0.0653 -0.0755  0.0894
 3754POPC   C2B83019  27.051  26.028  12.000 -0.0822 -0.0520 -0.1704
 3754POPC   C3B83020  26.979  25.619  11.871 -0.0498 -0.0877 -0.1151
 3754POPC   C4B83021  26.859  25.215  11.666 -0.5857 -0.1440  0.0196
 3755POPC   NC383022  29.451  31.574  16.166 -0.0489  0.3692  0.0888
 3755POPC   PO483023  29.851  31.623  16.244  0.1539 -0.1103 -0.0770
 3755POPC   GL183024  30.092  31.762  16.644  0.2608 -0.1557 -0.0046
 3755POPC   GL283025  30.219  32.098  16.663  0.1253  0.1780 -0.1390
 3755POPC   C1A83026  30.037  31.796  17.146  0.1045  0.1409 -0.3227
 3755POPC   D2A83027  30.135  31.701  17.585 -0.0977 -0.2007  0.1317
 3755POPC   C3A83028  30.109  31.851  17.962 -0.2037 -0.1739 -0.0519
 3755POPC   C4A83029  29.913  31.724  18.336 -0.0022 -0.1670  0.1557
 3755POPC   C1B83030  30.256  32.218  17.124  0.1784 -0.1529 -0.3865
 3755POPC   C2B83031  30.016  32.319  17.526  0.0791 -0.2858  0.1350
 3755POPC   C3B83032  29.892  32.720  17.773 -0.0484 -0.1271 -0.0855
 3755POPC   C4B83033  29.698  32.805  18.194 -0.0593 -0.1196  0.1912
 3756POPC   NC383034  32.226  27.379  16.695 -0.1770 -0.2782  0.2627
 3756POPC   PO483035  32.176  27.052  16.444 -0.0245  0.2967 -0.2543
 3756POPC   GL183036  32.209  26.899  16.729  0.0656  0.0855  0.3654
 3756POPC   GL283037  32.101  26.641  16.720 -0.3611 -0.1891  0.0085
 3756POPC   C1A83038  32.481  27.132  17.055 -0.1475  0.2258 -0.0981
 3756POPC   D2A83039  32.627  27.383  17.425 -0.1489 -0.2982 -0.1914
 3756POPC   C3A83040  32.875  27.078  17.736  0.0965 -0.0405  0.1279
 3756POPC   C4A83041  32.913  26.852  18.131  0.2635 -0.1678 -0.2326
 3756POPC   C1B83042  31.762  26.410  16.910  0.1760 -0.0734 -0.1897
 3756POPC   C2B83043  31.490  26.235  17.217  0.2509  0.0778  0.0692
 3756POPC   C3B83044  31.305  26.165  17.648 -0.0991 -0.0463  0.1642
 3756POPC   C4B83045  30.930  25.967  17.782  0.3950  0.1912  0.0741
 3757POPC   NC383046  31.575  18.547  15.158  0.1680 -0.3050  0.0455
 3757POPC   PO483047  31.955  18.579  15.223  0.1202 -0.0127 -0.1018
 3757POPC   GL183048  32.114  18.720  15.642  0.2105  0.2267 -0.4936
 3757POPC   GL283049  32.128  18.952  15.512  0.1966 -0.1875 -0.2699
 3757POPC   C1A83050  31.924  18.648  16.061  0.2198  0.0905 -0.4229
 3757POPC   D2A83051  31.974  18.566  16.545  0.2128  0.2053  0.0838
 3757POPC   C3A83052  31.876  18.698  16.964  0.1245 -0.2064 -0.0732
 3757POPC   C4A83053  31.576  19.076  17.108  0.0878 -0.3719  0.3634
 3757POPC   C1B83054  32.007  19.242  15.903  0.4130  0.1040 -0.0137
 3757POPC   C2B83055  31.757  19.505  16.168  0.2523 -0.1667 -0.0055
 3757POPC   C3B83056  31.442  19.655  16.475 -0.0926  0.1268  0.0102
 3757POPC   C4B83057  31.152  19.845  16.783 -0.2656  0.0225  0.2505
 3758POPC   NC383058  21.511  16.483  15.302 -0.1354  0.3395 -0.0302
 3758POPC   PO483059  21.479  16.849  15.287 -0.2984 -0.1178  0.2253
 3758POPC   GL183060  21.657  17.059  15.544  0.0304 -0.0626  0.1542
 3758POPC   GL283061  21.762  16.783  15.721  0.1459 -0.0418  0.5922
 3758POPC   C1A83062  21.533  17.324  15.901  0.5306  0.0039  0.3286
 3758POPC   D2A83063  21.168  17.404  16.132  0.0478 -0.0094  0.2493
 3758POPC   C3A83064  21.145  17.676  16.550  0.0695  0.3097 -0.0686
 3758POPC   C4A83065  21.096  17.706  17.039 -0.2581 -0.2809  0.0348
 3758POPC   C1B83066  22.057  17.099  15.914  0.0106 -0.2387  0.2736
 3758POPC   C2B83067  21.952  17.456  16.214 -0.2131  0.0080 -0.0358
 3758POPC   C3B83068  21.898  17.518  16.634  0.3627 -0.1844  0.1913
 3758POPC   C4B83069  22.153  17.662  17.058  0.2386  0.0403  0.0699
 3759POPC   NC383070  20.024  30.680  16.416 -0.1940  0.3169  0.1430
 3759POPC   PO483071  19.638  30.614  16.404 -0.0482  0.0151 -0.2805
 3759POPC   GL183072  19.565  30.730  16.803  0.1094 -0.1695 -0.1649
 3759POPC   GL283073  19.786  30.608  16.902 -0.0558  0.3748  0.1173
 3759POPC   C1A83074  19.348  31.033  17.091  0.0521  0.4435  0.1492
 3759POPC   D2A83075  19.359  31.401  17.331  0.0846 -0.1346 -0.0061
 3759POPC   C3A83076  19.230  31.498  17.804  0.1761  0.3342  0.2080
 3759POPC   C4A83077  19.249  31.240  18.166 -0.1932 -0.1428 -0.1002
 3759POPC   C1B83078  19.478  30.553  17.267 -0.2168  0.1332  0.1927
 3759POPC   C2B83079  19.347  30.527  17.693 -0.1913 -0.0423  0.0127
 3759POPC   C3B83080  19.503  30.689  18.100 -0.1268 -0.2569  0.1435
 3759POPC   C4B83081  19.267  30.817  18.426 -0.1339 -0.2974  0.0549
 3760POPC   NC383082  29.704  30.341  16.648 -0.2558  0.0894 -0.0061
 3760POPC   PO483083  29.968  30.001  16.632 -0.3004 -0.1265  0.1657
 3760POPC   GL183084  30.211  30.114  17.013 -0.2398 -0.1635 -0.0522
 3760POPC   GL283085  30.439  30.185  16.988  0.3983  0.1102  0.3459
 3760POPC   C1A83086  30.079  29.707  17.237  0.1886 -0.0209  0.1765
 3760POPC   D2A83087  30.066  29.687  17.677  0.3189 -0.0982 -0.0252
 3760POPC   C3A83088  30.329  29.935  17.895  0.1491 -0.2081  0.1048
 3760POPC   C4A83089  30.367  30.401  17.949 -0.0151  0.0252  0.0005
 3760POPC   C1B83090  30.471  30.023  17.449 -0.3618 -0.1958 -0.1766
 3760POPC   C2B83091  30.768  29.839  17.735 -0.1827  0.0123 -0.1056
 3760POPC   C3B83092  30.941  30.021  18.119  0.0998 -0.0070 -0.1158
 3760POPC   C4B83093  30.773  30.263  18.489  0.1243 -0.3005 -0.3168
 3761POPC   NC383094  27.415  27.549  10.657  0.0389 -0.1580 -0.1324
 3761POPC   PO483095  27.232  27.406  10.977 -0.0001  0.2268  0.0086
 3761POPC   GL183096  26.990  27.085  10.904 -0.2467  0.1437 -0.0114
 3761POPC   GL283097  26.765  27.123  10.751 -0.1436  0.3059 -0.1573
 3761POPC   C1A83098  26.831  26.603  10.916  0.1952 -0.0567 -0.0968
 3761POPC   D2A83099  26.745  26.161  11.105 -0.0912  0.0168 -0.1468
 3761POPC   C3A83100  26.710  25.731  10.893 -0.0208 -0.1896  0.2106
 3761POPC   C4A83101  26.625  25.404  10.552 -0.0354 -0.2640 -0.1516
 3761POPC   C1B83102  26.892  26.743  10.454 -0.1366  0.2286  0.2648
 3761POPC   C2B83103  26.934  26.267  10.597  0.0465  0.0152  0.0458
 3761POPC   C3B83104  27.081  25.839  10.500 -0.1294 -0.2128 -0.0145
 3761POPC   C4B83105  27.487  25.610  10.364  0.2461  0.2391  0.2733
 3762POPC   NC383106  22.054  17.759  14.974 -0.4042 -0.1042 -0.0865
 3762POPC   PO483107  22.277  18.037  14.789  0.0063  0.5919  0.0398
 3762POPC   GL183108  22.640  18.252  14.865 -0.0666 -0.1767  0.0956
 3762POPC   GL283109  22.644  18.136  15.121 -0.0693 -0.0303  0.0492
 3762POPC   C1A83110  22.991  18.523  14.972 -0.2445 -0.2349 -0.1080
 3762POPC   D2A83111  23.437  18.634  14.944  0.3746  0.1915 -0.2590
 3762POPC   C3A83112  23.694  19.001  14.947 -0.1609  0.0690 -0.2030
 3762POPC   C4A83113  23.871  19.275  15.257  0.0578 -0.0357 -0.3812
 3762POPC   C1B83114  22.712  18.135  15.515 -0.4560 -0.4359  0.0321
 3762POPC   C2B83115  22.910  18.368  15.835  0.1486 -0.0675 -0.0499
 3762POPC   C3B83116  22.768  18.450  16.231 -0.2689  0.0528 -0.1751
 3762POPC   C4B83117  22.642  18.875  16.447  0.2849 -0.0305 -0.2977
 3763POPC   NC383118  20.066  20.210  15.378  0.0919 -0.1011  0.5197
 3763POPC   PO483119  20.387  20.091  15.543 -0.1275  0.2542  0.0443
 3763POPC   GL183120  20.292  20.172  15.888  0.1968 -0.0803 -0.1294
 3763POPC   GL283121  19.995  20.126  15.860  0.0685 -0.0191 -0.2039
 3763POPC   C1A83122  20.223  19.988  16.306  0.0233 -0.2883 -0.1654
 3763POPC   D2A83123  20.276  20.038  16.798 -0.0829 -0.3737 -0.0000
 3763POPC   C3A83124  20.789  20.065  16.897 -0.0018 -0.1776  0.2747
 3763POPC   C4A83125  21.247  20.120  16.768  0.0696  0.4278 -0.2607
 3763POPC   C1B83126  19.790  20.269  16.270 -0.0936  0.3763  0.5253
 3763POPC   C2B83127  19.730  20.325  16.703 -0.0248 -0.1551 -0.0050
 3763POPC   C3B83128  19.761  20.447  17.117 -0.3561 -0.0698 -0.2012
 3763POPC   C4B83129  19.608  20.697  17.481 -0.0990 -0.2672 -0.3176
 3764POPC   NC383130  20.280  26.890   8.677 -0.0960 -0.2630  0.0239
 3764POPC   PO483131  19.983  26.626   8.668 -0.0914  0.0031  0.1775
 3764POPC   GL183132  20.274  26.554   8.364 -0.0153 -0.0019 -0.2204
 3764POPC   GL283133  20.296  26.345   8.200 -0.1583 -0.0878  0.2964
 3764POPC   C1A83134  20.063  26.633   7.942 -0.1669  0.0952 -0.1349
 3764POPC   D2A83135  20.182  26.559   7.486 -0.5642 -0.0473 -0.0397
 3764POPC   C3A83136  20.080  26.704   7.085  0.4103  0.1616  0.0437
 3764POPC   C4A83137  20.272  26.595   6.717  0.1711 -0.2938 -0.2321
 3764POPC   C1B83138  20.597  26.084   7.910  0.1070 -0.1260 -0.1404
 3764POPC   C2B83139  20.684  26.064   7.479  0.2920 -0.2352  0.0530
 3764POPC   C3B83140  21.169  26.080   7.386 -0.1012 -0.0159 -0.0079
 3764POPC   C4B83141  21.607  26.269   7.240  0.2248 -0.2772 -0.0146
 3765POPC   NC383142  31.894  22.564  15.174  0.3323 -0.1417  0.1267
 3765POPC   PO483143  31.720  22.867  14.939  0.1311 -0.1154 -0.1327
 3765POPC   GL183144  31.430  22.605  15.087  0.3358  0.0095  0.0041
 3765POPC   GL283145  31.461  22.270  15.127 -0.0687 -0.2473 -0.0802
 3765POPC   C1A83146  31.056  22.756  15.287  0.1061  0.1614 -0.2741
 3765POPC   D2A83147  30.679  22.627  15.405  0.0712  0.0543 -0.0084
 3765POPC   C3A83148  30.252  22.707  15.568 -0.0316 -0.1424  0.2416
 3765POPC   C4A83149  29.795  22.800  15.555 -0.2420  0.0828 -0.1707
 3765POPC   C1B83150  31.033  22.263  15.199 -0.1637  0.0354 -0.0508
 3765POPC   C2B83151  30.570  22.155  15.231 -0.2258 -0.0456 -0.0286
 3765POPC   C3B83152  30.214  21.971  15.449  0.0027  0.2838  0.2014
 3765POPC   C4B83153  29.924  21.898  15.811  0.2176  0.0601  0.1600
 3766POPC   NC383154  28.082  27.578  10.301 -0.0571  0.0916 -0.3277
 3766POPC   PO483155  27.763  27.735  10.233 -0.2265 -0.6576 -0.1885
 3766POPC   GL183156  27.653  27.511  10.012  0.0613 -0.3258 -0.0359
 3766POPC   GL283157  27.758  27.215  10.177 -0.2199  0.2158 -0.0297
 3766POPC   C1A83158  27.357  27.280   9.726 -0.1806 -0.1238  0.0960
 3766POPC   D2A83159  27.148  26.875   9.650 -0.1054  0.2943 -0.1559
 3766POPC   C3A83160  27.326  26.580   9.391  0.0320  0.3347  0.0748
 3766POPC   C4A83161  27.243  26.296   9.007  0.2848 -0.1575  0.2589
 3766POPC   C1B83162  27.657  26.853   9.787  0.2455 -0.1607 -0.3326
 3766POPC   C2B83163  27.728  26.880   9.397 -0.0848  0.2740 -0.4306
 3766POPC   C3B83164  27.902  26.564   9.092  0.0781 -0.0252 -0.1065
 3766POPC   C4B83165  28.233  26.244   9.185 -0.1452  0.3351 -0.1853
 3767POPC   NC383166  18.636  30.754  16.357 -0.1990 -0.0651 -0.0928
 3767POPC   PO483167  18.589  30.712  16.761 -0.1786  0.4221  0.2479
 3767POPC   GL183168  18.376  30.360  16.945  0.1062  0.2345  0.1184
 3767POPC   GL283169  18.630  30.215  17.105 -0.1226 -0.1229  0.1012
 3767POPC   C1A83170  18.112  30.280  17.294  0.0825 -0.2677  0.1164
 3767POPC   D2A83171  17.712  30.254  17.502  0.0021  0.2274 -0.0863
 3767POPC   C3A83172  17.681  30.174  17.925  0.4500  0.1904  0.0630
 3767POPC   C4A83173  17.818  30.046  18.350  0.0066  0.0589  0.0694
 3767POPC   C1B83174  18.743  30.502  17.509 -0.0459  0.1408  0.2066
 3767POPC   C2B83175  18.864  30.525  17.927 -0.0448 -0.0656  0.3536
 3767POPC   C3B83176  18.870  30.452  18.384 -0.0258  0.0793 -0.0720
 3767POPC   C4B83177  18.861  30.167  18.749  0.0340  0.1237 -0.1889
 3768POPC   NC383178  26.989  29.176  16.309 -0.0617  0.0189 -0.3844
 3768POPC   PO483179  26.803  28.893  16.396 -0.2020  0.0435 -0.0693
 3768POPC   GL183180  27.064  28.895  16.751 -0.1050 -0.2565 -0.0896
 3768POPC   GL283181  27.132  28.631  16.785  0.1710  0.4384 -0.0168
 3768POPC   C1A83182  27.138  29.282  17.058  0.1607 -0.0511  0.1606
 3768POPC   D2A83183  27.177  29.438  17.489  0.1182 -0.1356 -0.0071
 3768POPC   C3A83184  27.431  29.238  17.851  0.1135  0.0551 -0.1162
 3768POPC   C4A83185  27.730  29.197  18.195 -0.4141 -0.1946  0.0201
 3768POPC   C1B83186  27.037  28.732  17.243  0.2856 -0.3527 -0.0694
 3768POPC   C2B83187  27.284  28.447  17.572 -0.2001  0.0903 -0.2439
 3768POPC   C3B83188  27.667  28.374  17.843  0.1024  0.2658 -0.0328
 3768POPC   C4B83189  28.162  28.378  17.805 -0.1807 -0.0661 -0.0525
 3769POPC   NC383190  30.599  28.599  16.556  0.1846 -0.1685  0.0193
 3769POPC   PO483191  30.957  28.443  16.501  0.0931  0.1159 -0.0055
 3769POPC   GL183192  30.965  28.496  16.960  0.0653 -0.3746  0.4506
 3769POPC   GL283193  31.301  28.404  17.015 -0.1513  0.1892 -0.2968
 3769POPC   C1A83194  30.712  28.148  17.171  0.0231 -0.0441 -0.0194
 3769POPC   D2A83195  30.634  27.860  17.550  0.1440 -0.0076  0.1402
 3769POPC   C3A83196  30.760  27.408  17.684  0.1753  0.0227  0.2852
 3769POPC   C4A83197  30.444  27.298  18.010 -0.0706 -0.0358 -0.0757
 3769POPC   C1B83198  31.283  28.626  17.432 -0.0248  0.1882 -0.0642
 3769POPC   C2B83199  31.259  28.568  17.892  0.0532 -0.0457 -0.1240
 3769POPC   C3B83200  31.590  28.580  18.179 -0.3187 -0.1761 -0.0618
 3769POPC   C4B83201  31.885  28.465  18.532  0.1982 -0.4178  0.2651
 3770POPC   NC383202  17.635  31.744  16.194 -0.1264 -0.1432  0.2001
 3770POPC   PO483203  17.566  32.128  16.235 -0.1602  0.0154 -0.0820
 3770POPC   GL183204  17.634  32.371  16.484  0.0793  0.0771  0.0504
 3770POPC   GL283205  17.882  32.447  16.577  0.2288 -0.0115  0.0728
 3770POPC   C1A83206  17.509  32.536  16.944  0.1602  0.0015  0.0489
 3770POPC   D2A83207  17.558  32.641  17.402 -0.1370  0.1144  0.0833
 3770POPC   C3A83208  17.320  32.832  17.710  0.1612  0.0435  0.0601
 3770POPC   C4A83209  17.064  33.202  17.817  0.1195 -0.0544  0.0892
 3770POPC   C1B83210  17.970  32.403  17.040 -0.1292  0.0017 -0.0086
 3770POPC   C2B83211  18.007  32.297  17.466  0.1738  0.3570  0.1106
 3770POPC   C3B83212  17.862  32.049  17.834  0.1221 -0.1654 -0.1065
 3770POPC   C4B83213  17.742  31.638  17.755 -0.0539  0.2119 -0.0883
 3771POPC   NC383214  29.186  16.003  15.696 -0.0738 -0.1338 -0.1320
 3771POPC   PO483215  29.396  16.322  15.687 -0.1166 -0.0999 -0.1916
 3771POPC   GL183216  29.585  16.656  15.910  0.2413 -0.2612  0.2766
 3771POPC   GL283217  29.354  16.907  15.920  0.0075  0.1238 -0.1467
 3771POPC   C1A83218  29.586  16.723  16.381  0.1451 -0.2527  0.0400
 3771POPC   D2A83219  29.486  16.748  16.872 -0.0097 -0.4183 -0.2391
 3771POPC   C3A83220  29.051  16.801  17.047 -0.0513  0.0429  0.1390
 3771POPC   C4A83221  28.853  17.209  17.277 -0.4376 -0.2258 -0.2651
 3771POPC   C1B83222  29.211  17.321  16.034 -0.1155 -0.0359 -0.2222
 3771POPC   C2B83223  28.980  17.549  16.351  0.0087  0.1616  0.0423
 3771POPC   C3B83224  28.675  17.851  16.339 -0.3082  0.4931 -0.1539
 3771POPC   C4B83225  28.373  18.146  16.535 -0.0640  0.0614 -0.1579
 3772POPC   NC383226  25.979  26.988  11.844  0.1323  0.0170  0.2099
 3772POPC   PO483227  25.906  26.775  12.155  0.2259 -0.1305  0.1998
 3772POPC   GL183228  26.011  26.521  12.373 -0.2409  0.2291 -0.0043
 3772POPC   GL283229  26.336  26.471  12.398  0.1722 -0.1867  0.3664
 3772POPC   C1A83230  26.132  26.039  12.283  0.0643 -0.3162  0.0844
 3772POPC   D2A83231  26.297  25.806  11.905 -0.3803 -0.3108 -0.0059
 3772POPC   C3A83232  26.510  25.371  11.970 -0.1368 -0.4463  0.3897
 3772POPC   C4A83233  26.609  24.935  12.094 -0.0076  0.1376  0.0493
 3772POPC   C1B83234  26.460  26.153  12.706 -0.1056  0.0797  0.2239
 3772POPC   C2B83235  26.694  25.726  12.787  0.0266 -0.0313 -0.0781
 3772POPC   C3B83236  27.043  25.470  13.020  0.0571 -0.0571  0.0473
 3772POPC   C4B83237  27.257  25.185  13.297  0.0849 -0.0122 -0.2748
 3773POPC   NC383238  18.484  25.451  16.304 -0.0166 -0.4506  0.0853
 3773POPC   PO483239  18.255  25.201  16.072 -0.1556  0.2525 -0.2471
 3773POPC   GL183240  18.132  25.241  16.473  0.0946  0.3421  0.0835
 3773POPC   GL283241  18.264  25.030  16.676  0.0931  0.0000  0.0909
 3773POPC   C1A83242  17.716  25.115  16.664 -0.2112  0.2638 -0.0167
 3773POPC   D2A83243  17.470  25.024  17.077  0.1223 -0.1285 -0.1845
 3773POPC   C3A83244  17.769  25.096  17.367 -0.1044 -0.0650  0.3458
 3773POPC   C4A83245  17.996  24.852  17.723  0.2711  0.1791  0.3796
 3773POPC   C1B83246  18.151  24.809  16.979  0.0661 -0.0289  0.0918
 3773POPC   C2B83247  17.778  24.649  17.255 -0.0493  0.0434 -0.3230
 3773POPC   C3B83248  17.380  24.823  17.511 -0.0628 -0.2193 -0.1296
 3773POPC   C4B83249  17.115  25.116  17.654  0.0943  0.0352 -0.2588
 3774POPC   NC383250  24.657  26.794  10.872  0.0866 -0.1205  0.2766
 3774POPC   PO483251  24.282  26.957  10.863  0.2877 -0.2514  0.1079
 3774POPC   GL183252  24.273  26.771  10.557  0.1527  0.0662  0.0337
 3774POPC   GL283253  24.550  26.720  10.365 -0.0816 -0.0812  0.0890
 3774POPC   C1A83254  24.346  26.320  10.619  0.0279 -0.1741  0.0714
 3774POPC   D2A83255  24.510  25.970  10.363 -0.1364 -0.1597 -0.2983
 3774POPC   C3A83256  24.967  25.835  10.390 -0.0593  0.2369  0.1815
 3774POPC   C4A83257  25.318  25.679  10.200  0.0555 -0.0641  0.1105
 3774POPC   C1B83258  24.459  26.416  10.035 -0.1149  0.1489 -0.0273
 3774POPC   C2B83259  24.623  25.996   9.874  0.0562 -0.2623 -0.2228
 3774POPC   C3B83260  24.661  25.616  10.059  0.1111  0.1436 -0.1649
 3774POPC   C4B83261  24.477  25.198  10.224 -0.2222 -0.0938 -0.0793
 3775POPC   NC383262  32.334  17.108  15.743  0.1181 -0.0885 -0.2173
 3775POPC   PO483263  32.244  16.708  15.910 -0.0395  0.0508  0.1111
 3775POPC   GL183264  32.015  16.897  16.200  0.3408 -0.0697 -0.0234
 3775POPC   GL283265  32.094  16.760  16.402 -0.0711 -0.0618  0.0346
 3775POPC   C1A83266  31.732  17.031  16.569  0.1465 -0.2896  0.0779
 3775POPC   D2A83267  31.694  17.301  16.955  0.0480  0.3181  0.4290
 3775POPC   C3A83268  31.649  17.185  17.406  0.3080  0.2086  0.0521
 3775POPC   C4A83269  31.430  17.325  17.814 -0.1599  0.1509 -0.0683
 3775POPC   C1B83270  32.148  16.731  16.841  0.2163 -0.1018  0.1987
 3775POPC   C2B83271  32.193  16.796  17.277 -0.1642  0.0111  0.1536
 3775POPC   C3B83272  31.919  16.785  17.594 -0.1278 -0.1350  0.1866
 3775POPC   C4B83273  31.714  16.838  17.957 -0.0540  0.1124 -0.2446
 3776POPC   NC383274  20.585  20.872  14.941  0.1883 -0.0232 -0.2968
 3776POPC   PO483275  20.620  21.210  14.676 -0.0923 -0.0392 -0.0783
 3776POPC   GL183276  20.725  21.486  14.974 -0.1117  0.3306 -0.0685
 3776POPC   GL283277  20.518  21.425  15.151 -0.1330  0.0815 -0.0976
 3776POPC   C1A83278  21.002  21.498  15.356  0.3135  0.1447 -0.0922
 3776POPC   D2A83279  21.279  21.651  15.603 -0.0592  0.1049 -0.0609
 3776POPC   C3A83280  21.549  21.436  15.905  0.2132  0.0374  0.0488
 3776POPC   C4A83281  21.779  21.201  16.147 -0.0593 -0.3798 -0.1369
 3776POPC   C1B83282  20.676  21.147  15.491 -0.0810  0.3688  0.1474
 3776POPC   C2B83283  20.938  21.009  15.841  0.0856 -0.1996 -0.2464
 3776POPC   C3B83284  21.156  21.079  16.198  0.0784  0.2445  0.1367
 3776POPC   C4B83285  21.455  21.263  16.498  0.0745  0.1975 -0.1673
 3777POPC   NC383286  28.831  17.987  14.025 -0.0088  0.1221 -0.0756
 3777POPC   PO483287  29.168  17.961  14.241  0.4523  0.1501 -0.0816
 3777POPC   GL183288  28.834  18.120  14.440  0.1266  0.0468  0.3548
 3777POPC   GL283289  28.621  18.251  14.418  0.0128 -0.1212  0.3004
 3777POPC   C1A83290  28.610  17.893  14.829 -0.1423 -0.2206  0.1715
 3777POPC   D2A83291  28.346  18.149  15.211  0.0939 -0.2061  0.0309
 3777POPC   C3A83292  28.535  18.415  15.514 -0.2426 -0.1985  0.1305
 3777POPC   C4A83293  28.674  18.838  15.729 -0.2865  0.0794  0.3752
 3777POPC   C1B83294  28.380  18.448  14.761  0.1973  0.2535 -0.0171
 3777POPC   C2B83295  28.252  18.635  15.148  0.2836 -0.0180  0.2316
 3777POPC   C3B83296  28.218  18.795  15.614  0.1113  0.1598  0.0157
 3777POPC   C4B83297  28.331  18.715  16.050  0.0397  0.1145  0.2911
 3778POPC   NC383298  25.557  30.344  15.837 -0.2147 -0.0513  0.0485
 3778POPC   PO483299  25.266  30.593  15.937 -0.0469  0.0969 -0.0772
 3778POPC   GL183300  25.424  30.584  16.168  0.1767  0.1364 -0.0485
 3778POPC   GL283301  25.682  30.735  16.350 -0.1043 -0.1408  0.1286
 3778POPC   C1A83302  25.270  30.392  16.601  0.1858  0.2379  0.0725
 3778POPC   D2A83303  25.041  30.480  16.960  0.1950  0.1265  0.2607
 3778POPC   C3A83304  25.208  30.709  17.337  0.0037 -0.3275 -0.0155
 3778POPC   C4A83305  24.850  30.844  17.601  0.1182 -0.0336  0.1323
 3778POPC   C1B83306  25.520  30.881  16.776  0.4204 -0.3477  0.0014
 3778POPC   C2B83307  25.606  31.035  17.168  0.1215  0.0773 -0.0085
 3778POPC   C3B83308  25.799  31.212  17.542  0.1037  0.2062  0.1431
 3778POPC   C4B83309  25.954  31.476  17.895  0.0097  0.0929  0.1043
 3779POPC   NC383310  23.436  26.401  13.839 -0.0560 -0.0178 -0.1103
 3779POPC   PO483311  23.249  26.059  14.045 -0.1640 -0.1412 -0.1765
 3779POPC   GL183312  23.539  25.749  14.128 -0.0606 -0.0810  0.2650
 3779POPC   GL283313  23.621  25.504  13.943 -0.2359  0.2538 -0.0943
 3779POPC   C1A83314  23.966  25.631  14.290  0.0321  0.1026  0.1386
 3779POPC   D2A83315  24.192  25.345  14.513 -0.0391 -0.1081 -0.2052
 3779POPC   C3A83316  24.675  25.395  14.482 -0.1091  0.0112 -0.2041
 3779POPC   C4A83317  25.096  25.580  14.512 -0.2839  0.0309  0.0218
 3779POPC   C1B83318  23.995  25.362  13.658 -0.0034  0.0472  0.0145
 3779POPC   C2B83319  24.185  25.255  13.236  0.0680 -0.3684 -0.3756
 3779POPC   C3B83320  24.492  25.166  12.958 -0.0704  0.2601  0.1238
 3779POPC   C4B83321  24.608  24.765  12.776 -0.0050 -0.0297  0.4142
 3780POPC   NC383322  21.867  30.657  16.337  0.0688 -0.0179 -0.3664
 3780POPC   PO483323  21.597  30.947  16.480  0.0925  0.0002 -0.0186
 3780POPC   GL183324  21.500  30.978  16.823  0.2002 -0.0656  0.0545
 3780POPC   GL283325  21.628  30.845  17.071  0.1324  0.1311 -0.1000
 3780POPC   C1A83326  21.477  31.286  17.145  0.0513 -0.0583 -0.3976
 3780POPC   D2A83327  21.510  31.439  17.627  0.2118  0.3819  0.0268
 3780POPC   C3A83328  21.719  31.688  18.003  0.2811  0.3072 -0.3513
 3780POPC   C4A83329  22.031  31.716  18.366  0.2053  0.1016 -0.1831
 3780POPC   C1B83330  21.887  30.926  17.425  0.0492  0.2858 -0.0319
 3780POPC   C2B83331  22.197  30.711  17.652  0.0579  0.0215 -0.1019
 3780POPC   C3B83332  22.382  30.492  18.023  0.3372  0.0982 -0.0825
 3780POPC   C4B83333  22.394  30.303  18.444  0.1495 -0.3815  0.1194
 3781POPC   NC383334  31.707  23.910  14.833 -0.2723  0.1105  0.0643
 3781POPC   PO483335  31.489  24.222  14.849 -0.3290 -0.2612 -0.0345
 3781POPC   GL183336  31.264  24.068  15.016  0.1180  0.0083  0.0941
 3781POPC   GL283337  31.233  23.779  14.899 -0.0310 -0.0546 -0.0167
 3781POPC   C1A83338  30.783  24.050  14.980 -0.2026 -0.0633 -0.0683
 3781POPC   D2A83339  30.420  23.833  14.733 -0.1157 -0.1126  0.1128
 3781POPC   C3A83340  29.997  23.880  14.958  0.1495  0.0527  0.1628
 3781POPC   C4A83341  29.640  23.875  15.208 -0.0244 -0.0676  0.0368
 3781POPC   C1B83342  30.788  23.537  14.989  0.3170  0.0650  0.0577
 3781POPC   C2B83343  30.355  23.540  15.189  0.0291  0.0134 -0.1683
 3781POPC   C3B83344  30.055  23.725  15.504 -0.0404 -0.0481 -0.1145
 3781POPC   C4B83345  29.714  23.979  15.766  0.3374 -0.0160 -0.1209
 3782POPC   NC383346  24.059  26.799  12.118  0.0569 -0.1546 -0.3022
 3782POPC   PO483347  24.416  26.742  12.235 -0.1034 -0.0968 -0.1193
 3782POPC   GL183348  24.664  26.472  12.045  0.0410 -0.0895  0.1959
 3782POPC   GL283349  24.591  26.187  12.037  0.1475 -0.0060  0.1439
 3782POPC   C1A83350  24.829  26.461  11.640  0.0149  0.1343 -0.1104
 3782POPC   D2A83351  25.038  26.512  11.187  0.0786  0.2660 -0.0219
 3782POPC   C3A83352  24.820  26.365  10.754  0.2437 -0.0339  0.2858
 3782POPC   C4A83353  24.909  26.303  10.285 -0.0292 -0.0087  0.2863
 3782POPC   C1B83354  24.673  25.761  11.972 -0.4461  0.3867  0.1142
 3782POPC   C2B83355  24.404  25.434  11.827 -0.0182 -0.0124  0.1791
 3782POPC   C3B83356  24.448  25.145  11.473  0.1149  0.1386  0.0219
 3782POPC   C4B83357  24.702  25.221  11.090 -0.0162  0.1258  0.0109
 3783POPC   NC383358  21.530  22.082  12.346 -0.1530 -0.1221  0.0704
 3783POPC   PO483359  21.873  22.299  12.395 -0.1663 -0.1934 -0.1911
 3783POPC   GL183360  22.313  22.226  12.538 -0.0261  0.0174 -0.0803
 3783POPC   GL283361  22.474  22.496  12.617 -0.0063  0.4149 -0.2572
 3783POPC   C1A83362  22.553  21.911  12.406 -0.1836 -0.0441  0.0973
 3783POPC   D2A83363  22.942  21.720  12.370 -0.0855  0.1058 -0.3072
 3783POPC   C3A83364  23.145  21.922  12.723 -0.2871  0.2013  0.1720
 3783POPC   C4A83365  23.216  22.083  13.151 -0.2017 -0.0128 -0.0776
 3783POPC   C1B83366  22.795  22.323  12.415  0.0912  0.3959  0.1047
 3783POPC   C2B83367  23.195  22.162  12.312 -0.1248 -0.2728  0.0459
 3783POPC   C3B83368  23.603  22.015  12.359 -0.3093 -0.1255  0.0794
 3783POPC   C4B83369  24.004  22.100  12.608  0.0350  0.2536 -0.0896
 3784POPC   NC383370  22.412  29.994  16.122 -0.0074 -0.0431 -0.0411
 3784POPC   PO483371  22.465  30.117  16.482 -0.2707  0.2423 -0.1098
 3784POPC   GL183372  22.642  30.339  16.736 -0.1852 -0.0226 -0.2455
 3784POPC   GL283373  22.513  30.258  16.987  0.0315  0.0518  0.1010
 3784POPC   C1A83374  22.866  30.635  16.986 -0.1863  0.3322 -0.2232
 3784POPC   D2A83375  22.938  30.865  17.344 -0.0521  0.0181  0.2091
 3784POPC   C3A83376  22.985  31.098  17.783  0.1636  0.1373  0.2106
 3784POPC   C4A83377  22.833  31.178  18.238 -0.0460  0.1221 -0.1875
 3784POPC   C1B83378  22.427  30.367  17.407 -0.1382 -0.0424 -0.0100
 3784POPC   C2B83379  22.744  30.565  17.739 -0.0589 -0.0175 -0.1157
 3784POPC   C3B83380  22.922  30.638  18.162  0.1078 -0.1434  0.1771
 3784POPC   C4B83381  23.104  30.601  18.577  0.2583  0.0788 -0.0481
 3785POPC   NC383382  27.816  16.390  15.139  0.1029  0.1968  0.0704
 3785POPC   PO483383  27.619  16.024  15.074  0.0879  0.2598  0.0780
 3785POPC   GL183384  27.409  16.251  15.366  0.1100  0.3611  0.1829
 3785POPC   GL283385  27.334  16.413  15.201 -0.2247 -0.0394 -0.0622
 3785POPC   C1A83386  27.162  16.203  15.777 -0.0377 -0.2945  0.0765
 3785POPC   D2A83387  26.931  16.502  16.058  0.0334  0.0282 -0.0840
 3785POPC   C3A83388  27.014  16.727  16.442 -0.1058 -0.3956  0.0280
 3785POPC   C4A83389  26.757  17.126  16.608  0.0132 -0.4301  0.0092
 3785POPC   C1B83390  27.148  16.677  15.511  0.0249 -0.0043 -0.0203
 3785POPC   C2B83391  26.991  16.977  15.804  0.1422  0.1334  0.0234
 3785POPC   C3B83392  27.119  17.212  16.199 -0.3295 -0.2103 -0.0633
 3785POPC   C4B83393  27.269  17.219  16.642 -0.0861 -0.1055  0.2565
 3786POPC   NC383394  16.774  15.928  16.046 -0.1008  0.6359 -0.3402
 3786POPC   PO483395  16.752  16.294  16.131 -0.0670  0.0781  0.1613
 3786POPC   GL183396  16.726  16.317  16.417 -0.0613  0.0565 -0.0239
 3786POPC   GL283397  16.913  16.531  16.589  0.1973  0.2500  0.0503
 3786POPC   C1A83398  16.920  16.094  16.769 -0.0378 -0.0098 -0.1904
 3786POPC   D2A83399  16.931  16.130  17.263  0.0203 -0.1752 -0.1523
 3786POPC   C3A83400  17.288  16.279  17.510 -0.0613  0.0488  0.0585
 3786POPC   C4A83401  17.536  16.655  17.524 -0.0863 -0.2935 -0.0372
 3786POPC   C1B83402  17.045  16.566  16.979  0.0698 -0.0628 -0.1701
 3786POPC   C2B83403  16.958  16.704  17.442  0.1020 -0.0229 -0.3173
 3786POPC   C3B83404  16.936  16.385  17.799 -0.1938  0.3328 -0.0922
 3786POPC   C4B83405  17.075  15.978  17.940 -0.0498  0.1360 -0.0750
 3787POPC   NC383406  21.713  20.426  13.348 -0.2529 -0.0205  0.0914
 3787POPC   PO483407  22.000  20.305  13.078 -0.1604 -0.1084 -0.2468
 3787POPC   GL183408  22.396  20.378  13.060  0.0269  0.1719 -0.1954
 3787POPC   GL283409  22.442  20.351  13.334  0.0627 -0.0577  0.0285
 3787POPC   C1A83410  22.614  20.782  13.206 -0.0464 -0.0465 -0.2033
 3787POPC   D2A83411  22.859  21.179  13.321  0.1221  0.2237 -0.1782
 3787POPC   C3A83412  23.157  21.313  13.626 -0.1976  0.1579  0.0423
 3787POPC   C4A83413  23.432  21.254  13.981  0.5564 -0.1745 -0.0085
 3787POPC   C1B83414  22.825  20.518  13.578  0.0659 -0.2901  0.1663
 3787POPC   C2B83415  23.173  20.603  13.783 -0.0622 -0.2882  0.1936
 3787POPC   C3B83416  23.629  20.784  13.832 -0.0461 -0.2700  0.0524
 3787POPC   C4B83417  24.027  20.767  14.065 -0.3032 -0.1429 -0.0435
 3788POPC   NC383418  25.976  29.156  16.535  0.2898 -0.1560 -0.3887
 3788POPC   PO483419  25.626  29.037  16.412 -0.0720  0.2870  0.0257
 3788POPC   GL183420  25.625  28.983  16.750 -0.0183 -0.0907 -0.0664
 3788POPC   GL283421  25.831  28.717  16.721  0.1606  0.2861  0.0175
 3788POPC   C1A83422  25.826  29.335  16.995  0.1928 -0.0319 -0.1526
 3788POPC   D2A83423  25.614  29.559  17.369  0.1223  0.1751  0.1110
 3788POPC   C3A83424  25.596  29.752  17.809  0.0248 -0.4406 -0.0320
 3788POPC   C4A83425  25.664  30.060  18.155 -0.1841  0.2271 -0.2804
 3788POPC   C1B83426  25.862  28.704  17.181  0.1990  0.0425  0.1131
 3788POPC   C2B83427  25.765  28.538  17.589  0.0307  0.2067 -0.2073
 3788POPC   C3B83428  25.452  28.643  17.903  0.3619  0.2018 -0.0004
 3788POPC   C4B83429  25.208  28.933  18.172  0.0481 -0.3032 -0.1379
 3789POPC   NC383430  23.233  17.576  14.107  0.3123  0.2026  0.0117
 3789POPC   PO483431  22.874  17.381  14.271 -0.0103 -0.0180  0.1777
 3789POPC   GL183432  22.983  17.634  14.604 -0.1153 -0.0964  0.0856
 3789POPC   GL283433  23.065  17.515  14.842 -0.2012  0.2363 -0.0149
 3789POPC   C1A83434  23.379  17.878  14.513 -0.1924  0.0607  0.2946
 3789POPC   D2A83435  23.780  17.911  14.359 -0.1081 -0.2397  0.0994
 3789POPC   C3A83436  24.103  18.235  14.334 -0.1538  0.4368 -0.0175
 3789POPC   C4A83437  24.554  18.463  14.431  0.1306 -0.2437  0.0266
 3789POPC   C1B83438  23.224  17.769  15.213 -0.0157 -0.2096  0.0723
 3789POPC   C2B83439  23.185  18.221  15.381  0.5116 -0.1430  0.0912
 3789POPC   C3B83440  23.507  18.605  15.412 -0.0589 -0.2636 -0.0831
 3789POPC   C4B83441  23.916  18.614  15.131  0.3883  0.0003  0.0064
 3790POPC   NC383442  20.470  26.791  16.263  0.0725  0.1438  0.1160
 3790POPC   PO483443  20.151  26.963  16.473 -0.2629  0.2621 -0.0807
 3790POPC   GL183444  20.345  26.875  16.815  0.0054 -0.0249 -0.1168
 3790POPC   GL283445  20.610  26.804  16.731 -0.0681  0.0961  0.0984
 3790POPC   C1A83446  20.563  27.116  17.151  0.1502 -0.0174 -0.2526
 3790POPC   D2A83447  20.528  26.939  17.590  0.3014  0.3106 -0.0117
 3790POPC   C3A83448  20.577  27.131  18.024 -0.1697  0.2612  0.0276
 3790POPC   C4A83449  20.783  26.895  18.422 -0.0772  0.2174 -0.0259
 3790POPC   C1B83450  20.574  26.593  17.100  0.0887 -0.0669 -0.4404
 3790POPC   C2B83451  20.622  26.372  17.482  0.2680  0.1894 -0.4733
 3790POPC   C3B83452  20.743  26.213  17.921 -0.1761 -0.0823  0.1839
 3790POPC   C4B83453  20.805  26.134  18.391  0.3343 -0.0439 -0.2981
 3791POPC   NC383454  26.432  26.567  12.940 -0.0161  0.0842 -0.1341
 3791POPC   PO483455  26.276  26.742  13.203 -0.0704  0.3313 -0.4001
 3791POPC   GL183456  26.118  26.396  13.352 -0.2754  0.1026 -0.1525
 3791POPC   GL283457  25.871  26.487  13.527  0.0075 -0.2974 -0.2806
 3791POPC   C1A83458  25.836  26.014  13.228  0.0532  0.1012 -0.1813
 3791POPC   D2A83459  25.507  25.621  13.181  0.0825 -0.1327  0.3177
 3791POPC   C3A83460  25.594  25.233  13.466 -0.2455  0.0510 -0.2076
 3791POPC   C4A83461  25.498  24.794  13.575  0.1168  0.1234 -0.0279
 3791POPC   C1B83462  26.177  26.131  13.715  0.0836 -0.1053  0.1564
 3791POPC   C2B83463  26.330  25.659  13.860  0.2630 -0.3290 -0.0531
 3791POPC   C3B83464  26.352  25.337  14.193 -0.0518  0.1016 -0.1833
 3791POPC   C4B83465  26.383  24.943  14.418  0.0140 -0.0617  0.1955
 3792POPC   NC383466  21.002  21.001  14.344  0.0942 -0.0553 -0.0278
 3792POPC   PO483467  20.986  20.750  14.633  0.1724 -0.1153 -0.0184
 3792POPC   GL183468  21.216  21.033  14.779  0.3819  0.2638  0.0092
 3792POPC   GL283469  21.016  21.085  15.025 -0.2764 -0.2700  0.0828
 3792POPC   C1A83470  21.679  20.980  14.849 -0.1619  0.1611 -0.1089
 3792POPC   D2A83471  21.910  21.330  15.057  0.1262 -0.0144 -0.1771
 3792POPC   C3A83472  22.201  21.153  15.314 -0.3327  0.4976  0.1405
 3792POPC   C4A83473  22.611  21.223  15.477  0.1257 -0.1468 -0.2842
 3792POPC   C1B83474  21.232  20.873  15.328  0.0397 -0.1678 -0.0410
 3792POPC   C2B83475  21.664  20.741  15.271  0.0509  0.0867  0.1885
 3792POPC   C3B83476  22.082  20.722  15.078  0.0053  0.2924  0.1567
 3792POPC   C4B83477  22.414  21.011  14.896 -0.0806  0.0836 -0.2692
 3793POPC   NC383478  20.144  16.914  15.609  0.1139  0.0258 -0.2235
 3793POPC   PO483479  20.010  17.247  15.484 -0.0556 -0.1014  0.2058
 3793POPC   GL183480  20.317  17.308  15.760  0.1341 -0.1766  0.1935
 3793POPC   GL283481  20.411  17.209  15.978 -0.1509 -0.0259  0.2028
 3793POPC   C1A83482  20.400  17.706  16.044 -0.0477  0.2498 -0.2503
 3793POPC   D2A83483  20.554  17.886  16.462  0.0916 -0.0270 -0.1865
 3793POPC   C3A83484  20.525  17.983  16.920 -0.0739  0.2455  0.0979
 3793POPC   C4A83485  20.332  17.838  17.290  0.2104 -0.1143 -0.2159
 3793POPC   C1B83486  20.590  17.381  16.357 -0.0618 -0.1414  0.0566
 3793POPC   C2B83487  20.601  17.457  16.785 -0.1171 -0.1510  0.2199
 3793POPC   C3B83488  20.709  17.532  17.190 -0.0980  0.0743 -0.1250
 3793POPC   C4B83489  20.764  17.714  17.616  0.0602  0.1186  0.4679
 3794POPC   NC383490  30.526  25.299  14.650  0.1312 -0.0586 -0.1760
 3794POPC   PO483491  30.517  25.244  14.238  0.2723  0.1270 -0.2129
 3794POPC   GL183492  30.439  24.896  14.372 -0.1984  0.1179  0.1768
 3794POPC   GL283493  30.592  24.726  14.279  0.0202 -0.2265  0.1331
 3794POPC   C1A83494  30.093  24.770  14.683 -0.0094 -0.0901 -0.0097
 3794POPC   D2A83495  29.838  24.467  14.947  0.0966  0.0734 -0.2356
 3794POPC   C3A83496  29.880  24.274  15.395  0.0173  0.2226 -0.0969
 3794POPC   C4A83497  30.065  24.386  15.758  0.1017  0.0265 -0.1802
 3794POPC   C1B83498  30.162  24.493  14.198  0.0452 -0.2023 -0.2434
 3794POPC   C2B83499  29.751  24.639  14.349 -0.0372  0.1153 -0.4600
 3794POPC   C3B83500  29.404  24.482  14.566  0.3004 -0.1467 -0.1534
 3794POPC   C4B83501  29.033  24.208  14.720 -0.2327 -0.0703 -0.2460
 3795POPC   NC383502  28.319  27.042  10.633  0.2163 -0.1293  0.0678
 3795POPC   PO483503  28.446  27.386  10.508 -0.1327  0.0438 -0.0067
 3795POPC   GL183504  28.269  27.168  10.198  0.0635 -0.1590  0.0062
 3795POPC   GL283505  28.483  26.947  10.163 -0.2604 -0.1905 -0.4689
 3795POPC   C1A83506  28.007  26.750  10.199 -0.2336 -0.1310  0.0074
 3795POPC   D2A83507  27.851  26.333  10.053 -0.0855  0.2302  0.0492
 3795POPC   C3A83508  27.531  26.142   9.720 -0.1715 -0.2517 -0.5782
 3795POPC   C4A83509  27.230  25.869   9.429 -0.2349  0.2583  0.0874
 3795POPC   C1B83510  28.557  26.461  10.159 -0.0688  0.0012  0.2115
 3795POPC   C2B83511  28.526  26.136   9.825 -0.1546 -0.2141  0.2689
 3795POPC   C3B83512  28.706  25.784   9.607  0.0227  0.2375 -0.0056
 3795POPC   C4B83513  28.842  25.561   9.180  0.1236  0.2292 -0.1069
 3796POPC   NC383514  30.234  19.070   9.284  0.1148  0.1084  0.0061
 3796POPC   PO483515  29.969  18.740   9.267 -0.0893 -0.6882  0.3682
 3796POPC   GL183516  29.692  19.038   9.238 -0.2877 -0.1350  0.3350
 3796POPC   GL283517  29.778  19.127   8.926 -0.2578  0.1343 -0.0555
 3796POPC   C1A83518  29.426  19.424   9.185 -0.2783  0.1631 -0.1372
 3796POPC   D2A83519  29.337  19.772   8.883  0.3100  0.4183  0.0399
 3796POPC   C3A83520  28.892  19.924   8.657  0.0389  0.0282  0.1788
 3796POPC   C4A83521  28.609  20.229   8.721 -0.0765 -0.0375 -0.1404
 3796POPC   C1B83522  29.498  19.137   8.583  0.2050  0.0357  0.1774
 3796POPC   C2B83523  29.498  19.037   8.123  0.0903  0.3575  0.1855
 3796POPC   C3B83524  29.261  19.049   7.745  0.2434 -0.0568  0.3822
 3796POPC   C4B83525  28.953  19.406   7.688  0.0650  0.0742  0.0270
 3797POPC   NC383526  19.296  26.131  16.460  0.1891 -0.2486  0.0533
 3797POPC   PO483527  18.952  26.038  16.645  0.0040 -0.1945  0.0140
 3797POPC   GL183528  18.963  25.919  17.099  0.0911 -0.0038 -0.0181
 3797POPC   GL283529  18.972  26.242  17.121 -0.1898  0.0349 -0.4348
 3797POPC   C1A83530  18.840  25.974  17.546  0.0133 -0.0415 -0.1668
 3797POPC   D2A83531  18.752  25.618  17.837 -0.1247  0.3323 -0.3612
 3797POPC   C3A83532  18.259  25.606  17.905 -0.0083  0.2548  0.1998
 3797POPC   C4A83533  17.915  25.306  17.814 -0.1487  0.0200  0.1114
 3797POPC   C1B83534  19.321  25.983  17.312 -0.0735  0.0224 -0.1953
 3797POPC   C2B83535  19.194  25.580  17.631 -0.0695 -0.0978  0.3096
 3797POPC   C3B83536  18.989  25.116  17.730  0.0201  0.1642 -0.1908
 3797POPC   C4B83537  18.887  24.799  18.058 -0.1649  0.0083 -0.0892
 3798POPC   NC383538  20.744  23.575  15.155 -0.0693  0.1606 -0.0619
 3798POPC   PO483539  20.594  23.200  15.142  0.0459  0.1139  0.3056
 3798POPC   GL183540  20.800  23.057  15.444 -0.0141  0.0121  0.0750
 3798POPC   GL283541  20.984  22.893  15.250  0.4462  0.1577  0.1121
 3798POPC   C1A83542  20.665  22.940  15.892  0.2701  0.0324  0.0563
 3798POPC   D2A83543  20.834  22.842  16.334  0.1610 -0.0206 -0.1437
 3798POPC   C3A83544  21.138  23.002  16.622  0.0955 -0.0446 -0.1831
 3798POPC   C4A83545  21.298  23.392  16.840  0.0389 -0.0260  0.1873
 3798POPC   C1B83546  21.353  22.843  15.422  0.0066 -0.0845  0.1944
 3798POPC   C2B83547  21.818  22.694  15.426 -0.0711  0.0007 -0.0250
 3798POPC   C3B83548  22.256  22.677  15.600 -0.0887 -0.1803 -0.1880
 3798POPC   C4B83549  22.489  22.530  16.008 -0.2307 -0.0671 -0.3508
 3799POPC   NC383550  26.621  27.781  15.602  0.3075 -0.4035  0.3086
 3799POPC   PO483551  26.275  27.633  15.546 -0.1386 -0.0989 -0.0840
 3799POPC   GL183552  26.457  27.522  15.928 -0.0399 -0.0977  0.0201
 3799POPC   GL283553  26.706  27.337  15.870 -0.0091 -0.0646 -0.0004
 3799POPC   C1A83554  26.335  27.127  16.168  0.0349 -0.0525 -0.1284
 3799POPC   D2A83555  26.201  26.803  16.480  0.2134  0.0874 -0.3206
 3799POPC   C3A83556  26.307  26.482  16.788  0.0590  0.2206 -0.1174
 3799POPC   C4A83557  26.154  26.039  16.860 -0.0065  0.0309 -0.0415
 3799POPC   C1B83558  26.778  26.976  16.115 -0.0748 -0.1579  0.2158
 3799POPC   C2B83559  26.776  26.694  16.468  0.3197 -0.0195  0.1215
 3799POPC   C3B83560  27.118  26.443  16.664  0.0361 -0.1103 -0.2484
 3799POPC   C4B83561  27.444  26.144  16.844 -0.2795 -0.1361 -0.3977
 3800POPC   NC383562  24.382  29.553  16.294  0.3199  0.0793 -0.0255
 3800POPC   PO483563  24.140  29.208  16.336 -0.1605 -0.1350  0.0675
 3800POPC   GL183564  24.262  29.180  16.845  0.1212 -0.1203  0.1932
 3800POPC   GL283565  24.553  29.231  16.695 -0.1460  0.3119  0.3005
 3800POPC   C1A83566  24.391  29.146  17.224 -0.0653 -0.4367  0.0887
 3800POPC   D2A83567  24.609  28.959  17.577 -0.0955 -0.0030  0.0161
 3800POPC   C3A83568  24.707  29.139  17.998 -0.0014  0.0274 -0.1822
 3800POPC   C4A83569  24.854  29.350  18.398 -0.0981  0.1456 -0.2476
 3800POPC   C1B83570  24.629  28.842  16.901 -0.0506 -0.4202  0.0998
 3800POPC   C2B83571  24.762  28.518  17.211 -0.1734 -0.0842 -0.0292
 3800POPC   C3B83572  24.962  28.499  17.629 -0.3038  0.2111 -0.0230
 3800POPC   C4B83573  25.112  28.245  17.948 -0.2076  0.1789  0.0091
 3801POPC   NC383574   0.510  22.206  15.817  0.1046 -0.0390  0.0222
 3801POPC   PO483575   0.431  22.549  15.692 -0.0219  0.4130  0.0232
 3801POPC   GL183576   0.242  22.543  15.992  0.0591 -0.1153 -0.0834
 3801POPC   GL283577   0.071  22.299  16.098  0.1129 -0.1050  0.1204
 3801POPC   C1A83578   0.177  22.693  16.454 -0.0462 -0.4178 -0.0918
 3801POPC   D2A83579   0.135  22.624  16.894 -0.2816  0.1371  0.0728
 3801POPC   C3A83580   0.340  22.580  17.331 -0.1822 -0.0887 -0.2439
 3801POPC   C4A83581   0.579  22.362  17.727 -0.2142 -0.2657 -0.1200
 3801POPC   C1B83582   0.305  22.190  16.522 -0.4060 -0.0503 -0.3500
 3801POPC   C2B83583   0.486  22.220  16.961 -0.0478 -0.0326 -0.0328
 3801POPC   C3B83584   0.650  21.913  17.283 -0.0424 -0.2987 -0.0976
 3801POPC   C4B83585   0.892  21.676  17.611 -0.2109  0.1951  0.0389
 3802POPC   NC383586  32.071  21.746  15.480  0.0105  0.2848 -0.0093
 3802POPC   PO483587  31.987  22.079  15.315  0.1473  0.2198  0.0287
 3802POPC   GL183588  31.919  22.157  15.662  0.0502 -0.2953 -0.1828
 3802POPC   GL283589  31.787  22.386  15.650  0.0825  0.2257  0.0004
 3802POPC   C1A83590  31.663  22.248  16.081  0.2214 -0.1281  0.0556
 3802POPC   D2A83591  31.403  22.157  16.518 -0.0779  0.2233  0.0458
 3802POPC   C3A83592  31.318  21.722  16.617  0.1321 -0.2599 -0.1693
 3802POPC   C4A83593  31.025  21.494  16.297 -0.1499 -0.1269 -0.0586
 3802POPC   C1B83594  31.341  22.324  15.623 -0.4445  0.1857 -0.3174
 3802POPC   C2B83595  30.892  22.258  15.684 -0.0520 -0.3876 -0.5418
 3802POPC   C3B83596  30.476  22.289  15.792 -0.1795 -0.2067  0.1073
 3802POPC   C4B83597  30.013  22.364  15.810 -0.0644  0.1707  0.2412
 3803POPC   NC383598  25.129  30.886  15.541  0.3961  0.0329  0.2107
 3803POPC   PO483599  24.736  30.993  15.612  0.1306  0.2901  0.1359
 3803POPC   GL183600  24.774  31.185  15.930 -0.3670  0.0283 -0.1806
 3803POPC   GL283601  25.041  31.039  16.045  0.0652 -0.0725 -0.3739
 3803POPC   C1A83602  25.093  31.499  16.114  0.0026 -0.1016 -0.1863
 3803POPC   D2A83603  25.179  31.694  16.497 -0.0377 -0.1582 -0.0221
 3803POPC   C3A83604  25.153  31.988  16.839  0.2025 -0.0072 -0.0138
 3803POPC   C4A83605  25.273  32.202  17.228  0.0657  0.1221  0.2158
 3803POPC   C1B83606  25.286  31.148  16.405  0.0114 -0.1610 -0.1257
 3803POPC   C2B83607  25.348  31.366  16.827  0.1351 -0.1035  0.0687
 3803POPC   C3B83608  25.449  31.607  17.198 -0.0801 -0.1989 -0.2706
 3803POPC   C4B83609  25.611  31.693  17.660 -0.1301 -0.1125 -0.1319
 3804POPC   NC383610  21.290  28.820  16.204 -0.1275 -0.2179  0.3888
 3804POPC   PO483611  21.651  28.695  16.332  0.0332 -0.1020 -0.1169
 3804POPC   GL183612  21.687  28.580  16.610 -0.5602 -0.0452 -0.1548
 3804POPC   GL283613  21.437  28.512  16.813  0.1335 -0.0724 -0.0382
 3804POPC   C1A83614  21.954  28.512  16.938  0.0654  0.1338  0.0070
 3804POPC   D2A83615  22.228  28.333  17.264  0.0252 -0.2541  0.0925
 3804POPC   C3A83616  22.156  28.345  17.733 -0.2940  0.1580 -0.1056
 3804POPC   C4A83617  22.329  28.495  18.121 -0.1346 -0.1701 -0.0072
 3804POPC   C1B83618  21.259  28.365  17.234  0.0309 -0.1501 -0.1849
 3804POPC   C2B83619  21.320  28.348  17.714  0.2558  0.1201  0.0642
 3804POPC   C3B83620  21.509  28.091  18.060 -0.2658  0.1058  0.0797
 3804POPC   C4B83621  21.771  27.942  18.411 -0.0048 -0.0307 -0.1297
 3805POPC   NC383622  23.845  30.659   8.975  0.1239 -0.0049  0.0048
 3805POPC   PO483623  23.559  30.776   8.768 -0.0020  0.2298 -0.1856
 3805POPC   GL183624  23.557  30.722   8.411 -0.3418  0.0955  0.2562
 3805POPC   GL283625  23.411  30.508   8.256  0.1443 -0.0375  0.3484
 3805POPC   C1A83626  23.812  30.936   8.016  0.2613  0.0569 -0.4342
 3805POPC   D2A83627  24.141  30.808   7.800 -0.2560 -0.0479 -0.2097
 3805POPC   C3A83628  24.378  31.023   7.448  0.2248 -0.0449 -0.2227
 3805POPC   C4A83629  24.436  31.366   7.166 -0.0895  0.1037 -0.2397
 3805POPC   C1B83630  23.383  30.801   7.891  0.1572  0.2296  0.2987
 3805POPC   C2B83631  23.206  31.152   7.599  0.0227 -0.1879  0.0125
 3805POPC   C3B83632  23.297  31.231   7.184  0.1726 -0.2185 -0.0683
 3805POPC   C4B83633  23.383  31.347   6.767  0.1718 -0.1324 -0.2005
 3806POPC   NC383634  21.861  26.465  15.663  0.2473  0.0837  0.0056
 3806POPC   PO483635  21.640  26.550  15.963  0.0767  0.3596 -0.2375
 3806POPC   GL183636  21.847  26.270  16.146 -0.3057 -0.0144 -0.0024
 3806POPC   GL283637  22.101  26.281  16.264 -0.2800  0.0205 -0.1684
 3806POPC   C1A83638  21.787  26.079  16.596  0.0378  0.2066 -0.0514
 3806POPC   D2A83639  21.892  25.777  16.844  0.0884  0.0413 -0.0082
 3806POPC   C3A83640  21.952  25.650  17.271  0.0440 -0.0389 -0.0513
 3806POPC   C4A83641  22.001  25.810  17.720 -0.1519 -0.0476 -0.0346
 3806POPC   C1B83642  22.087  26.453  16.720 -0.1011  0.0955  0.0337
 3806POPC   C2B83643  22.034  26.598  17.165 -0.2805 -0.0679  0.3059
 3806POPC   C3B83644  22.178  26.682  17.618 -0.1220 -0.0617 -0.0687
 3806POPC   C4B83645  22.489  26.708  17.993 -0.2867  0.1028 -0.3174
 3807POPC   NC383646  23.561  26.974  15.206  0.2176  0.0797 -0.0014
 3807POPC   PO483647  23.908  26.975  14.997 -0.0338 -0.3108 -0.1212
 3807POPC   GL183648  23.950  26.525  14.939  0.2047 -0.0474  0.1132
 3807POPC   GL283649  24.083  26.389  15.240 -0.0703  0.1559 -0.0296
 3807POPC   C1A83650  24.073  26.046  14.919 -0.0543 -0.2044  0.1544
 3807POPC   D2A83651  24.367  25.786  14.639 -0.1177  0.0280 -0.2301
 3807POPC   C3A83652  24.787  25.643  14.884 -0.3331  0.0114  0.0101
 3807POPC   C4A83653  25.116  25.301  14.961 -0.1137  0.2965  0.0897
 3807POPC   C1B83654  24.473  26.326  15.465 -0.1388  0.0507  0.2684
 3807POPC   C2B83655  24.603  25.883  15.575 -0.0027  0.3486 -0.0037
 3807POPC   C3B83656  24.916  25.585  15.809 -0.0994 -0.0700  0.0468
 3807POPC   C4B83657  25.404  25.562  15.896 -0.1591  0.0152  0.2525
 3808POPC   NC383658  29.603  28.678  16.824  0.2359 -0.2720 -0.1243
 3808POPC   PO483659  29.743  28.607  16.488  0.1957  0.1393  0.2981
 3808POPC   GL183660  29.758  28.266  16.714 -0.1473 -0.0677 -0.1128
 3808POPC   GL283661  29.712  27.996  16.542 -0.1044  0.2622  0.0818
 3808POPC   C1A83662  29.809  28.244  17.156 -0.0418 -0.0314  0.2763
 3808POPC   D2A83663  29.972  27.992  17.533  0.2342 -0.0321  0.1653
 3808POPC   C3A83664  29.670  27.933  17.857  0.0168  0.0936 -0.1693
 3808POPC   C4A83665  29.433  27.704  18.234 -0.0897  0.0085  0.3196
 3808POPC   C1B83666  29.580  27.754  16.887 -0.1358  0.0982 -0.0166
 3808POPC   C2B83667  29.394  27.787  17.305 -0.0558 -0.4392  0.0862
 3808POPC   C3B83668  29.145  27.945  17.618 -0.1266 -0.0344 -0.0537
 3808POPC   C4B83669  29.088  28.151  18.062  0.1891  0.3465 -0.2119
 3809POPC   NC383670  24.176  16.632  13.823  0.1035 -0.0499  0.1720
 3809POPC   PO483671  24.199  16.960  14.016  0.2080  0.2154  0.0788
 3809POPC   GL183672  24.483  16.985  14.296  0.0007  0.1471  0.0465
 3809POPC   GL283673  24.751  16.831  14.234  0.1161  0.0299  0.2565
 3809POPC   C1A83674  24.445  17.048  14.732  0.3251 -0.1137 -0.2192
 3809POPC   D2A83675  24.622  17.217  15.119 -0.0323  0.2373  0.2669
 3809POPC   C3A83676  24.346  17.303  15.480 -0.0207 -0.3013  0.0569
 3809POPC   C4A83677  24.242  17.144  15.892 -0.1569 -0.2184  0.1232
 3809POPC   C1B83678  24.917  17.071  14.594 -0.0714 -0.0668  0.2620
 3809POPC   C2B83679  25.127  17.201  15.075  0.0087  0.0134 -0.1337
 3809POPC   C3B83680  25.178  17.463  15.462 -0.0777 -0.2705  0.0882
 3809POPC   C4B83681  25.131  17.748  15.774 -0.2681 -0.1407  0.2465
 3810POPC   NC383682  20.720  29.891  16.610 -0.1243 -0.0658 -0.0713
 3810POPC   PO483683  20.583  29.562  16.594  0.0174 -0.1576  0.4166
 3810POPC   GL183684  20.653  29.417  16.873  0.0239  0.0855  0.4130
 3810POPC   GL283685  20.488  29.650  17.077 -0.1085  0.2318  0.0108
 3810POPC   C1A83686  20.667  29.130  17.216  0.1900  0.2250 -0.2642
 3810POPC   D2A83687  20.759  29.066  17.663  0.3225 -0.2325 -0.3631
 3810POPC   C3A83688  20.516  29.355  17.934  0.0648 -0.2913 -0.1325
 3810POPC   C4A83689  20.481  29.764  18.158 -0.0398 -0.3175  0.2138
 3810POPC   C1B83690  20.351  29.737  17.487 -0.0828  0.1223  0.0588
 3810POPC   C2B83691  20.033  29.795  17.859  0.2110  0.1054  0.2749
 3810POPC   C3B83692  20.023  29.541  18.233  0.2403 -0.0483  0.2623
 3810POPC   C4B83693  20.342  29.309  18.489  0.1082 -0.3853 -0.0920
 3811POPC   NC383694  27.275  31.153  16.188  0.0862 -0.2345  0.0457
 3811POPC   PO483695  26.922  31.020  16.092 -0.2157 -0.0779  0.1539
 3811POPC   GL183696  26.846  31.240  16.336 -0.2828 -0.0957 -0.0282
 3811POPC   GL283697  26.652  31.171  16.521  0.0502  0.1829 -0.1048
 3811POPC   C1A83698  27.081  31.573  16.495 -0.1665  0.1017 -0.0134
 3811POPC   D2A83699  27.238  31.900  16.844  0.2917  0.1871 -0.1267
 3811POPC   C3A83700  27.236  31.795  17.325  0.0460  0.2492 -0.0222
 3811POPC   C4A83701  27.497  31.833  17.674 -0.1279 -0.3380  0.2251
 3811POPC   C1B83702  26.708  31.100  17.006 -0.2640  0.2407  0.1164
 3811POPC   C2B83703  26.599  31.047  17.417 -0.0015 -0.1262 -0.1160
 3811POPC   C3B83704  26.266  31.108  17.724 -0.1781  0.0200  0.3442
 3811POPC   C4B83705  25.973  30.806  17.942  0.0217 -0.2335 -0.1301
 3812POPC   NC383706  20.870  28.072  16.212 -0.0859 -0.2500 -0.0115
 3812POPC   PO483707  20.763  28.211  16.574 -0.4367  0.2096 -0.1288
 3812POPC   GL183708  20.962  28.296  16.887  0.0827 -0.0536  0.2272
 3812POPC   GL283709  21.124  28.016  16.854 -0.3041 -0.3246  0.2893
 3812POPC   C1A83710  20.769  28.123  17.238  0.2793  0.1260 -0.0688
 3812POPC   D2A83711  20.556  27.769  17.427 -0.2558 -0.1628  0.0558
 3812POPC   C3A83712  20.512  27.805  17.860 -0.1163  0.0013 -0.1183
 3812POPC   C4A83713  20.538  27.551  18.249 -0.1580 -0.2722  0.0855
 3812POPC   C1B83714  21.282  27.900  17.300 -0.3759  0.1639 -0.2942
 3812POPC   C2B83715  21.101  27.898  17.706  0.0671  0.0004  0.0759
 3812POPC   C3B83716  21.043  28.085  18.102  0.0557  0.0603 -0.1497
 3812POPC   C4B83717  21.001  27.854  18.508  0.0756  0.1935 -0.0722
 3813POPC   NC383718  30.887  25.401  12.385 -0.0995 -0.1876 -0.0914
 3813POPC   PO483719  30.556  25.311  12.578 -0.1017 -0.0624 -0.0850
 3813POPC   GL183720  30.129  25.236  12.504 -0.2345 -0.0814 -0.1140
 3813POPC   GL283721  30.098  24.922  12.350 -0.0694 -0.0226  0.2990
 3813POPC   C1A83722  29.717  25.121  12.657 -0.1798 -0.1298 -0.3034
 3813POPC   D2A83723  29.409  25.083  13.013 -0.2900  0.1239  0.0617
 3813POPC   C3A83724  28.994  25.015  12.952  0.0849 -0.1280  0.0530
 3813POPC   C4A83725  28.549  24.916  13.045  0.3832  0.0348 -0.4240
 3813POPC   C1B83726  29.676  24.915  12.162 -0.3190 -0.0556  0.2518
 3813POPC   C2B83727  29.339  24.756  11.916  0.2830  0.0858  0.0235
 3813POPC   C3B83728  29.031  24.514  11.706 -0.1577  0.0436  0.0559
 3813POPC   C4B83729  28.711  24.321  11.421  0.1932 -0.3431  0.0725
 3814POPC   NC383730  15.581  31.089  16.244 -0.2853 -0.1083  0.0592
 3814POPC   PO483731  15.374  31.340  16.373  0.2130  0.0803  0.2862
 3814POPC   GL183732  15.474  31.354  16.768  0.0679  0.2263  0.1245
 3814POPC   GL283733  15.420  31.643  16.915  0.3071  0.3828 -0.3083
 3814POPC   C1A83734  15.307  31.169  17.147  0.2208 -0.0178 -0.1061
 3814POPC   D2A83735  15.294  31.396  17.517  0.0839  0.2353 -0.0608
 3814POPC   C3A83736  15.618  31.577  17.797  0.0180  0.2202  0.0759
 3814POPC   C4A83737  15.943  31.737  18.102  0.2426  0.2259  0.1436
 3814POPC   C1B83738  15.380  31.845  17.330 -0.2839  0.0762  0.0323
 3814POPC   C2B83739  15.681  32.004  17.644 -0.0160 -0.2183  0.0088
 3814POPC   C3B83740  15.940  32.221  17.941 -0.0507 -0.1215 -0.1395
 3814POPC   C4B83741  16.159  32.141  18.324  0.1763 -0.1933  0.0298
 3815POPC   NC383742  22.715  28.024  15.915 -0.1838 -0.1248 -0.2195
 3815POPC   PO483743  22.689  27.656  16.046 -0.3699  0.0149 -0.0974
 3815POPC   GL183744  22.636  27.604  16.483  0.0021 -0.3269  0.0338
 3815POPC   GL283745  22.388  27.581  16.507  0.2718  0.1045  0.3008
 3815POPC   C1A83746  22.880  27.325  16.803  0.0356 -0.1799 -0.1921
 3815POPC   D2A83747  23.220  27.084  16.628 -0.0570 -0.2583 -0.1152
 3815POPC   C3A83748  23.476  26.793  16.907  0.2480 -0.0759  0.1667
 3815POPC   C4A83749  23.727  26.438  17.054 -0.1147 -0.0240  0.0486
 3815POPC   C1B83750  22.322  27.386  16.938  0.3021  0.3856  0.2354
 3815POPC   C2B83751  22.239  27.386  17.438 -0.1859  0.1155  0.0178
 3815POPC   C3B83752  22.242  27.150  17.873  0.0615 -0.1335  0.2579
 3815POPC   C4B83753  22.288  27.109  18.272  0.0519  0.2000  0.2151
 3816POPC   NC383754  23.288  31.867   8.711 -0.0553  0.2220  0.1309
 3816POPC   PO483755  23.121  31.521   8.645 -0.1452 -0.1584 -0.0926
 3816POPC   GL183756  23.201  31.549   8.334  0.2324  0.0568 -0.4860
 3816POPC   GL283757  22.951  31.775   8.277 -0.1926 -0.0309 -0.0508
 3816POPC   C1A83758  23.471  31.473   7.974 -0.0086  0.4761 -0.0202
 3816POPC   D2A83759  23.558  31.476   7.528 -0.2264 -0.0646  0.0573
 3816POPC   C3A83760  23.804  31.079   7.531 -0.1145  0.2921  0.2114
 3816POPC   C4A83761  23.971  30.778   7.220  0.2667 -0.1374 -0.0398
 3816POPC   C1B83762  23.158  31.914   7.910  0.3047 -0.0989 -0.2689
 3816POPC   C2B83763  23.217  31.867   7.441  0.0482  0.0613  0.0058
 3816POPC   C3B83764  23.388  31.725   7.060  0.0216  0.3105 -0.2925
 3816POPC   C4B83765  23.571  31.782   6.674 -0.2451 -0.2127  0.0224
 3817POPC   NC383766  22.668  28.192   9.639  0.1938 -0.2234 -0.1871
 3817POPC   PO483767  22.751  27.826   9.591 -0.0958  0.1907  0.1318
 3817POPC   GL183768  23.071  27.606   9.431  0.0308  0.1321 -0.2543
 3817POPC   GL283769  23.253  27.766   9.239  0.2245  0.4317  0.0167
 3817POPC   C1A83770  23.013  27.122   9.240 -0.1937 -0.0053 -0.5690
 3817POPC   D2A83771  22.839  26.724   9.017  0.1127 -0.0655  0.0502
 3817POPC   C3A83772  23.121  26.688   8.699  0.1089  0.3278 -0.2991
 3817POPC   C4A83773  23.096  26.547   8.248 -0.3353  0.1488 -0.0574
 3817POPC   C1B83774  23.123  27.507   8.854 -0.0651  0.0010 -0.2013
 3817POPC   C2B83775  23.165  27.163   8.549 -0.0796 -0.0555  0.0619
 3817POPC   C3B83776  23.400  27.027   8.203  0.2274  0.2432 -0.1285
 3817POPC   C4B83777  23.823  26.932   8.007  0.0642  0.0428  0.0043
 3818POPC   NC383778  32.061  30.892  16.104 -0.0243 -0.2375 -0.1764
 3818POPC   PO483779  32.009  30.719  16.474 -0.0263  0.3550  0.0105
 3818POPC   GL183780  32.004  30.835  16.890  0.0997  0.3947  0.3769
 3818POPC   GL283781  32.101  30.666  17.057 -0.0069  0.0323  0.1645
 3818POPC   C1A83782  31.871  31.208  17.115  0.0397  0.1546  0.0893
 3818POPC   D2A83783  32.148  31.513  17.285  0.2838  0.1298 -0.0216
 3818POPC   C3A83784  31.853  31.728  17.573  0.2283  0.0512  0.0658
 3818POPC   C4A83785  31.612  31.985  17.844 -0.1328  0.1905 -0.1774
 3818POPC   C1B83786  31.808  30.787  17.378  0.0517 -0.2514  0.3704
 3818POPC   C2B83787  31.886  30.822  17.807  0.0100 -0.0184  0.3631
 3818POPC   C3B83788  31.757  30.624  18.214  0.0589  0.1175 -0.1637
 3818POPC   C4B83789  31.842  30.887  18.649  0.4031  0.1162 -0.2483
 3819POPC   NC383790  18.752  27.665  16.665  0.1797 -0.0528  0.1780
 3819POPC   PO483791  19.021  27.880  16.433  0.2882 -0.2619 -0.1870
 3819POPC   GL183792  19.178  28.097  16.691  0.0690 -0.3533  0.0961
 3819POPC   GL283793  19.360  27.846  16.878  0.1558  0.0297  0.1250
 3819POPC   C1A83794  19.032  28.221  17.134 -0.1288 -0.1546 -0.0940
 3819POPC   D2A83795  19.198  28.238  17.493  0.0504  0.0676  0.0829
 3819POPC   C3A83796  19.137  28.154  17.976  0.0307  0.0030 -0.2605
 3819POPC   C4A83797  18.930  28.057  18.373 -0.0136 -0.1857 -0.1130
 3819POPC   C1B83798  19.527  27.877  17.315  0.1995  0.2857  0.0347
 3819POPC   C2B83799  19.622  27.888  17.757 -0.0493 -0.1046 -0.1470
 3819POPC   C3B83800  19.548  27.936  18.259  0.0015 -0.0980 -0.0465
 3819POPC   C4B83801  19.264  27.772  18.565 -0.0861 -0.1415 -0.3178
 3820POPC   NC383802  31.368  19.346  15.147 -0.1763  0.2428 -0.0602
 3820POPC   PO483803  31.535  19.497  14.839 -0.2359 -0.0912  0.1761
 3820POPC   GL183804  31.751  19.628  15.242  0.0578 -0.0943  0.1036
 3820POPC   GL283805  31.823  19.406  15.466  0.3748 -0.2701  0.1055
 3820POPC   C1A83806  31.347  19.745  15.494  0.3392  0.4297  0.1461
 3820POPC   D2A83807  31.260  19.441  15.890  0.2000 -0.1175 -0.0305
 3820POPC   C3A83808  30.990  19.336  16.250 -0.2188  0.0744  0.1727
 3820POPC   C4A83809  30.879  19.420  16.692  0.2949  0.1331  0.1926
 3820POPC   C1B83810  31.858  19.824  15.677  0.1074  0.2061  0.2264
 3820POPC   C2B83811  31.602  19.979  16.002  0.2797 -0.0788  0.1785
 3820POPC   C3B83812  31.447  20.204  16.367  0.0591  0.1406 -0.2140
 3820POPC   C4B83813  30.994  20.306  16.601  0.1417  0.0529  0.0766
 3821POPC   NC383814  28.388  28.655   9.395 -0.0648 -0.1334 -0.1730
 3821POPC   PO483815  28.746  28.616   9.245 -0.1209  0.0567  0.3389
 3821POPC   GL183816  28.402  28.308   9.077  0.0064 -0.2273 -0.1812
 3821POPC   GL283817  28.687  28.104   9.163 -0.1956 -0.1653  0.1541
 3821POPC   C1A83818  28.089  28.183   8.710 -0.3808 -0.0477 -0.0215
 3821POPC   D2A83819  27.759  28.027   8.464 -0.0528 -0.0562 -0.0338
 3821POPC   C3A83820  27.810  27.696   8.146  0.0664 -0.0396  0.2993
 3821POPC   C4A83821  27.623  27.494   7.786  0.0491 -0.2010  0.2462
 3821POPC   C1B83822  28.480  27.883   8.771 -0.1776  0.1609 -0.2365
 3821POPC   C2B83823  28.540  27.697   8.336 -0.0548  0.4433  0.1552
 3821POPC   C3B83824  28.649  27.365   8.101  0.0358 -0.0200 -0.0232
 3821POPC   C4B83825  28.685  27.003   7.770  0.1665 -0.1438 -0.1336
 3822POPC   NC383826  20.835  24.542  15.090  0.4565 -0.0133  0.0959
 3822POPC   PO483827  20.819  24.343  15.472  0.0732  0.1268  0.2400
 3822POPC   GL183828  20.997  24.284  15.825  0.3476 -0.0994 -0.2566
 3822POPC   GL283829  20.863  24.378  16.040  0.3066  0.2370 -0.0911
 3822POPC   C1A83830  21.425  24.145  15.956  0.1415 -0.1401  0.0648
 3822POPC   D2A83831  21.746  23.868  16.083 -0.1903 -0.1818  0.0388
 3822POPC   C3A83832  21.994  23.624  15.735 -0.1639 -0.0582 -0.0270
 3822POPC   C4A83833  22.191  23.211  15.664 -0.0268  0.0698  0.0206
 3822POPC   C1B83834  21.142  24.356  16.407 -0.0120 -0.0386 -0.0489
 3822POPC   C2B83835  21.484  24.296  16.859  0.2884 -0.2284 -0.2330
 3822POPC   C3B83836  21.549  24.452  17.269 -0.1242 -0.0931  0.1655
 3822POPC   C4B83837  21.748  24.600  17.717 -0.1580 -0.2186  0.0113
 3823POPC   NC383838  29.809  32.755  15.594 -0.2259 -0.0050 -0.3039
 3823POPC   PO483839  29.990  32.659  15.955  0.0281  0.0099  0.1506
 3823POPC   GL183840  29.992  32.663  16.415 -0.0950  0.2141 -0.0002
 3823POPC   GL283841  29.869  32.446  16.507 -0.0250 -0.3297  0.0957
 3823POPC   C1A83842  29.823  32.842  16.787 -0.1536 -0.2867 -0.2391
 3823POPC   D2A83843  29.888  32.949  17.260  0.2566  0.2419  0.0938
 3823POPC   C3A83844  29.957  33.242  17.618  0.1582 -0.2903 -0.0052
 3823POPC   C4A83845  30.280  33.133  17.940  0.0958 -0.1200 -0.2057
 3823POPC   C1B83846  29.775  32.380  16.974 -0.1746  0.3040 -0.1137
 3823POPC   C2B83847  29.480  32.608  17.309  0.0415  0.3296 -0.0101
 3823POPC   C3B83848  29.228  32.930  17.467 -0.0489 -0.0452  0.0473
 3823POPC   C4B83849  29.073  33.299  17.697  0.3366  0.1567 -0.0991
 3824POPC   NC383850  22.092  23.904  11.617  0.1711  0.3825  0.2404
 3824POPC   PO483851  21.941  24.249  11.599  0.0731  0.1003  0.0772
 3824POPC   GL183852  22.230  24.394  11.323 -0.2067 -0.3373 -0.1857
 3824POPC   GL283853  22.417  24.143  11.289  0.0523 -0.1908  0.2857
 3824POPC   C1A83854  22.374  24.374  10.853 -0.0887  0.1432 -0.0056
 3824POPC   D2A83855  22.775  24.517  10.593 -0.1785  0.0847  0.1233
 3824POPC   C3A83856  23.153  24.245  10.653  0.2255  0.2132  0.2586
 3824POPC   C4A83857  23.557  24.003  10.768 -0.4726  0.0159  0.1055
 3824POPC   C1B83858  22.739  24.181  11.576  0.2503 -0.1573 -0.0832
 3824POPC   C2B83859  23.019  23.841  11.673  0.1200  0.1383 -0.0598
 3824POPC   C3B83860  23.325  23.579  11.443 -0.2704  0.0472  0.2003
 3824POPC   C4B83861  23.662  23.333  11.341  0.0585  0.0399 -0.1101
 3825POPC   NC383862  23.268  18.845   9.965 -0.2787 -0.0400  0.2743
 3825POPC   PO483863  23.130  18.807  10.356 -0.3172  0.1477  0.2356
 3825POPC   GL183864  23.314  19.115  10.289 -0.1442  0.0664 -0.3702
 3825POPC   GL283865  23.569  19.280  10.242 -0.0510  0.1720  0.2046
 3825POPC   C1A83866  23.232  19.606  10.348 -0.0355  0.1956  0.3805
 3825POPC   D2A83867  23.463  19.997  10.241 -0.0050  0.0955 -0.3212
 3825POPC   C3A83868  23.529  20.072   9.772  0.2764  0.0063  0.2129
 3825POPC   C4A83869  23.890  20.159   9.543 -0.2621 -0.2524  0.2779
 3825POPC   C1B83870  23.696  19.287   9.798  0.1947  0.1329  0.3101
 3825POPC   C2B83871  24.031  19.545   9.584 -0.1510 -0.0784  0.1691
 3825POPC   C3B83872  24.375  19.817   9.513  0.2340 -0.1323 -0.0727
 3825POPC   C4B83873  24.768  20.131   9.581 -0.2493 -0.1756  0.1255
 3826POPC   NC383874  17.116  30.248  16.787  0.0972 -0.0727 -0.2707
 3826POPC   PO483875  17.201  30.593  16.599 -0.2093  0.1865  0.3118
 3826POPC   GL183876  17.481  30.594  16.929 -0.3664  0.1807  0.1801
 3826POPC   GL283877  17.689  30.380  16.975 -0.0670  0.2141 -0.0834
 3826POPC   C1A83878  17.620  30.743  17.380 -0.0037 -0.0085  0.0652
 3826POPC   D2A83879  17.950  30.669  17.692 -0.0763 -0.6242  0.0895
 3826POPC   C3A83880  17.907  30.549  18.188  0.3235 -0.3137  0.0842
 3826POPC   C4A83881  18.096  30.631  18.628  0.1288  0.0757  0.0837
 3826POPC   C1B83882  17.992  30.687  17.057 -0.1776  0.0419 -0.0179
 3826POPC   C2B83883  18.314  30.769  17.350  0.0209  0.0883 -0.1306
 3826POPC   C3B83884  18.467  30.792  17.782 -0.0504 -0.0162  0.2786
 3826POPC   C4B83885  18.445  30.569  18.189  0.0003 -0.1346 -0.0395
 3827POPC   NC383886  30.983  22.999  11.848 -0.0933 -0.2390  0.1897
 3827POPC   PO483887  31.121  22.977  11.474  0.1012  0.0635 -0.0321
 3827POPC   GL183888  30.873  23.172  11.390  0.2897  0.0933 -0.0426
 3827POPC   GL283889  30.983  23.463  11.575 -0.0162 -0.2639 -0.1816
 3827POPC   C1A83890  30.490  23.005  11.143  0.0450 -0.4131 -0.0590
 3827POPC   D2A83891  30.123  22.992  10.872 -0.0815 -0.2321  0.0308
 3827POPC   C3A83892  29.691  23.043  11.093 -0.3878 -0.5189 -0.2580
 3827POPC   C4A83893  29.483  22.922  11.525 -0.1317 -0.3997 -0.2674
 3827POPC   C1B83894  30.564  23.467  11.821  0.0358  0.0542  0.0888
 3827POPC   C2B83895  30.117  23.391  11.959  0.1162 -0.1757 -0.0639
 3827POPC   C3B83896  29.915  23.176  12.367 -0.0452 -0.0726  0.1335
 3827POPC   C4B83897  29.512  22.944  12.388 -0.2758 -0.0393 -0.1486
 3828POPC   NC383898  28.959  18.309  13.597 -0.2505 -0.1039  0.0135
 3828POPC   PO483899  29.201  18.327  13.902 -0.0198 -0.2422 -0.2408
 3828POPC   GL183900  29.167  18.419  14.298  0.3478  0.0438  0.1853
 3828POPC   GL283901  29.473  18.434  14.320 -0.0752 -0.1311 -0.1385
 3828POPC   C1A83902  28.872  18.684  14.516 -0.1978 -0.1456 -0.0151
 3828POPC   D2A83903  28.553  18.946  14.663  0.0854  0.0080  0.2276
 3828POPC   C3A83904  28.719  19.280  14.942 -0.1322 -0.0835  0.0908
 3828POPC   C4A83905  28.967  19.645  15.074  0.2759  0.2689  0.3602
 3828POPC   C1B83906  29.273  18.562  14.689 -0.1007  0.2856 -0.2757
 3828POPC   C2B83907  29.249  18.574  15.154 -0.1721 -0.2871 -0.0597
 3828POPC   C3B83908  29.517  18.764  15.487  0.0096  0.0401  0.0313
 3828POPC   C4B83909  29.574  19.177  15.668  0.0260  0.0629 -0.0555
 3829POPC   NC383910  24.266  27.053  14.456 -0.0343  0.2429 -0.0035
 3829POPC   PO483911  24.480  27.276  14.626  0.1287  0.0715 -0.1456
 3829POPC   GL183912  24.408  27.015  14.966 -0.1441 -0.0118 -0.1676
 3829POPC   GL283913  24.386  26.780  14.848 -0.0753 -0.0932 -0.2312
 3829POPC   C1A83914  24.437  26.822  15.381  0.0966  0.1086 -0.3705
 3829POPC   D2A83915  24.272  26.667  15.799 -0.5442  0.2106  0.3332
 3829POPC   C3A83916  24.508  26.683  16.178 -0.0103 -0.1115  0.3244
 3829POPC   C4A83917  24.683  26.558  16.576  0.2249 -0.1681 -0.1495
 3829POPC   C1B83918  24.442  26.353  14.825 -0.2474  0.4329 -0.1606
 3829POPC   C2B83919  24.766  26.089  15.053  0.2585 -0.1358 -0.2247
 3829POPC   C3B83920  25.043  25.839  15.356  0.3289 -0.0644  0.1912
 3829POPC   C4B83921  25.331  25.532  15.366 -0.0796  0.1491 -0.0547
 3830POPC   NC383922  16.189  30.453  16.302  0.2555  0.0560  0.5729
 3830POPC   PO483923  16.183  30.277  16.614  0.2694 -0.1375 -0.2399
 3830POPC   GL183924  16.476  30.227  16.864  0.1068 -0.0755 -0.0139
 3830POPC   GL283925  16.358  30.008  17.071  0.4689  0.1479 -0.0974
 3830POPC   C1A83926  16.451  30.506  17.250  0.0387 -0.1368  0.0536
 3830POPC   D2A83927  16.256  30.852  17.571  0.2533 -0.1010  0.0253
 3830POPC   C3A83928  16.071  30.772  17.953  0.0446 -0.1199  0.0737
 3830POPC   C4A83929  16.116  31.008  18.384  0.1451  0.1040  0.2053
 3830POPC   C1B83930  16.293  30.120  17.511  0.1180 -0.0963 -0.2707
 3830POPC   C2B83931  16.360  30.410  17.851  0.0670 -0.0734  0.2097
 3830POPC   C3B83932  16.428  30.585  18.264 -0.0006  0.2577  0.1987
 3830POPC   C4B83933  16.440  30.582  18.673 -0.0566 -0.0020  0.0703
 3831POPC   NC383934  20.431  19.756  14.672 -0.0927  0.2722  0.0595
 3831POPC   PO483935  20.748  20.000  14.652 -0.2343  0.0632 -0.1494
 3831POPC   GL183936  21.134  20.111  14.947 -0.2846  0.0576 -0.0186
 3831POPC   GL283937  21.307  19.895  14.995 -0.0575 -0.2863  0.3240
 3831POPC   C1A83938  21.375  20.298  15.324  0.2508  0.1454 -0.0407
 3831POPC   D2A83939  21.727  20.417  15.684 -0.0553  0.0103  0.3645
 3831POPC   C3A83940  22.018  20.733  15.736 -0.1137 -0.1368  0.0039
 3831POPC   C4A83941  22.449  20.907  15.824  0.1817  0.0145  0.0315
 3831POPC   C1B83942  21.621  19.851  15.372 -0.1350 -0.2547  0.0750
 3831POPC   C2B83943  21.878  19.883  15.774  0.1556  0.2269 -0.0989
 3831POPC   C3B83944  22.179  19.804  16.097 -0.0238  0.0262  0.0391
 3831POPC   C4B83945  22.390  19.937  16.464  0.2026  0.0212  0.1388
 3832POPC   NC383946  25.874  17.321  12.608 -0.2752 -0.0948 -0.0486
 3832POPC   PO483947  26.201  17.466  12.754 -0.4262 -0.0713  0.2076
 3832POPC   GL183948  25.975  17.686  12.917 -0.1304  0.0429  0.1632
 3832POPC   GL283949  26.138  17.893  12.952  0.1494 -0.1426 -0.0539
 3832POPC   C1A83950  25.708  18.075  12.903 -0.0626  0.0432 -0.0516
 3832POPC   D2A83951  25.500  18.410  13.073  0.1406 -0.2253  0.0164
 3832POPC   C3A83952  25.603  18.899  12.976 -0.0930 -0.1470 -0.2614
 3832POPC   C4A83953  25.567  19.327  13.057  0.0282 -0.1518 -0.0488
 3832POPC   C1B83954  26.076  18.223  13.211 -0.0872  0.4004 -0.1512
 3832POPC   C2B83955  25.981  18.678  13.212  0.3571  0.0269  0.0844
 3832POPC   C3B83956  25.908  19.076  13.331 -0.0722  0.2579  0.2934
 3832POPC   C4B83957  25.748  19.499  13.473  0.0164  0.1448  0.0253
 3833POPC   NC383958  21.513  27.841  16.497  0.0278  0.0192 -0.0468
 3833POPC   PO483959  21.824  27.676  16.334 -0.2370 -0.0570  0.0600
 3833POPC   GL183960  21.856  27.738  16.748 -0.3929 -0.0153  0.1307
 3833POPC   GL283961  21.830  27.406  16.858 -0.2338 -0.0124 -0.2156
 3833POPC   C1A83962  22.079  27.800  17.180  0.0440 -0.2538  0.0123
 3833POPC   D2A83963  22.333  27.942  17.500 -0.0822  0.3448  0.0239
 3833POPC   C3A83964  22.523  27.640  17.779 -0.0933 -0.3045 -0.0426
 3833POPC   C4A83965  22.694  27.436  18.165 -0.0657 -0.0262 -0.0775
 3833POPC   C1B83966  21.633  27.538  17.243 -0.0318  0.1454  0.1597
 3833POPC   C2B83967  21.482  27.594  17.695 -0.4496  0.0478 -0.0629
 3833POPC   C3B83968  21.542  27.582  18.186  0.3904  0.2928  0.2376
 3833POPC   C4B83969  21.824  27.419  18.495  0.1394  0.1843 -0.0022
 3834POPC   NC383970  18.790  18.988  15.185  0.1518 -0.2577 -0.0424
 3834POPC   PO483971  18.475  18.900  15.431 -0.0769 -0.1807 -0.3335
 3834POPC   GL183972  18.486  19.014  15.870  0.1329  0.0600 -0.0600
 3834POPC   GL283973  18.663  19.198  15.978  0.2137 -0.2520  0.1249
 3834POPC   C1A83974  18.235  19.052  16.217  0.0162 -0.0684  0.1036
 3834POPC   D2A83975  17.921  18.838  16.456  0.4485  0.0722 -0.0986
 3834POPC   C3A83976  18.049  18.866  16.909  0.1280 -0.1200  0.2287
 3834POPC   C4A83977  18.129  18.728  17.362 -0.1372 -0.5109  0.2811
 3834POPC   C1B83978  18.677  19.345  16.401  0.0209  0.1816 -0.0535
 3834POPC   C2B83979  18.457  19.231  16.759 -0.0368 -0.0225  0.0522
 3834POPC   C3B83980  18.530  19.037  17.195  0.1445  0.0564  0.1926
 3834POPC   C4B83981  18.739  19.009  17.675 -0.2378  0.0925  0.3181
 3835POPC   NC383982  31.046  24.256  14.534  0.0868  0.0602  0.0210
 3835POPC   PO483983  31.038  24.023  14.216 -0.1027 -0.2226 -0.2540
 3835POPC   GL183984  30.808  23.590  14.528 -0.0429 -0.0184 -0.2057
 3835POPC   GL283985  30.652  23.530  14.305  0.2058 -0.1459 -0.2019
 3835POPC   C1A83986  30.461  23.302  14.689  0.0073 -0.2154 -0.0443
 3835POPC   D2A83987  30.019  23.363  14.737  0.0089 -0.0755 -0.0757
 3835POPC   C3A83988  29.536  23.429  14.803  0.0072 -0.2925 -0.0798
 3835POPC   C4A83989  29.097  23.272  14.794 -0.3387 -0.1679 -0.0164
 3835POPC   C1B83990  30.216  23.580  14.271  0.0931 -0.1191  0.1068
 3835POPC   C2B83991  29.792  23.727  14.374  0.0926  0.2044 -0.0319
 3835POPC   C3B83992  29.321  23.813  14.245 -0.2727 -0.0891 -0.2021
 3835POPC   C4B83993  28.869  23.894  14.167 -0.3411 -0.2017 -0.1537
 3836POPC   NC383994  20.281  23.528  15.326 -0.1208 -0.1484  0.2155
 3836POPC   PO483995  20.218  23.592  15.670 -0.1293 -0.1989 -0.1090
 3836POPC   GL183996  20.448  23.569  16.073  0.0415  0.0264  0.1222
 3836POPC   GL283997  20.346  23.784  16.194 -0.0754 -0.0219 -0.0619
 3836POPC   C1A83998  20.345  23.257  16.374 -0.2454 -0.1018 -0.0155
 3836POPC   D2A83999  19.929  23.185  16.514 -0.2812 -0.0618 -0.0568
 3836POPC   C3A84000  20.023  23.173  16.977 -0.0172  0.3590  0.0298
 3836POPC   C4A84001  20.308  23.076  17.318 -0.2933 -0.0696  0.0353
 3836POPC   C1B84002  20.303  23.709  16.682 -0.3630 -0.3516 -0.0361
 3836POPC   C2B84003  20.445  23.506  17.026  0.3975  0.1613 -0.0977
 3836POPC   C3B84004  20.464  23.548  17.460 -0.0006 -0.1417 -0.0810
 3836POPC   C4B84005  20.547  23.239  17.833 -0.1454  0.0098  0.1915
 3837POPC   NC384006  31.264  20.001  13.362  0.0921  0.0602 -0.1007
 3837POPC   PO484007  30.945  20.038  13.129 -0.0241 -0.0177  0.0802
 3837POPC   GL184008  30.727  20.301  12.820  0.0471 -0.0261  0.1403
 3837POPC   GL284009  30.577  20.118  12.750 -0.3258 -0.0520 -0.0988
 3837POPC   C1A84010  30.550  20.673  12.568  0.0295 -0.1376 -0.0996
 3837POPC   D2A84011  30.713  20.970  12.269  0.1525  0.2906 -0.1278
 3837POPC   C3A84012  30.335  20.834  12.033 -0.1695  0.3276 -0.2209
 3837POPC   C4A84013  29.924  20.798  12.105  0.0744 -0.2870  0.1020
 3837POPC   C1B84014  30.258  20.325  13.089  0.1102  0.2232 -0.3198
 3837POPC   C2B84015  30.098  20.667  13.418  0.2110 -0.0544  0.0841
 3837POPC   C3B84016  29.798  21.037  13.590 -0.2043 -0.1648  0.1873
 3837POPC   C4B84017  29.497  21.248  13.903 -0.2759  0.0406  0.1822
 3838POPC   NC384018  19.803  26.337  15.996  0.1486 -0.2640 -0.0660
 3838POPC   PO484019  20.156  26.461  16.115  0.0719  0.0418 -0.2459
 3838POPC   GL184020  20.258  26.516  16.521 -0.1141  0.1154 -0.1938
 3838POPC   GL284021  20.407  26.318  16.575  0.0964  0.4926  0.1278
 3838POPC   C1A84022  20.069  26.464  16.942 -0.0497  0.0102 -0.1733
 3838POPC   D2A84023  20.121  26.487  17.360  0.0521 -0.0146 -0.2735
 3838POPC   C3A84024  20.057  26.711  17.745 -0.2950 -0.0407 -0.0928
 3838POPC   C4A84025  19.965  26.921  18.147 -0.1374 -0.1462  0.0173
 3838POPC   C1B84026  20.411  26.100  17.002  0.2263  0.2585 -0.2256
 3838POPC   C2B84027  20.579  25.887  17.351 -0.1581 -0.2032 -0.0598
 3838POPC   C3B84028  20.577  25.675  17.762 -0.0800  0.1212 -0.2798
 3838POPC   C4B84029  20.438  25.690  18.207 -0.1897 -0.3104 -0.2259
 3839POPC   NC384030  23.905  17.013  14.387 -0.1461 -0.2469  0.1238
 3839POPC   PO484031  23.890  16.713  14.618  0.1065  0.0934  0.0457
 3839POPC   GL184032  23.876  16.884  15.013 -0.1081 -0.2408 -0.0200
 3839POPC   GL284033  24.083  16.756  15.184  0.2347 -0.3069 -0.1796
 3839POPC   C1A84034  23.935  17.272  15.229  0.1788  0.1775 -0.2407
 3839POPC   D2A84035  23.945  17.697  15.283 -0.0842 -0.0448 -0.0612
 3839POPC   C3A84036  24.019  17.855  15.676  0.0312 -0.1298  0.4433
 3839POPC   C4A84037  24.309  18.172  15.864 -0.4054  0.3485  0.0090
 3839POPC   C1B84038  24.511  16.776  15.330 -0.0596  0.4549 -0.2453
 3839POPC   C2B84039  24.813  17.067  15.530 -0.0774 -0.2950 -0.0243
 3839POPC   C3B84040  24.735  17.432  15.856  0.0327  0.0087 -0.1320
 3839POPC   C4B84041  24.347  17.638  16.058  0.0786 -0.1707 -0.1243
 3840POPC   NC384042  17.041  19.441  15.788  0.2100 -0.0055  0.0708
 3840POPC   PO484043  16.736  19.596  15.612 -0.3686  0.1083 -0.2065
 3840POPC   GL184044  16.547  19.720  15.907  0.1440  0.0501  0.1234
 3840POPC   GL284045  16.670  19.858  16.107  0.0724  0.1101  0.2947
 3840POPC   C1A84046  16.156  19.772  16.114 -0.3282 -0.0068 -0.0303
 3840POPC   D2A84047  15.939  19.836  16.542  0.1466  0.1268  0.1552
 3840POPC   C3A84048  15.898  19.719  16.985  0.1498  0.0246 -0.0867
 3840POPC   C4A84049  15.925  19.769  17.439 -0.0356 -0.0008 -0.0119
 3840POPC   C1B84050  16.489  19.744  16.551 -0.1318  0.0959  0.2392
 3840POPC   C2B84051  16.386  19.754  16.958  0.2173 -0.2233 -0.0004
 3840POPC   C3B84052  16.418  19.720  17.376 -0.0366  0.3298  0.1004
 3840POPC   C4B84053  16.221  19.733  17.786  0.1507 -0.0681  0.1643
 3841POPC   NC384054  23.149  26.810  15.892 -0.1838 -0.0168 -0.0191
 3841POPC   PO484055  22.848  26.587  15.943  0.0395 -0.0583  0.2819
 3841POPC   GL184056  23.099  26.389  16.235  0.2227  0.0134 -0.2194
 3841POPC   GL284057  22.888  26.333  16.388  0.5506  0.2543 -0.2515
 3841POPC   C1A84058  23.323  25.985  16.360  0.2706 -0.2266  0.2861
 3841POPC   D2A84059  23.534  25.811  16.732  0.0622  0.2561 -0.0288
 3841POPC   C3A84060  23.364  25.355  16.794  0.2561 -0.0149  0.1441
 3841POPC   C4A84061  23.366  25.001  16.466 -0.2315 -0.2340 -0.1932
 3841POPC   C1B84062  23.068  26.197  16.783 -0.1921 -0.0876  0.1298
 3841POPC   C2B84063  23.389  26.074  17.159 -0.1743 -0.3100 -0.0187
 3841POPC   C3B84064  23.771  25.968  17.409  0.2006 -0.0424 -0.0155
 3841POPC   C4B84065  24.198  25.841  17.434 -0.1864 -0.1379 -0.2278
 3842POPC   NC384066  22.372  26.462  15.686 -0.1422 -0.2118 -0.2132
 3842POPC   PO484067  22.212  26.680  15.979 -0.0911  0.0965  0.1471
 3842POPC   GL184068  22.217  26.838  16.337 -0.1076  0.0526  0.1227
 3842POPC   GL284069  21.929  26.765  16.388 -0.0542  0.1857 -0.0897
 3842POPC   C1A84070  22.467  27.026  16.689 -0.1490  0.0434  0.2031
 3842POPC   D2A84071  22.479  26.991  17.150 -0.0795  0.2314  0.3990
 3842POPC   C3A84072  22.647  26.656  17.427  0.0599  0.0499  0.0060
 3842POPC   C4A84073  22.921  26.374  17.641  0.2373 -0.0016 -0.0535
 3842POPC   C1B84074  21.980  26.927  16.819  0.3773  0.2836 -0.2635
 3842POPC   C2B84075  21.927  27.084  17.223  0.0372  0.2747 -0.1585
 3842POPC   C3B84076  21.755  27.147  17.655 -0.1294 -0.0925  0.0927
 3842POPC   C4B84077  21.743  27.064  18.102 -0.2950  0.0587  0.0317
 3843POPC   NC384078  29.422  18.177   9.275  0.1629  0.0531  0.1533
 3843POPC   PO484079  29.751  18.193   9.081  0.0807  0.1023 -0.4501
 3843POPC   GL184080  29.594  18.526   9.042  0.2696  0.1080 -0.0998
 3843POPC   GL284081  29.755  18.561   8.781  0.1414  0.2381  0.0921
 3843POPC   C1A84082  29.329  18.930   9.012  0.2004  0.1492 -0.0786
 3843POPC   D2A84083  29.022  19.244   8.920 -0.2485 -0.2254 -0.1531
 3843POPC   C3A84084  29.146  19.499   8.533  0.3258 -0.2776 -0.1544
 3843POPC   C4A84085  29.558  19.600   8.385 -0.1693  0.0160  0.0071
 3843POPC   C1B84086  29.963  18.764   8.409  0.2101 -0.2781  0.1328
 3843POPC   C2B84087  29.980  19.117   8.065  0.0413  0.2250  0.1304
 3843POPC   C3B84088  29.755  19.051   7.677  0.1125 -0.0294  0.0032
 3843POPC   C4B84089  29.590  18.992   7.269  0.1031  0.2015 -0.1870
 3844POPC   NC384090  26.195  17.644  10.934 -0.1259 -0.1227  0.0644
 3844POPC   PO484091  26.542  17.583  11.105 -0.2266 -0.2154 -0.0000
 3844POPC   GL184092  26.409  18.009  10.908 -0.1031  0.2395  0.3261
 3844POPC   GL284093  26.334  18.160  11.161 -0.1786 -0.2307 -0.1769
 3844POPC   C1A84094  26.634  18.414  10.746 -0.0007  0.2557 -0.1080
 3844POPC   D2A84095  27.086  18.545  10.672  0.0343  0.4489  0.2238
 3844POPC   C3A84096  27.210  18.867  10.376 -0.3348 -0.2684 -0.1476
 3844POPC   C4A84097  27.468  19.074  10.011 -0.1050  0.1349  0.1734
 3844POPC   C1B84098  26.275  18.628  11.068  0.0994 -0.2254  0.2461
 3844POPC   C2B84099  25.868  18.966  11.028  0.0289  0.3506  0.0332
 3844POPC   C3B84100  25.429  19.172  11.031  0.1670  0.1668  0.2510
 3844POPC   C4B84101  24.945  19.162  10.928  0.1420  0.1438 -0.0357
 3845POPC   NC384102  22.294  27.244  16.027  0.1859 -0.1202  0.3329
 3845POPC   PO484103  22.643  27.116  15.921 -0.1191 -0.1197 -0.4455
 3845POPC   GL184104  22.653  26.926  16.284 -0.2247 -0.2817  0.4653
 3845POPC   GL284105  22.874  26.851  16.365 -0.3588  0.0123 -0.1134
 3845POPC   C1A84106  22.479  26.610  16.549 -0.2829 -0.1562  0.3290
 3845POPC   D2A84107  22.542  26.488  16.946  0.0390  0.0292  0.1275
 3845POPC   C3A84108  22.794  26.103  17.180 -0.0060  0.0103  0.0283
 3845POPC   C4A84109  23.012  25.893  17.556 -0.1437  0.0302  0.0014
 3845POPC   C1B84110  22.955  26.702  16.797 -0.0770 -0.0349  0.2726
 3845POPC   C2B84111  23.097  26.561  17.214 -0.1569 -0.0970  0.2589
 3845POPC   C3B84112  23.214  26.768  17.642  0.0272 -0.3961 -0.0230
 3845POPC   C4B84113  23.553  26.934  17.949 -0.2496  0.1199 -0.0902
 3846POPC   NC384114  27.675  27.243  11.034  0.0492  0.2602 -0.2862
 3846POPC   PO484115  27.820  27.257  10.671 -0.1453 -0.0773 -0.3989
 3846POPC   GL184116  27.587  26.871  10.635  0.3266  0.4129  0.3046
 3846POPC   GL284117  27.374  27.054  10.520 -0.1495 -0.2758 -0.3371
 3846POPC   C1A84118  27.436  26.498  10.393 -0.2200  0.2083  0.1537
 3846POPC   D2A84119  27.328  26.097  10.165  0.0040 -0.1246  0.1112
 3846POPC   C3A84120  27.113  25.775  10.017  0.1069  0.0172  0.4228
 3846POPC   C4A84121  27.114  25.454   9.692  0.0899 -0.1714  0.0674
 3846POPC   C1B84122  27.280  26.901  10.114  0.1903 -0.0029  0.0568
 3846POPC   C2B84123  27.226  26.479   9.894 -0.0577 -0.0144 -0.3213
 3846POPC   C3B84124  26.893  26.419   9.572  0.1815 -0.0124 -0.2890
 3846POPC   C4B84125  26.792  26.144   9.271  0.0816 -0.0779  0.3315
 3847POPC   NC384126  19.969  26.086  16.531 -0.5265 -0.1696 -0.0026
 3847POPC   PO484127  19.699  25.979  16.289 -0.1942 -0.0591  0.4601
 3847POPC   GL184128  19.678  25.789  16.733 -0.3391 -0.3381 -0.3542
 3847POPC   GL284129  19.350  25.660  16.666 -0.0114  0.2193 -0.0219
 3847POPC   C1A84130  19.858  26.053  17.094  0.1991 -0.2142  0.0390
 3847POPC   D2A84131  20.109  25.967  17.452  0.3852  0.3611  0.1432
 3847POPC   C3A84132  20.210  26.211  17.806  0.1860 -0.3452  0.1440
 3847POPC   C4A84133  20.413  26.500  18.112 -0.0297  0.2125  0.3832
 3847POPC   C1B84134  19.403  25.573  17.100 -0.0753 -0.0915 -0.0060
 3847POPC   C2B84135  19.699  25.624  17.474 -0.2679  0.0664 -0.0373
 3847POPC   C3B84136  19.868  25.836  17.861 -0.3432  0.1643  0.1732
 3847POPC   C4B84137  20.024  26.089  18.231 -0.3608  0.1696  0.0078
 3848POPC   NC384138   0.021  28.728  16.607  0.2349  0.0435  0.1423
 3848POPC   PO484139   0.150  29.060  16.512  0.3138 -0.2661 -0.0311
 3848POPC   GL184140   0.023  29.081  16.915 -0.1900  0.0933  0.0196
 3848POPC   GL284141   0.155  29.341  17.074 -0.0208 -0.1231 -0.1954
 3848POPC   C1A84142  -0.461  28.942  17.078  0.2585  0.0598  0.2873
 3848POPC   D2A84143  -0.666  28.709  17.416  0.2356 -0.3863 -0.2507
 3848POPC   C3A84144  -0.488  28.665  17.826 -0.0552 -0.0390 -0.2176
 3848POPC   C4A84145  -0.508  28.496  18.245  0.2082 -0.1329  0.0434
 3848POPC   C1B84146   0.004  29.543  17.580  0.3837 -0.3628  0.0469
 3848POPC   C2B84147   0.038  29.441  18.015  0.0066 -0.3116  0.2055
 3848POPC   C3B84148   0.202  29.274  18.439  0.1013 -0.1149 -0.1944
 3848POPC   C4B84149   0.274  29.115  18.814 -0.1141  0.0755  0.0016
 3849POPC   NC384150  23.180  30.947  15.763 -0.1671 -0.2256 -0.1724
 3849POPC   PO484151  23.098  30.857  16.123  0.1338  0.1476 -0.1732
 3849POPC   GL184152  23.041  31.245  16.385  0.0793  0.1111 -0.1208
 3849POPC   GL284153  22.759  31.322  16.422 -0.1047  0.0004  0.0691
 3849POPC   C1A84154  23.034  31.612  16.711 -0.0947  0.2741  0.0071
 3849POPC   D2A84155  23.170  31.856  17.112  0.1054 -0.1964 -0.2092
 3849POPC   C3A84156  23.601  31.887  17.300  0.1409  0.1100 -0.1916
 3849POPC   C4A84157  23.822  32.242  17.370 -0.1904 -0.0448 -0.3664
 3849POPC   C1B84158  22.561  31.304  16.805 -0.1330  0.3577 -0.0293
 3849POPC   C2B84159  22.414  31.537  17.183 -0.0481 -0.2020  0.1192
 3849POPC   C3B84160  22.303  31.906  17.392 -0.1162 -0.0764 -0.2255
 3849POPC   C4B84161  22.210  31.879  17.833  0.2158  0.1151 -0.2518
 3850POPC   NC384162  27.249  17.063  14.417  0.2752  0.0334 -0.1969
 3850POPC   PO484163  26.913  16.908  14.184 -0.0154 -0.1739  0.1243
 3850POPC   GL184164  26.742  17.333  14.311  0.2291 -0.1970  0.3508
 3850POPC   GL284165  26.878  17.406  14.537 -0.1762 -0.2832  0.1403
 3850POPC   C1A84166  26.700  17.810  14.339  0.0857 -0.0354  0.1631
 3850POPC   D2A84167  26.646  18.185  14.395 -0.1454 -0.0843  0.2496
 3850POPC   C3A84168  26.277  18.451  14.243 -0.1742 -0.1064 -0.0199
 3850POPC   C4A84169  25.883  18.637  14.339 -0.1365  0.1371 -0.0710
 3850POPC   C1B84170  26.923  17.795  14.808  0.0851  0.0249 -0.2425
 3850POPC   C2B84171  26.849  18.270  14.913 -0.3503 -0.2869  0.1658
 3850POPC   C3B84172  27.056  18.675  14.996  0.1180  0.0068 -0.1232
 3850POPC   C4B84173  27.157  19.110  15.068 -0.2623  0.2386 -0.0216
 3851POPC   NC384174  18.434  18.532  15.832 -0.1194  0.2966 -0.2377
 3851POPC   PO484175  18.642  18.300  16.070 -0.2492  0.1250 -0.1335
 3851POPC   GL184176  18.373  18.469  16.287 -0.0160  0.3348  0.0643
 3851POPC   GL284177  18.458  18.755  16.457  0.2035 -0.0539 -0.0162
 3851POPC   C1A84178  18.138  18.427  16.672 -0.1627  0.0119  0.2367
 3851POPC   D2A84179  17.939  18.376  17.025  0.2422  0.2070  0.1846
 3851POPC   C3A84180  17.687  18.349  17.416  0.1618 -0.2458 -0.1118
 3851POPC   C4A84181  17.554  18.640  17.806 -0.1108  0.0221  0.1298
 3851POPC   C1B84182  18.663  18.651  16.869 -0.1555 -0.0404  0.2242
 3851POPC   C2B84183  18.630  18.556  17.326 -0.0367  0.0199  0.0467
 3851POPC   C3B84184  18.505  18.579  17.808 -0.0505 -0.0181  0.1972
 3851POPC   C4B84185  18.585  18.375  18.180  0.0609  0.0563 -0.0376
 3852POPC   NC384186  21.790  28.044  15.885 -0.1333  0.0804 -0.2908
 3852POPC   PO484187  21.770  28.187  16.258  0.5058  0.3399  0.1288
 3852POPC   GL184188  21.848  28.155  16.667  0.0608 -0.2611  0.2338
 3852POPC   GL284189  22.149  28.061  16.634  0.0556 -0.1197 -0.0221
 3852POPC   C1A84190  21.689  28.127  17.073  0.0714 -0.1743  0.1369
 3852POPC   D2A84191  21.719  28.059  17.542  0.0518 -0.0720  0.1623
 3852POPC   C3A84192  21.974  27.807  17.794  0.1536  0.1277  0.0164
 3852POPC   C4A84193  22.188  27.590  18.094  0.0940  0.0132 -0.1246
 3852POPC   C1B84194  22.464  28.016  16.935  0.1285 -0.0100 -0.0668
 3852POPC   C2B84195  22.632  27.716  17.233 -0.0035 -0.2246  0.0392
 3852POPC   C3B84196  22.740  27.366  17.423 -0.0739  0.0285  0.0306
 3852POPC   C4B84197  22.737  27.032  17.733  0.0108  0.0333 -0.0359
 3853POPC   NC384198  26.495  15.636  15.232  0.2561 -0.0966 -0.2958
 3853POPC   PO484199  26.154  15.642  14.997 -0.0295  0.1256  0.0148
 3853POPC   GL184200  26.156  15.862  15.405 -0.2046 -0.0901 -0.3695
 3853POPC   GL284201  26.157  16.176  15.281  0.0287  0.0604  0.1782
 3853POPC   C1A84202  26.031  16.037  15.829  0.1921 -0.2532  0.1007
 3853POPC   D2A84203  25.939  16.252  16.189 -0.1320  0.6911 -0.1154
 3853POPC   C3A84204  25.946  16.660  16.386  0.0178  0.1517  0.0062
 3853POPC   C4A84205  25.791  16.789  16.737  0.2701 -0.3393 -0.1443
 3853POPC   C1B84206  26.118  16.568  15.606 -0.2750 -0.0241  0.0328
 3853POPC   C2B84207  26.123  16.869  15.989  0.2838  0.2350 -0.2212
 3853POPC   C3B84208  26.146  17.180  16.348  0.1931 -0.1795 -0.1951
 3853POPC   C4B84209  26.420  17.475  16.625 -0.0947  0.0236  0.0509
 3854POPC   NC384210  20.792  25.043  15.839  0.0235  0.0686  0.3066
 3854POPC   PO484211  20.878  25.407  15.830  0.1077 -0.2025  0.1046
 3854POPC   GL184212  20.956  25.380  16.269 -0.0084 -0.1406  0.1183
 3854POPC   GL284213  21.060  25.663  16.266 -0.0572  0.1084  0.0380
 3854POPC   C1A84214  21.125  24.985  16.410 -0.0789 -0.0176 -0.1337
 3854POPC   D2A84215  21.434  24.764  16.762 -0.2361  0.1443 -0.1424
 3854POPC   C3A84216  21.735  24.917  17.085 -0.0220  0.0672 -0.1319
 3854POPC   C4A84217  21.747  25.232  17.425 -0.2125 -0.0762  0.4403
 3854POPC   C1B84218  21.201  25.420  16.693  0.0423 -0.1794  0.2363
 3854POPC   C2B84219  21.482  25.484  17.012 -0.1861 -0.1394  0.2228
 3854POPC   C3B84220  21.512  25.635  17.512 -0.0127  0.1087  0.3846
 3854POPC   C4B84221  21.564  25.591  17.969 -0.0432  0.0457  0.1703
 3855POPC   NC384222  22.316  25.681  15.470 -0.0987 -0.2263 -0.1919
 3855POPC   PO484223  22.535  26.003  15.418 -0.0452 -0.3692 -0.0606
 3855POPC   GL184224  22.809  25.703  15.557  0.0796  0.0448  0.1165
 3855POPC   GL284225  22.744  25.669  15.831  0.0860  0.0443 -0.2181
 3855POPC   C1A84226  23.266  25.587  15.511  0.5159 -0.1673  0.0053
 3855POPC   D2A84227  23.576  25.278  15.585  0.2124 -0.0655 -0.4851
 3855POPC   C3A84228  23.718  24.984  15.226  0.1038 -0.3352  0.4379
 3855POPC   C4A84229  23.970  24.604  15.221  0.1494  0.0298 -0.1171
 3855POPC   C1B84230  22.769  25.827  16.281 -0.0148 -0.2370 -0.1261
 3855POPC   C2B84231  22.931  25.724  16.718 -0.1714  0.0631 -0.1030
 3855POPC   C3B84232  23.095  25.642  17.128 -0.1779  0.1768 -0.2020
 3855POPC   C4B84233  23.371  25.539  17.497 -0.0784 -0.5479 -0.1968
 3856POPC   NC384234  23.782  28.467  15.940 -0.2327  0.0708 -0.3301
 3856POPC   PO484235  23.888  28.499  16.291  0.2100  0.0112 -0.0127
 3856POPC   GL184236  24.113  28.194  16.592  0.0739  0.0083 -0.3529
 3856POPC   GL284237  24.304  27.976  16.577  0.1668  0.1594  0.2408
 3856POPC   C1A84238  24.225  28.413  16.978  0.2425  0.0359  0.0925
 3856POPC   D2A84239  24.258  28.656  17.351 -0.3221 -0.4400  0.1021
 3856POPC   C3A84240  24.392  28.563  17.795  0.2511 -0.0381  0.1844
 3856POPC   C4A84241  24.753  28.654  18.080  0.0281 -0.0235  0.1490
 3856POPC   C1B84242  24.205  27.803  17.023 -0.2485  0.1727 -0.1514
 3856POPC   C2B84243  23.952  27.601  17.375  0.2196  0.2628  0.0506
 3856POPC   C3B84244  23.859  27.293  17.714 -0.1778 -0.1164  0.0307
 3856POPC   C4B84245  24.021  26.862  17.880 -0.0373 -0.2635 -0.1201
 3857POPC   NC384246  25.437  27.675  15.281 -0.2057 -0.1944 -0.3571
 3857POPC   PO484247  25.732  27.821  15.485 -0.2579  0.0543  0.3333
 3857POPC   GL184248  25.689  27.352  15.628  0.1026  0.1409  0.1853
 3857POPC   GL284249  25.970  27.242  15.724  0.1894 -0.0449 -0.1451
 3857POPC   C1A84250  25.591  26.900  15.553 -0.0515 -0.3095 -0.0849
 3857POPC   D2A84251  25.426  26.496  15.747  0.2951  0.0378 -0.0797
 3857POPC   C3A84252  25.140  26.473  16.116  0.1765  0.0007 -0.1232
 3857POPC   C4A84253  24.891  26.177  16.374  0.0964 -0.0494 -0.1693
 3857POPC   C1B84254  25.978  26.794  15.829  0.0059 -0.1743 -0.0749
 3857POPC   C2B84255  25.893  26.341  15.882 -0.0904 -0.1175  0.0557
 3857POPC   C3B84256  25.932  25.894  15.788 -0.1435 -0.1635 -0.2089
 3857POPC   C4B84257  25.797  25.530  15.607  0.0205  0.1684 -0.0449
 3858POPC   NC384258  28.004  31.315  15.718 -0.2751  0.0573 -0.3131
 3858POPC   PO484259  27.613  31.354  15.735  0.0847 -0.0732  0.0487
 3858POPC   GL184260  27.597  31.617  16.001  0.2334  0.1968 -0.1978
 3858POPC   GL284261  27.545  31.530  16.352 -0.0801  0.0765 -0.2480
 3858POPC   C1A84262  27.329  31.922  16.220  0.0260  0.1154  0.0354
 3858POPC   D2A84263  26.967  32.193  16.454 -0.0934 -0.0952  0.0943
 3858POPC   C3A84264  26.805  32.269  16.951  0.2337  0.2488  0.0786
 3858POPC   C4A84265  26.689  32.604  17.189 -0.3265  0.1750 -0.1060
 3858POPC   C1B84266  27.583  31.558  16.855 -0.0007 -0.1324  0.1945
 3858POPC   C2B84267  27.707  31.502  17.315 -0.0637  0.1332 -0.0836
 3858POPC   C3B84268  27.933  31.205  17.625  0.1432 -0.2338  0.1878
 3858POPC   C4B84269  27.969  31.099  18.034 -0.1105  0.2611  0.3075
 3859POPC   NC384270  20.648  19.290  15.238  0.0165  0.0554 -0.1766
 3859POPC   PO484271  20.928  19.122  14.954  0.0574  0.0153 -0.1837
 3859POPC   GL184272  21.173  19.196  15.333 -0.2643 -0.1064 -0.1098
 3859POPC   GL284273  21.273  19.402  15.317 -0.0635  0.0363 -0.0349
 3859POPC   C1A84274  21.438  18.927  15.606  0.3192 -0.0098  0.1964
 3859POPC   D2A84275  21.792  18.848  15.869  0.1694 -0.2103  0.1525
 3859POPC   C3A84276  21.730  18.734  16.315  0.1073  0.1259  0.1060
 3859POPC   C4A84277  21.969  18.718  16.733 -0.0490 -0.0779  0.2779
 3859POPC   C1B84278  21.430  19.568  15.720  0.1120 -0.4653 -0.1666
 3859POPC   C2B84279  21.134  19.765  15.984 -0.1119  0.2894 -0.0574
 3859POPC   C3B84280  21.147  19.760  16.426 -0.3064  0.1999 -0.1398
 3859POPC   C4B84281  20.715  19.623  16.612  0.0528  0.0146  0.3260
 3860POPC   NC384282   1.001  24.979  16.377  0.5877  0.0918 -0.0057
 3860POPC   PO484283   0.600  24.954  16.334 -0.2651 -0.2255 -0.1360
 3860POPC   GL184284   0.537  25.002  16.689 -0.1957  0.3471  0.3735
 3860POPC   GL284285   0.694  25.102  16.852  0.0916  0.0116 -0.1361
 3860POPC   C1A84286   0.231  24.884  17.022  0.0864  0.1925 -0.1854
 3860POPC   D2A84287   0.047  24.700  17.401  0.0619  0.0793 -0.2434
 3860POPC   C3A84288  -0.387  24.683  17.394  0.3723  0.0005  0.3731
 3860POPC   C4A84289  -0.705  24.574  17.778 -0.2393  0.1056  0.1445
 3860POPC   C1B84290   0.479  25.257  17.238 -0.0878  0.3170 -0.1255
 3860POPC   C2B84291   0.287  25.100  17.619 -0.0192  0.3273 -0.3732
 3860POPC   C3B84292  -0.123  25.016  17.805  0.1434  0.2337  0.0622
 3860POPC   C4B84293  -0.577  25.077  17.903  0.2868 -0.0474 -0.4288
 3861POPC   NC384294  22.481  29.149  16.572 -0.3544  0.2474 -0.0077
 3861POPC   PO484295  22.340  29.309  16.861  0.2288 -0.1522  0.1832
 3861POPC   GL184296  22.275  29.428  17.249  0.1117 -0.3196 -0.3458
 3861POPC   GL284297  22.515  29.412  17.343  0.3242 -0.0858 -0.1014
 3861POPC   C1A84298  22.030  29.506  17.658 -0.2298 -0.0467  0.1364
 3861POPC   D2A84299  21.956  29.384  18.135 -0.1793 -0.3344 -0.1506
 3861POPC   C3A84300  21.999  28.925  18.245 -0.1438  0.1494 -0.2395
 3861POPC   C4A84301  22.266  28.773  18.577 -0.2098  0.2229 -0.1540
 3861POPC   C1B84302  22.697  29.045  17.514 -0.0588  0.2113  0.3232
 3861POPC   C2B84303  22.533  28.687  17.722  0.1989  0.3090  0.1210
 3861POPC   C3B84304  22.646  28.261  17.893 -0.0764 -0.1001  0.3169
 3861POPC   C4B84305  22.465  27.956  18.211  0.1086 -0.0175  0.0520
 3862POPC   NC384306  17.091  31.364  16.541  0.0486  0.2271 -0.3080
 3862POPC   PO484307  17.200  31.702  16.391  0.0877  0.0919  0.1113
 3862POPC   GL184308  17.419  31.577  16.787 -0.2426  0.2104 -0.1423
 3862POPC   GL284309  17.639  31.699  16.749 -0.2131  0.0284 -0.2316
 3862POPC   C1A84310  17.481  31.502  17.249 -0.0496  0.0366 -0.0207
 3862POPC   D2A84311  17.476  31.179  17.605 -0.0147 -0.1720 -0.1371
 3862POPC   C3A84312  17.640  30.975  17.999 -0.3356 -0.0829  0.0527
 3862POPC   C4A84313  17.808  30.977  18.479 -0.1787 -0.1536  0.1391
 3862POPC   C1B84314  17.669  31.990  17.128  0.3047  0.0022 -0.0795
 3862POPC   C2B84315  17.490  32.169  17.524 -0.6774 -0.0473  0.0030
 3862POPC   C3B84316  17.610  32.471  17.876 -0.0145  0.0450 -0.2461
 3862POPC   C4B84317  17.686  32.747  18.183 -0.0363  0.2975  0.2609
 3863POPC   NC384318  30.908  27.049  16.031 -0.2035  0.1673  0.4362
 3863POPC   PO484319  31.187  27.258  16.213 -0.1442  0.0947 -0.0378
 3863POPC   GL184320  31.242  27.046  16.558 -0.0023 -0.2650  0.0599
 3863POPC   GL284321  31.192  27.354  16.742 -0.1773  0.3380  0.1622
 3863POPC   C1A84322  31.025  26.878  16.914 -0.0263 -0.0024  0.1472
 3863POPC   D2A84323  31.155  26.719  17.298 -0.0346  0.0365  0.2650
 3863POPC   C3A84324  30.918  26.376  17.364  0.0212  0.0223  0.4760
 3863POPC   C4A84325  30.574  26.299  17.638  0.2452 -0.0149  0.0749
 3863POPC   C1B84326  31.372  27.204  17.148  0.1241  0.0277  0.0873
 3863POPC   C2B84327  31.199  27.206  17.549  0.0331 -0.3405 -0.2580
 3863POPC   C3B84328  31.203  27.273  17.982  0.1610 -0.2219  0.1553
 3863POPC   C4B84329  31.378  27.140  18.398  0.1258 -0.0433 -0.0491
 3864POPC   NC384330  23.188  30.803  16.594  0.1480  0.0012  0.1527
 3864POPC   PO484331  23.417  30.539  16.471  0.1126 -0.0321  0.1613
 3864POPC   GL184332  23.635  30.598  16.809  0.0574  0.2631 -0.0225
 3864POPC   GL284333  23.865  30.700  16.552 -0.0228 -0.0272 -0.0157
 3864POPC   C1A84334  23.532  31.026  16.939  0.1314  0.2079  0.0159
 3864POPC   D2A84335  23.056  31.193  16.930 -0.0208  0.3937 -0.0133
 3864POPC   C3A84336  22.917  31.494  17.259  0.0385 -0.2809  0.1108
 3864POPC   C4A84337  23.144  31.723  17.610  0.1045  0.2239 -0.0884
 3864POPC   C1B84338  24.031  30.949  16.964  0.1493  0.0207 -0.0928
 3864POPC   C2B84339  23.945  31.334  17.238  0.2834 -0.2164  0.0523
 3864POPC   C3B84340  24.025  31.632  17.520 -0.0311  0.1128  0.0600
 3864POPC   C4B84341  24.286  31.617  17.830 -0.0273 -0.1105  0.2861
 3865POPC   NC384342  19.383  23.886  16.281 -0.1551 -0.0463  0.0514
 3865POPC   PO484343  19.010  23.946  16.117  0.0124  0.1062 -0.1783
 3865POPC   GL184344  19.000  24.152  16.510  0.0451  0.2903  0.2941
 3865POPC   GL284345  18.730  24.100  16.550 -0.0258  0.2381 -0.1543
 3865POPC   C1A84346  18.992  24.167  16.967  0.0846 -0.0702  0.0860
 3865POPC   D2A84347  19.070  24.103  17.433  0.0902 -0.1068 -0.2377
 3865POPC   C3A84348  19.348  23.944  17.716  0.1841  0.2504  0.2420
 3865POPC   C4A84349  19.479  24.044  18.155 -0.0150  0.0881  0.1558
 3865POPC   C1B84350  18.503  24.013  16.971  0.0311  0.0289  0.3000
 3865POPC   C2B84351  18.537  23.866  17.420 -0.0693 -0.2114 -0.0491
 3865POPC   C3B84352  18.488  23.654  17.841  0.0299 -0.0899 -0.0921
 3865POPC   C4B84353  18.450  23.585  18.336  0.2380  0.1654 -0.2294
 3866POPC   NC384354  29.035  28.108   9.563 -0.0621  0.1352  0.3282
 3866POPC   PO484355  29.296  27.846   9.657 -0.0022  0.1658  0.2274
 3866POPC   GL184356  29.117  27.527   9.503  0.0833 -0.4665 -0.2859
 3866POPC   GL284357  28.964  27.624   9.285  0.1360  0.1125  0.1662
 3866POPC   C1A84358  29.305  27.258   9.148  0.0226  0.1442 -0.1280
 3866POPC   D2A84359  29.353  26.984   8.750 -0.0961 -0.2334  0.1801
 3866POPC   C3A84360  28.970  26.796   8.591 -0.1152  0.0568 -0.0519
 3866POPC   C4A84361  28.623  26.688   8.289  0.1705  0.0064  0.0102
 3866POPC   C1B84362  28.894  27.454   8.872 -0.2540 -0.2397  0.0250
 3866POPC   C2B84363  28.583  27.296   8.605 -0.1309 -0.0203  0.2050
 3866POPC   C3B84364  28.331  27.074   8.364  0.0539  0.1599 -0.1607
 3866POPC   C4B84365  28.158  26.819   7.967 -0.2771  0.0695 -0.0897
 3867POPC   NC384366  32.632  21.283  15.737 -0.1012 -0.0820  0.0072
 3867POPC   PO484367  32.782  21.628  15.658  0.3024  0.2053  0.0376
 3867POPC   GL184368  32.685  21.620  16.098  0.1479  0.2689 -0.0271
 3867POPC   GL284369  32.815  21.450  16.255  0.2738  0.2835  0.0784
 3867POPC   C1A84370  32.300  21.596  16.389 -0.0053 -0.0457 -0.0959
 3867POPC   D2A84371  32.003  21.234  16.460 -0.0405 -0.2369 -0.3648
 3867POPC   C3A84372  31.578  21.247  16.587 -0.0572  0.1234 -0.1985
 3867POPC   C4A84373  31.206  21.269  16.832  0.2291 -0.2071  0.2150
 3867POPC   C1B84374  32.853  21.760  16.498  0.1052  0.0542 -0.3398
 3867POPC   C2B84375  32.862  22.030  16.925  0.3250 -0.0048 -0.0493
 3867POPC   C3B84376  33.001  22.127  17.374  0.0593 -0.2561  0.0716
 3867POPC   C4B84377  33.163  21.904  17.741  0.1855 -0.1901  0.0501
 3868POPC   NC384378  26.671  28.867   9.633  0.1553 -0.2059 -0.1165
 3868POPC   PO484379  26.844  28.519   9.725 -0.0162  0.2556 -0.5647
 3868POPC   GL184380  26.879  28.433   9.420 -0.0378  0.2284  0.2235
 3868POPC   GL284381  26.690  28.286   9.222 -0.0396  0.0115 -0.1349
 3868POPC   C1A84382  27.216  28.441   9.051 -0.2033  0.2448  0.0646
 3868POPC   D2A84383  27.349  28.257   8.642  0.1017  0.0022  0.2787
 3868POPC   C3A84384  27.006  28.221   8.299  0.3198 -0.1916 -0.0761
 3868POPC   C4A84385  26.875  28.367   7.896 -0.1694  0.2670 -0.2407
 3868POPC   C1B84386  26.664  27.784   9.201 -0.0564  0.0381 -0.0404
 3868POPC   C2B84387  26.964  27.510   8.973  0.0991 -0.0310  0.3069
 3868POPC   C3B84388  27.104  27.119   8.687 -0.1282  0.0399  0.3563
 3868POPC   C4B84389  27.147  26.731   8.458 -0.2666  0.2079 -0.0134
 3869POPC   NC384390  31.583  16.182  15.815  0.0686 -0.0085  0.0275
 3869POPC   PO484391  31.321  16.251  16.109  0.0594 -0.2291 -0.3809
 3869POPC   GL184392  31.211  16.377  16.460 -0.3180  0.2841  0.4066
 3869POPC   GL284393  30.924  16.483  16.575 -0.1511  0.2514 -0.1726
 3869POPC   C1A84394  31.294  16.407  16.893 -0.0828 -0.4415 -0.2663
 3869POPC   D2A84395  31.002  16.191  17.222 -0.0774 -0.0737 -0.1316
 3869POPC   C3A84396  30.906  16.328  17.694  0.0406  0.5237 -0.2368
 3869POPC   C4A84397  30.851  16.601  18.090 -0.1062 -0.3206  0.1700
 3869POPC   C1B84398  31.182  16.803  16.661 -0.0917 -0.3240  0.2514
 3869POPC   C2B84399  31.202  17.237  16.925 -0.0935  0.2415  0.0792
 3869POPC   C3B84400  31.255  17.495  17.357 -0.0200  0.2768  0.4824
 3869POPC   C4B84401  31.113  17.759  17.647 -0.3412  0.1790 -0.0183
 3870POPC   NC384402  22.930  31.785  15.464 -0.1545  0.1508 -0.3162
 3870POPC   PO484403  23.159  31.937  15.144  0.2470 -0.1022 -0.2306
 3870POPC   GL184404  23.400  31.954  15.431  0.1518 -0.2741  0.1992
 3870POPC   GL284405  23.617  32.007  15.232 -0.4396  0.2615  0.0326
 3870POPC   C1A84406  23.245  32.113  15.882 -0.4476 -0.0448  0.1361
 3870POPC   D2A84407  23.375  32.334  16.302  0.2496 -0.0195  0.0353
 3870POPC   C3A84408  23.081  32.597  16.621 -0.1418 -0.1538  0.0919
 3870POPC   C4A84409  23.182  32.833  16.955  0.1483 -0.0762 -0.1649
 3870POPC   C1B84410  24.019  32.146  15.409 -0.0262 -0.2334  0.0506
 3870POPC   C2B84411  24.135  32.383  15.763 -0.0748  0.0038  0.2552
 3870POPC   C3B84412  24.038  32.610  16.202  0.4262  0.3567 -0.0294
 3870POPC   C4B84413  24.084  32.969  16.367  0.1718 -0.3300  0.4624
 3871POPC   NC384414  31.534  23.591  12.987  0.1280 -0.4045 -0.1067
 3871POPC   PO484415  31.441  23.973  13.019  0.1252  0.2155  0.5815
 3871POPC   GL184416  31.094  23.760  13.055  0.0384 -0.2558 -0.1066
 3871POPC   GL284417  30.901  24.041  12.988 -0.1922 -0.0557 -0.0738
 3871POPC   C1A84418  30.699  23.653  13.299  0.2459 -0.2071 -0.0794
 3871POPC   D2A84419  30.378  23.261  13.355  0.1174  0.1828 -0.2570
 3871POPC   C3A84420  29.987  23.330  13.106 -0.1887  0.0809 -0.2276
 3871POPC   C4A84421  29.635  23.100  12.950  0.1515 -0.0192  0.0301
 3871POPC   C1B84422  30.449  23.981  12.903  0.1030  0.1919 -0.2236
 3871POPC   C2B84423  30.149  23.785  13.124 -0.0198  0.1685  0.2461
 3871POPC   C3B84424  29.762  23.702  13.344 -0.0091  0.0631  0.0128
 3871POPC   C4B84425  29.299  23.715  13.255  0.1768  0.0973  0.0418
 3872POPC   NC384426  30.475  24.857  12.803 -0.0348  0.0372  0.2788
 3872POPC   PO484427  30.698  24.547  12.773 -0.0392 -0.0543 -0.3746
 3872POPC   GL184428  30.208  24.459  12.751 -0.1382  0.1344 -0.3431
 3872POPC   GL284429  30.227  24.424  13.032  0.2047  0.2099  0.0071
 3872POPC   C1A84430  29.780  24.637  12.785 -0.0618  0.2454  0.2229
 3872POPC   D2A84431  29.302  24.619  12.751 -0.1199 -0.1842 -0.1899
 3872POPC   C3A84432  29.104  24.193  12.644 -0.3535  0.1166  0.0220
 3872POPC   C4A84433  28.821  24.073  12.288  0.1252  0.0190 -0.1989
 3872POPC   C1B84434  29.836  24.129  12.905  0.2135 -0.2809  0.0148
 3872POPC   C2B84435  29.394  24.144  13.005  0.2443 -0.2199 -0.0342
 3872POPC   C3B84436  29.038  24.180  13.312  0.3832  0.1528  0.1826
 3872POPC   C4B84437  28.643  24.030  13.265 -0.1678 -0.2248  0.0600
 3873POPC   NC384438  23.771  16.379  15.022 -0.2154 -0.0665  0.2655
 3873POPC   PO484439  24.036  16.086  14.937 -0.1134 -0.1768  0.1218
 3873POPC   GL184440  24.116  16.143  15.324 -0.2550 -0.0772  0.0622
 3873POPC   GL284441  24.041  16.358  15.521 -0.0092 -0.0719 -0.1268
 3873POPC   C1A84442  24.099  15.800  15.673  0.4341 -0.0307  0.0584
 3873POPC   D2A84443  24.120  15.787  16.165  0.3086  0.2329  0.1527
 3873POPC   C3A84444  23.892  15.520  16.440  0.1512  0.0991  0.0725
 3873POPC   C4A84445  23.610  15.615  16.697  0.0578 -0.3783 -0.1947
 3873POPC   C1B84446  24.212  16.646  15.805 -0.1606  0.1381  0.1626
 3873POPC   C2B84447  24.154  16.819  16.258 -0.2579  0.2816  0.0534
 3873POPC   C3B84448  24.002  17.225  16.498 -0.1882  0.2109 -0.0321
 3873POPC   C4B84449  23.970  17.629  16.720  0.0332 -0.0768  0.0220
 3874POPC   NC384450  17.745  19.712  15.450 -0.3276 -0.2796  0.0069
 3874POPC   PO484451  17.524  19.544  15.719 -0.0695 -0.1542 -0.1042
 3874POPC   GL184452  17.372  19.672  16.059  0.1912  0.3635  0.1674
 3874POPC   GL284453  17.171  19.785  16.174 -0.2022 -0.2944 -0.1440
 3874POPC   C1A84454  17.504  19.704  16.523  0.2910 -0.3042 -0.3445
 3874POPC   D2A84455  17.422  20.036  16.837 -0.0920 -0.2012 -0.0945
 3874POPC   C3A84456  17.150  20.243  17.149  0.1023 -0.3085  0.0208
 3874POPC   C4A84457  16.780  20.445  17.444  0.0854  0.0367  0.1887
 3874POPC   C1B84458  16.972  19.795  16.587 -0.1512  0.0308 -0.0168
 3874POPC   C2B84459  16.882  19.793  17.024 -0.0226  0.1709  0.2229
 3874POPC   C3B84460  16.861  19.881  17.480 -0.1929 -0.5430 -0.2285
 3874POPC   C4B84461  16.781  19.748  17.939 -0.0823  0.1925 -0.0136
 3875POPC   NC384462  31.731  20.883  15.145 -0.0691 -0.1602  0.3688
 3875POPC   PO484463  31.963  20.612  15.264  0.1677 -0.1694  0.2122
 3875POPC   GL184464  31.656  20.670  15.534 -0.0856 -0.3691 -0.3060
 3875POPC   GL284465  31.340  20.634  15.423 -0.1811  0.0539 -0.1573
 3875POPC   C1A84466  31.475  20.522  15.956 -0.0384  0.2520 -0.3844
 3875POPC   D2A84467  31.143  20.701  16.267  0.0248  0.0503  0.0653
 3875POPC   C3A84468  31.171  20.780  16.702  0.1594 -0.0611  0.2339
 3875POPC   C4A84469  31.122  20.905  17.157 -0.0857  0.1066  0.2321
 3875POPC   C1B84470  30.936  20.714  15.663 -0.1146 -0.1258 -0.0612
 3875POPC   C2B84471  30.571  20.712  15.920 -0.3123  0.0833  0.0192
 3875POPC   C3B84472  30.228  20.466  16.197  0.0093 -0.0370  0.1379
 3875POPC   C4B84473  30.297  20.128  16.536  0.2480  0.0648  0.1653
 3876POPC   NC384474  22.468  24.660  14.429 -0.0701  0.1188  0.1901
 3876POPC   PO484475  22.595  25.012  14.564 -0.2994 -0.4247  0.0388
 3876POPC   GL184476  22.914  24.890  14.675 -0.2693  0.4262 -0.1173
 3876POPC   GL284477  22.956  24.585  14.518 -0.2163  0.1538  0.1537
 3876POPC   C1A84478  23.066  24.657  15.070  0.0125 -0.0591  0.1794
 3876POPC   D2A84479  23.483  24.459  15.190  0.0196 -0.5148  0.1662
 3876POPC   C3A84480  23.754  24.242  15.491 -0.2813  0.0564  0.1810
 3876POPC   C4A84481  24.034  23.873  15.538 -0.2257  0.2188 -0.1350
 3876POPC   C1B84482  23.321  24.309  14.601 -0.0830 -0.0608 -0.0041
 3876POPC   C2B84483  23.626  24.066  14.822  0.1059  0.1156 -0.1492
 3876POPC   C3B84484  23.795  23.716  15.071 -0.0736 -0.1678 -0.3415
 3876POPC   C4B84485  24.017  23.404  15.343  0.1041 -0.0283 -0.1970
 3877POPC   NC384486  22.201  16.817  14.679  0.0245 -0.1138 -0.2269
 3877POPC   PO484487  22.431  16.750  14.998  0.2634 -0.2400  0.1424
 3877POPC   GL184488  22.651  16.949  15.183  0.0205  0.1431  0.1571
 3877POPC   GL284489  22.923  16.917  15.155  0.2902  0.1151  0.1345
 3877POPC   C1A84490  22.895  17.343  15.297 -0.0574 -0.0244 -0.4080
 3877POPC   D2A84491  23.015  17.687  15.625 -0.0448 -0.0593  0.1314
 3877POPC   C3A84492  23.158  17.816  16.056  0.1035  0.0413 -0.1967
 3877POPC   C4A84493  23.477  17.921  16.330 -0.1056 -0.0483  0.0353
 3877POPC   C1B84494  22.872  16.858  15.615  0.1724  0.0660  0.5407
 3877POPC   C2B84495  23.113  16.899  15.998 -0.1587 -0.2928  0.1678
 3877POPC   C3B84496  23.206  16.590  16.316  0.0357 -0.0589  0.4201
 3877POPC   C4B84497  23.638  16.506  16.528  0.1045 -0.5224 -0.1772
 3878POPC   NC384498   2.307  25.979  15.869  0.1951 -0.0904  0.0375
 3878POPC   PO484499   2.022  26.117  16.137 -0.1986  0.0729  0.0557
 3878POPC   GL184500   2.067  26.186  16.548  0.1712 -0.2826  0.1590
 3878POPC   GL284501   2.122  26.454  16.495  0.0036 -0.1918  0.1957
 3878POPC   C1A84502   2.124  25.973  16.956  0.1319 -0.2163 -0.2507
 3878POPC   D2A84503   2.356  25.566  17.037 -0.1290 -0.0790 -0.2316
 3878POPC   C3A84504   2.404  25.569  17.484  0.0392  0.1616 -0.0826
 3878POPC   C4A84505   2.568  25.482  17.940 -0.1274 -0.2705  0.1501
 3878POPC   C1B84506   2.361  26.455  16.916 -0.0611  0.2879  0.0756
 3878POPC   C2B84507   2.389  26.418  17.363  0.0026  0.1245 -0.1393
 3878POPC   C3B84508   2.345  26.444  17.841  0.1077  0.2022 -0.0869
 3878POPC   C4B84509   2.457  26.328  18.256 -0.1518 -0.0823  0.0030
 3879POPC   NC384510  32.059  27.054  15.938  0.4870 -0.1179 -0.0027
 3879POPC   PO484511  31.863  26.740  16.031 -0.0701  0.0499 -0.0575
 3879POPC   GL184512  31.776  26.575  16.405 -0.1015  0.0408  0.1044
 3879POPC   GL284513  31.523  26.584  16.532  0.1883 -0.0785  0.2283
 3879POPC   C1A84514  31.558  26.135  16.414 -0.1564 -0.0504  0.1021
 3879POPC   D2A84515  31.159  26.005  16.484  0.5358  0.2973  0.0065
 3879POPC   C3A84516  30.771  26.208  16.495 -0.1055  0.0962 -0.2155
 3879POPC   C4A84517  30.354  26.264  16.516  0.0641  0.0377  0.0595
 3879POPC   C1B84518  31.214  26.361  16.845  0.0815 -0.0877  0.0430
 3879POPC   C2B84519  30.904  26.017  16.930 -0.0702 -0.2624 -0.0098
 3879POPC   C3B84520  30.723  25.622  16.911 -0.1445 -0.4109  0.0767
 3879POPC   C4B84521  30.676  25.178  16.937  0.2348 -0.0685  0.1543
 3880POPC   NC384522  16.956  30.354  16.223  0.1927 -0.0097  0.1336
 3880POPC   PO484523  16.679  30.499  16.473  0.1377 -0.0583  0.1922
 3880POPC   GL184524  16.660  30.608  16.876 -0.0999 -0.3497  0.0435
 3880POPC   GL284525  16.865  30.613  17.067 -0.0520  0.1284  0.0446
 3880POPC   C1A84526  16.529  31.010  17.088  0.0626  0.2245 -0.2809
 3880POPC   D2A84527  16.500  31.327  17.368  0.0112 -0.2087 -0.0511
 3880POPC   C3A84528  16.728  31.429  17.764 -0.1841 -0.1695  0.1382
 3880POPC   C4A84529  16.924  31.561  18.217 -0.0741  0.2501 -0.1929
 3880POPC   C1B84530  17.204  30.468  17.324 -0.1819 -0.1721 -0.2240
 3880POPC   C2B84531  17.203  30.222  17.684 -0.2905  0.0187  0.0512
 3880POPC   C3B84532  17.232  30.059  18.095  0.0684 -0.4042 -0.1052
 3880POPC   C4B84533  17.350  29.983  18.536  0.0937 -0.0171  0.1441
 3881POPC   NC384534  25.299  29.348  15.589 -0.0456 -0.0887 -0.1491
 3881POPC   PO484535  25.359  29.367  15.995 -0.0522 -0.0553  0.0453
 3881POPC   GL184536  25.295  29.435  16.460  0.0207 -0.0541 -0.1811
 3881POPC   GL284537  25.574  29.587  16.471 -0.1818 -0.1174  0.0262
 3881POPC   C1A84538  25.327  29.464  16.931 -0.3215 -0.0599 -0.0605
 3881POPC   D2A84539  25.115  29.500  17.421 -0.0940  0.0838  0.1795
 3881POPC   C3A84540  24.927  29.784  17.747 -0.2437 -0.3804 -0.2035
 3881POPC   C4A84541  24.668  29.715  18.077 -0.0978  0.0394  0.0001
 3881POPC   C1B84542  25.369  29.922  16.705  0.0039 -0.0237  0.2246
 3881POPC   C2B84543  25.280  30.063  17.173  0.0634  0.1117  0.0771
 3881POPC   C3B84544  25.259  30.152  17.627 -0.3515 -0.4950 -0.0680
 3881POPC   C4B84545  25.093  30.263  18.041  0.0718 -0.0761 -0.0505
 3882POPC   NC384546  19.673  20.895  15.133  0.0336 -0.0559 -0.0396
 3882POPC   PO484547  19.840  20.658  15.420  0.1784  0.1099 -0.0030
 3882POPC   GL184548  19.864  20.549  15.806 -0.0649 -0.3651  0.2818
 3882POPC   GL284549  19.626  20.615  15.969 -0.3179 -0.1616  0.0111
 3882POPC   C1A84550  20.211  20.605  16.180  0.0420  0.3460 -0.3214
 3882POPC   D2A84551  20.276  20.884  16.541 -0.1651 -0.5525  0.0045
 3882POPC   C3A84552  20.435  20.978  16.988  0.2165 -0.2846 -0.2909
 3882POPC   C4A84553  20.628  21.327  17.207 -0.0869 -0.0600 -0.0919
 3882POPC   C1B84554  19.692  20.759  16.409  0.2315  0.1353  0.0592
 3882POPC   C2B84555  19.927  20.772  16.793 -0.2180 -0.1922 -0.0673
 3882POPC   C3B84556  20.252  20.531  16.984  0.0181  0.0304 -0.0580
 3882POPC   C4B84557  20.411  20.211  17.289 -0.1309 -0.0850 -0.0886
 3883POPC   NC384558  21.135  30.591   8.360 -0.0000 -0.0915 -0.1856
 3883POPC   PO484559  21.508  30.621   8.276 -0.1555  0.0361 -0.2881
 3883POPC   GL184560  21.700  30.638   7.894 -0.1647 -0.1778  0.1936
 3883POPC   GL284561  21.428  30.595   7.690  0.4660  0.0466 -0.1508
 3883POPC   C1A84562  21.951  30.685   7.489 -0.1260 -0.0205 -0.0505
 3883POPC   D2A84563  21.971  30.951   7.108  0.1659 -0.0661  0.0143
 3883POPC   C3A84564  22.087  30.762   6.687 -0.1490 -0.1205  0.0383
 3883POPC   C4A84565  22.330  30.362   6.668  0.4071  0.1771  0.1556
 3883POPC   C1B84566  21.307  30.658   7.217 -0.3238 -0.2849 -0.1352
 3883POPC   C2B84567  21.214  30.693   6.785 -0.1491  0.1488 -0.2586
 3883POPC   C3B84568  21.159  30.557   6.378 -0.1279 -0.0076  0.0466
 3883POPC   C4B84569  21.041  30.135   6.151  0.0591 -0.0281  0.1124
 3884POPC   NC384570  29.400  17.212  15.081  0.2202  0.0270  0.3476
 3884POPC   PO484571  29.606  16.925  15.150 -0.3586  0.2699  0.0065
 3884POPC   GL184572  29.436  17.036  15.539  0.0650 -0.0458  0.2173
 3884POPC   GL284573  29.197  16.859  15.429 -0.1368  0.1717 -0.1125
 3884POPC   C1A84574  29.097  17.351  15.553  0.4847 -0.0244  0.3375
 3884POPC   D2A84575  28.803  17.544  15.877  0.2724 -0.0160 -0.1214
 3884POPC   C3A84576  28.849  17.997  15.889  0.0609  0.0172  0.1469
 3884POPC   C4A84577  28.688  18.381  16.026 -0.1280  0.2230  0.0491
 3884POPC   C1B84578  28.896  16.961  15.802  0.2296  0.0452  0.5311
 3884POPC   C2B84579  28.679  17.072  16.131 -0.1924  0.2846 -0.1554
 3884POPC   C3B84580  28.794  17.116  16.621  0.0926  0.1764 -0.0172
 3884POPC   C4B84581  28.899  17.488  16.835 -0.0499  0.1282  0.1225
 3885POPC   NC384582  17.629   0.561  16.044 -0.1734  0.2152 -0.0174
 3885POPC   PO484583  17.584   0.601  16.445 -0.2853  0.0953  0.1526
 3885POPC   GL184584  17.754   0.745  16.717 -0.2906  0.3721 -0.0587
 3885POPC   GL284585  17.678   0.645  16.975 -0.1503  0.0755 -0.1122
 3885POPC   C1A84586  18.177   0.544  16.925  0.4119 -0.0633 -0.1463
 3885POPC   D2A84587  18.470   0.235  17.140 -0.0965  0.0633 -0.3088
 3885POPC   C3A84588  18.543   0.022  17.557 -0.1244 -0.2991  0.1591
 3885POPC   C4A84589  18.828  -0.161  17.877 -0.1293  0.1057  0.1560
 3885POPC   C1B84590  17.769   0.994  17.270 -0.2255  0.3189 -0.3943
 3885POPC   C2B84591  17.721   1.081  17.714 -0.1504 -0.2919 -0.1729
 3885POPC   C3B84592  17.895   0.747  17.991  0.2242  0.0290 -0.0166
 3885POPC   C4B84593  18.060   0.318  17.998  0.0991  0.0319  0.1405
 3886POPC   NC384594  19.979  29.531  16.962  0.1343  0.2412 -0.0132
 3886POPC   PO484595  20.127  29.218  16.758 -0.3766 -0.1994 -0.0941
 3886POPC   GL184596  20.256  29.170  17.118 -0.2362 -0.2879  0.1217
 3886POPC   GL284597  20.191  29.258  17.365 -0.0551 -0.0330  0.0435
 3886POPC   C1A84598  20.361  28.770  17.382  0.1435  0.0439 -0.2648
 3886POPC   D2A84599  20.277  28.385  17.616  0.2476  0.0677 -0.2423
 3886POPC   C3A84600  20.309  28.307  18.041 -0.1930 -0.0800 -0.2464
 3886POPC   C4A84601  20.489  28.079  18.471 -0.1587  0.0818 -0.0456
 3886POPC   C1B84602  20.032  29.287  17.758  0.1241  0.2093 -0.0723
 3886POPC   C2B84603  19.991  29.063  18.156  0.0948 -0.0424 -0.0929
 3886POPC   C3B84604  19.973  28.626  18.280 -0.0211 -0.1157 -0.2296
 3886POPC   C4B84605  20.052  28.299  18.580 -0.1894 -0.1456 -0.0072
 3887POPC   NC384606  17.814  31.115  16.881 -0.0997 -0.1035 -0.1558
 3887POPC   PO484607  17.438  31.019  16.785  0.0295 -0.0473 -0.0933
 3887POPC   GL184608  17.285  30.990  17.160  0.0694  0.0992  0.4025
 3887POPC   GL284609  17.073  31.216  17.058  0.2990  0.0052  0.0059
 3887POPC   C1A84610  16.912  31.024  17.474 -0.3461  0.1155 -0.0186
 3887POPC   D2A84611  16.657  30.909  17.814 -0.2025 -0.1404 -0.3742
 3887POPC   C3A84612  16.339  31.149  17.959  0.1038  0.0233  0.0015
 3887POPC   C4A84613  15.912  31.215  17.970 -0.3234 -0.3265  0.3040
 3887POPC   C1B84614  17.026  31.518  17.373  0.0347 -0.1795  0.0247
 3887POPC   C2B84615  17.269  31.684  17.751  0.2493 -0.1526  0.3324
 3887POPC   C3B84616  17.247  31.951  18.146  0.1044  0.0120  0.1327
 3887POPC   C4B84617  17.507  32.224  18.419 -0.0198  0.0888  0.1245
 3888POPC   NC384618  31.235  21.484  12.991  0.3564  0.2913 -0.0698
 3888POPC   PO484619  31.324  21.793  13.173  0.2474 -0.4055 -0.1252
 3888POPC   GL184620  30.938  21.936  13.286  0.1674  0.5425  0.3650
 3888POPC   GL284621  30.792  21.803  13.128 -0.0346 -0.1793  0.0313
 3888POPC   C1A84622  30.620  21.829  13.601 -0.1231  0.0199  0.0419
 3888POPC   D2A84623  30.373  21.613  13.986  0.1589 -0.0971 -0.0404
 3888POPC   C3A84624  29.877  21.558  13.902 -0.1875  0.4720  0.1144
 3888POPC   C4A84625  29.532  21.695  13.647 -0.4136 -0.1093 -0.0596
 3888POPC   C1B84626  30.404  21.596  13.121 -0.1495 -0.2116 -0.1898
 3888POPC   C2B84627  30.026  21.700  12.981  0.0453  0.0512 -0.0022
 3888POPC   C3B84628  29.622  21.888  13.077 -0.1693  0.2166  0.0271
 3888POPC   C4B84629  29.281  21.631  13.231 -0.2020  0.2101 -0.0575
 3889POPC   NC384630  22.300  19.616  11.811  0.1559  0.1904 -0.1184
 3889POPC   PO484631  22.354  19.505  12.157 -0.0934  0.1024  0.1439
 3889POPC   GL184632  22.520  19.856  12.132  0.6976 -0.0765  0.1471
 3889POPC   GL284633  22.623  20.130  12.208  0.0985 -0.0604  0.0106
 3889POPC   C1A84634  22.981  19.765  12.145 -0.1036  0.1825  0.2751
 3889POPC   D2A84635  23.394  19.899  12.332 -0.1696  0.4858  0.0715
 3889POPC   C3A84636  23.632  20.248  12.446 -0.3996  0.3459 -0.0620
 3889POPC   C4A84637  23.972  20.538  12.448 -0.0872 -0.6194  0.1430
 3889POPC   C1B84638  23.054  20.231  12.284 -0.1669 -0.0612 -0.0059
 3889POPC   C2B84639  23.223  20.632  12.427 -0.0062 -0.3388 -0.0363
 3889POPC   C3B84640  23.530  20.963  12.395  0.2154  0.3307 -0.0229
 3889POPC   C4B84641  23.940  21.089  12.433 -0.0135 -0.2699 -0.1272
 3890POPC   NC384642  30.476  26.090  14.633 -0.2043 -0.0533 -0.0897
 3890POPC   PO484643  30.408  25.741  14.492 -0.1213  0.1660 -0.0260
 3890POPC   GL184644  30.121  25.440  14.501 -0.0614  0.0499  0.2373
 3890POPC   GL284645  30.039  25.223  14.423  0.1890  0.1756 -0.2294
 3890POPC   C1A84646  30.086  25.207  14.906  0.5878  0.1924  0.1507
 3890POPC   D2A84647  30.024  25.115  15.300  0.0945  0.2405 -0.0659
 3890POPC   C3A84648  29.683  24.779  15.457 -0.2853  0.1227  0.2369
 3890POPC   C4A84649  29.537  24.441  15.738  0.1307 -0.1956  0.0693
 3890POPC   C1B84650  29.694  25.077  14.627 -0.0948 -0.0896 -0.1071
 3890POPC   C2B84651  29.504  24.780  14.914  0.0281  0.0093 -0.3956
 3890POPC   C3B84652  29.397  24.340  15.078 -0.0653 -0.0996 -0.0276
 3890POPC   C4B84653  29.161  24.028  15.222 -0.4185  0.1616 -0.0547
 3891POPC   NC384654  27.097  29.777  16.108  0.1007 -0.0632  0.0130
 3891POPC   PO484655  27.064  30.167  16.025 -0.6376  0.0213 -0.2154
 3891POPC   GL184656  26.829  30.033  16.387 -0.3333 -0.1022  0.1444
 3891POPC   GL284657  27.030  30.003  16.589  0.2904  0.0678 -0.0529
 3891POPC   C1A84658  26.629  30.169  16.805  0.1244 -0.0163  0.1622
 3891POPC   D2A84659  26.451  30.177  17.206 -0.0552  0.0053 -0.3114
 3891POPC   C3A84660  26.207  30.081  17.552  0.1572  0.0815 -0.1727
 3891POPC   C4A84661  26.182  29.953  17.957  0.0624  0.0116  0.1065
 3891POPC   C1B84662  27.121  30.149  17.030  0.0151  0.0681 -0.1091
 3891POPC   C2B84663  27.066  30.254  17.468  0.0047 -0.0733 -0.0957
 3891POPC   C3B84664  27.087  30.266  17.922  0.3162 -0.0044  0.0449
 3891POPC   C4B84665  27.337  30.271  18.297  0.0407 -0.1046  0.2746
 3892POPC   NC384666  31.446  26.064  15.431  0.0044 -0.2106  0.1495
 3892POPC   PO484667  31.342  25.689  15.519 -0.0043 -0.0794  0.0238
 3892POPC   GL184668  31.201  25.480  15.759 -0.0039 -0.1167  0.0396
 3892POPC   GL284669  31.391  25.243  15.798  0.0018  0.1733 -0.1747
 3892POPC   C1A84670  31.287  25.561  16.225  0.1399 -0.1467  0.2237
 3892POPC   D2A84671  31.082  25.420  16.592  0.0861  0.1370  0.0264
 3892POPC   C3A84672  30.669  25.318  16.360  0.0061  0.0603  0.2163
 3892POPC   C4A84673  30.273  25.361  16.546  0.1086  0.6888  0.0198
 3892POPC   C1B84674  31.023  25.126  16.076 -0.0251 -0.0099 -0.1079
 3892POPC   C2B84675  30.891  24.922  16.512  0.1008  0.0215  0.0105
 3892POPC   C3B84676  30.472  24.748  16.684 -0.1351  0.0885 -0.1773
 3892POPC   C4B84677  30.116  24.473  16.790  0.0971 -0.2539  0.1380
 3893POPC   NC384678  25.834  17.085  11.797 -0.1401  0.2518 -0.0411
 3893POPC   PO484679  25.795  17.411  12.046  0.2287 -0.2741 -0.2893
 3893POPC   GL184680  25.602  17.735  12.149 -0.1483 -0.2249 -0.3336
 3893POPC   GL284681  25.689  18.035  12.019 -0.0575 -0.1933 -0.2582
 3893POPC   C1A84682  25.560  18.072  12.468 -0.0334 -0.1783 -0.0692
 3893POPC   D2A84683  25.707  18.497  12.628  0.4217  0.1688  0.1945
 3893POPC   C3A84684  26.094  18.544  12.742  0.0870 -0.0630  0.0599
 3893POPC   C4A84685  26.459  18.380  12.962 -0.1507  0.1285  0.3181
 3893POPC   C1B84686  25.967  18.402  11.907  0.2894 -0.1741  0.1093
 3893POPC   C2B84687  26.283  18.792  11.967 -0.0606  0.0341 -0.2323
 3893POPC   C3B84688  26.584  19.128  11.814 -0.0833  0.2849  0.2045
 3893POPC   C4B84689  26.854  19.509  11.778 -0.0617  0.1876 -0.0370
 3894POPC   NC384690   0.071  25.008  16.564  0.1828  0.1435 -0.0327
 3894POPC   PO484691  -0.043  24.827  16.223 -0.4360  0.2802  0.0910
 3894POPC   GL184692  -0.193  24.562  16.433  0.1070  0.0427  0.2195
 3894POPC   GL284693  -0.137  24.520  16.739  0.0438  0.2532  0.1227
 3894POPC   C1A84694  -0.584  24.388  16.672 -0.0439  0.0659  0.0907
 3894POPC   D2A84695  -1.006  24.151  16.832  0.4347 -0.2880 -0.2097
 3894POPC   C3A84696  -1.201  23.766  17.067 -0.1071 -0.0213 -0.0954
 3894POPC   C4A84697  -1.362  23.472  17.381 -0.0201  0.1178  0.0596
 3894POPC   C1B84698  -0.148  24.261  17.069 -0.3947  0.1470 -0.1944
 3894POPC   C2B84699  -0.053  24.140  17.499 -0.0667 -0.2852 -0.2470
 3894POPC   C3B84700   0.296  24.390  17.691  0.1890 -0.4188  0.1854
 3894POPC   C4B84701   0.728  24.401  17.626  0.0866  0.1802  0.2523
 3895POPC   NC384702  20.519  25.259  16.156  0.0953 -0.1475 -0.1344
 3895POPC   PO484703  20.332  25.002  15.934  0.2043  0.0445  0.2673
 3895POPC   GL184704  20.408  24.788  16.327  0.1547 -0.1630  0.1339
 3895POPC   GL284705  20.638  24.704  16.255  0.0335 -0.2355 -0.0490
 3895POPC   C1A84706  20.227  24.742  16.737  0.0124  0.2986  0.0661
 3895POPC   D2A84707  20.481  24.840  17.066 -0.2076  0.0626 -0.0824
 3895POPC   C3A84708  20.734  24.692  17.399  0.1536  0.1547 -0.2938
 3895POPC   C4A84709  21.149  24.529  17.518 -0.0382  0.1932 -0.1942
 3895POPC   C1B84710  20.746  24.568  16.661 -0.1155 -0.1511  0.1396
 3895POPC   C2B84711  20.991  24.476  17.005 -0.3189  0.2746  0.1086
 3895POPC   C3B84712  21.180  24.128  17.284  0.1560 -0.0392  0.5343
 3895POPC   C4B84713  21.614  23.926  17.226 -0.0747 -0.0735 -0.1391
 3896POPC   NC384714  28.176  29.231   8.777 -0.2877 -0.2129 -0.1139
 3896POPC   PO484715  28.011  29.549   8.865  0.0127 -0.0361 -0.0711
 3896POPC   GL184716  27.738  29.602   8.511  0.3143 -0.0981  0.0575
 3896POPC   GL284717  27.513  29.777   8.567  0.2263 -0.1184 -0.2427
 3896POPC   C1A84718  27.696  29.527   8.088  0.1758  0.0979  0.0277
 3896POPC   D2A84719  27.711  29.278   7.734  0.1449 -0.0316 -0.2463
 3896POPC   C3A84720  27.643  29.416   7.279 -0.1180  0.2124 -0.0809
 3896POPC   C4A84721  27.680  29.665   6.953 -0.0778 -0.1880 -0.0493
 3896POPC   C1B84722  27.237  29.721   8.235  0.1226  0.0958  0.0931
 3896POPC   C2B84723  26.887  29.925   7.924  0.3144  0.5169 -0.0391
 3896POPC   C3B84724  26.828  29.816   7.516  0.2692  0.0178 -0.2019
 3896POPC   C4B84725  26.573  29.604   7.239 -0.1540  0.1279 -0.0567
 3897POPC   NC384726  29.587  26.802  15.336  0.0952 -0.4087 -0.1268
 3897POPC   PO484727  29.328  27.124  15.373 -0.1806 -0.2470 -0.3872
 3897POPC   GL184728  29.364  27.081  15.757  0.1127 -0.2104 -0.0231
 3897POPC   GL284729  29.299  26.856  15.805  0.3000  0.0918  0.4447
 3897POPC   C1A84730  29.366  27.104  16.238  0.0938 -0.2487  0.1035
 3897POPC   D2A84731  29.157  26.858  16.570  0.0507  0.0271 -0.1784
 3897POPC   C3A84732  28.914  26.752  16.875 -0.4215  0.1374 -0.1999
 3897POPC   C4A84733  28.484  26.547  16.916 -0.2791 -0.0158  0.0333
 3897POPC   C1B84734  29.192  26.588  16.172  0.0789 -0.0374 -0.1502
 3897POPC   C2B84735  29.270  26.369  16.616 -0.0866  0.0959  0.1248
 3897POPC   C3B84736  29.270  26.461  17.088 -0.0556  0.1780 -0.2221
 3897POPC   C4B84737  28.871  26.534  17.303 -0.1128 -0.1944 -0.0038
 3898POPC   NC384738  31.369  25.982  15.934 -0.3679  0.1022 -0.0885
 3898POPC   PO484739  31.748  25.941  15.832  0.0723 -0.3831  0.0601
 3898POPC   GL184740  31.694  25.675  16.042 -0.3309  0.2832 -0.4659
 3898POPC   GL284741  31.819  25.678  16.307 -0.0088  0.3551  0.1428
 3898POPC   C1A84742  31.613  25.196  16.238 -0.1364 -0.2762 -0.2315
 3898POPC   D2A84743  31.410  24.819  16.435  0.1841 -0.0582 -0.0686
 3898POPC   C3A84744  31.472  24.622  16.831  0.0605 -0.2166 -0.0038
 3898POPC   C4A84745  31.598  24.468  17.207 -0.2179  0.1914 -0.1946
 3898POPC   C1B84746  31.614  25.469  16.623  0.0548 -0.4531  0.0603
 3898POPC   C2B84747  31.740  25.433  17.097 -0.0274 -0.1991 -0.1416
 3898POPC   C3B84748  31.529  25.309  17.446 -0.0482 -0.1830  0.0965
 3898POPC   C4B84749  31.353  24.880  17.498 -0.1692 -0.0755  0.1644
 3899POPC   NC384750  28.749  27.360  15.229  0.0148 -0.2052  0.1716
 3899POPC   PO484751  28.762  27.092  14.953  0.1274  0.0562 -0.0831
 3899POPC   GL184752  28.898  26.952  15.372 -0.2607  0.0315 -0.1736
 3899POPC   GL284753  28.772  27.008  15.641  0.0537  0.2241 -0.1188
 3899POPC   C1A84754  29.159  26.554  15.333  0.1153  0.2209  0.0409
 3899POPC   D2A84755  29.394  26.336  15.627 -0.5158 -0.1840 -0.2749
 3899POPC   C3A84756  29.179  26.054  15.864 -0.0570  0.2585 -0.4051
 3899POPC   C4A84757  28.802  25.862  15.775  0.1575 -0.2142 -0.0953
 3899POPC   C1B84758  28.805  26.605  15.875  0.0937 -0.1992 -0.0664
 3899POPC   C2B84759  28.661  26.220  16.065  0.2408 -0.2143 -0.0641
 3899POPC   C3B84760  28.250  26.054  16.045 -0.1323 -0.0940 -0.0747
 3899POPC   C4B84761  27.947  25.723  16.119 -0.1097  0.0885  0.2039
 3900POPC   NC384762  30.739  32.466  16.277 -0.0028  0.1622 -0.0560
 3900POPC   PO484763  30.631  32.722  16.034 -0.1661 -0.1936 -0.1642
 3900POPC   GL184764  30.380  32.796  16.261 -0.2328 -0.2885 -0.1730
 3900POPC   GL284765  30.463  33.082  16.349  0.1270  0.2575  0.1859
 3900POPC   C1A84766  30.369  32.670  16.669 -0.3527  0.1019  0.1968
 3900POPC   D2A84767  30.364  32.747  17.134 -0.0355 -0.0498 -0.1967
 3900POPC   C3A84768  30.403  32.672  17.611 -0.0626 -0.1735 -0.1437
 3900POPC   C4A84769  30.675  32.832  18.026 -0.0609  0.0512  0.1906
 3900POPC   C1B84770  30.192  33.177  16.700 -0.1785 -0.1344 -0.0167
 3900POPC   C2B84771  29.768  33.405  16.835  0.0531 -0.2172 -0.2241
 3900POPC   C3B84772  29.589  33.736  17.082  0.1526  0.1623 -0.0389
 3900POPC   C4B84773  29.511  34.072  17.318  0.0136 -0.0181  0.0584
 3901POPC   NC384774  17.773  20.411  15.792  0.1074  0.0190 -0.1168
 3901POPC   PO484775  17.632  20.018  15.816  0.2054  0.1091  0.2443
 3901POPC   GL184776  17.598  20.018  16.238  0.2053  0.0694  0.1571
 3901POPC   GL284777  17.603  20.276  16.296  0.2447  0.1304 -0.0842
 3901POPC   C1A84778  17.883  20.057  16.632 -0.3389  0.0731 -0.1520
 3901POPC   D2A84779  17.847  20.151  17.075  0.0779 -0.0215 -0.0913
 3901POPC   C3A84780  17.571  20.270  17.401  0.0181  0.0639  0.1347
 3901POPC   C4A84781  17.240  20.211  17.653  0.1287 -0.1519  0.2926
 3901POPC   C1B84782  17.167  20.195  16.434  0.2076  0.0564 -0.0247
 3901POPC   C2B84783  16.843  20.258  16.719  0.0471  0.1562 -0.0339
 3901POPC   C3B84784  16.574  20.163  17.142  0.1740 -0.2704 -0.0748
 3901POPC   C4B84785  16.298  20.170  17.569 -0.3666 -0.1959 -0.2309
 3902POPC   NC384786  23.321  28.060  16.526  0.2190  0.3159 -0.1005
 3902POPC   PO484787  22.982  27.932  16.372 -0.0196 -0.1550  0.2808
 3902POPC   GL184788  23.061  27.707  16.708  0.3467  0.4002  0.0561
 3902POPC   GL284789  23.302  27.603  16.702  0.2481 -0.1279 -0.0451
 3902POPC   C1A84790  23.036  27.993  17.060  0.0451 -0.2029  0.0146
 3902POPC   D2A84791  23.024  28.086  17.529 -0.5384  0.4458 -0.1727
 3902POPC   C3A84792  23.131  27.657  17.681  0.3226  0.0255 -0.1001
 3902POPC   C4A84793  23.336  27.275  17.684  0.1315 -0.1132 -0.1410
 3902POPC   C1B84794  23.574  27.299  16.906 -0.0805 -0.0604  0.1472
 3902POPC   C2B84795  23.620  26.989  17.304 -0.3319  0.0501  0.1104
 3902POPC   C3B84796  23.672  26.602  17.514 -0.2825 -0.2643 -0.1174
 3902POPC   C4B84797  23.443  26.264  17.660  0.1426 -0.1149 -0.3673
 3903POPC   NC384798  28.988  28.285  16.140  0.1476  0.2242 -0.1062
 3903POPC   PO484799  29.121  27.971  16.323  0.0692  0.4694  0.0092
 3903POPC   GL184800  29.105  27.793  16.658 -0.0368  0.1061 -0.1800
 3903POPC   GL284801  29.092  28.005  16.839  0.2662  0.1671  0.2793
 3903POPC   C1A84802  28.626  27.676  16.803  0.4532 -0.1186  0.0813
 3903POPC   D2A84803  28.278  27.819  17.055  0.0263 -0.0264 -0.0579
 3903POPC   C3A84804  28.185  27.813  17.524 -0.2861 -0.3115  0.2934
 3903POPC   C4A84805  28.128  27.895  17.953  0.2823 -0.2189 -0.0326
 3903POPC   C1B84806  28.851  27.791  17.201 -0.0320 -0.1872  0.1211
 3903POPC   C2B84807  28.722  27.689  17.650 -0.0767  0.0092  0.3863
 3903POPC   C3B84808  28.687  27.770  18.093 -0.0635 -0.0128 -0.1000
 3903POPC   C4B84809  28.381  27.820  18.417  0.2256  0.2141 -0.0019
 3904POPC   NC384810  21.137  26.501  16.001 -0.0199  0.0988 -0.0540
 3904POPC   PO484811  20.862  26.521  16.285 -0.0553  0.1334  0.1391
 3904POPC   GL184812  20.843  26.312  16.719  0.2327  0.2956  0.0428
 3904POPC   GL284813  21.145  26.265  16.659 -0.0526 -0.2074  0.2097
 3904POPC   C1A84814  20.979  26.212  17.187 -0.1275 -0.2497  0.0201
 3904POPC   D2A84815  21.300  26.264  17.524  0.2640  0.0912  0.1262
 3904POPC   C3A84816  21.321  26.170  17.954 -0.0061  0.2132  0.0226
 3904POPC   C4A84817  21.704  26.084  18.165  0.1502  0.2309 -0.1041
 3904POPC   C1B84818  20.923  25.862  16.823 -0.1273 -0.2909 -0.2082
 3904POPC   C2B84819  21.018  25.711  17.224  0.0098  0.1305 -0.1843
 3904POPC   C3B84820  21.108  25.834  17.626  0.1642  0.0338 -0.0198
 3904POPC   C4B84821  21.129  25.764  18.127 -0.2532  0.2904 -0.1400
 3905POPC   NC384822  28.399  29.605  16.077 -0.0831  0.1092 -0.0135
 3905POPC   PO484823  28.631  29.295  16.259  0.0851 -0.1725  0.1394
 3905POPC   GL184824  28.690  29.253  16.668 -0.3519  0.0192 -0.1145
 3905POPC   GL284825  28.719  29.548  16.705  0.0433  0.1992 -0.0071
 3905POPC   C1A84826  29.043  29.165  16.971 -0.1017 -0.1485  0.1353
 3905POPC   D2A84827  29.301  28.872  17.245 -0.0716 -0.2143 -0.0847
 3905POPC   C3A84828  29.451  28.956  17.699  0.1886 -0.0885  0.1407
 3905POPC   C4A84829  29.300  28.970  18.093  0.2083 -0.2220 -0.2284
 3905POPC   C1B84830  28.744  29.604  17.167 -0.2024  0.0955 -0.0615
 3905POPC   C2B84831  28.691  29.220  17.418 -0.0528 -0.0661  0.1227
 3905POPC   C3B84832  28.936  28.917  17.598  0.0288  0.0826  0.0143
 3905POPC   C4B84833  28.998  28.555  17.815  0.1239  0.0693 -0.1920
 3906POPC   NC384834  17.491  17.751  16.289 -0.0154  0.0203 -0.0502
 3906POPC   PO484835  17.488  18.037  16.037 -0.5639  0.1661 -0.1102
 3906POPC   GL184836  17.226  18.213  16.197  0.0872 -0.2149 -0.1795
 3906POPC   GL284837  17.140  18.454  16.120 -0.0435  0.1176 -0.0486
 3906POPC   C1A84838  17.166  18.201  16.642  0.0805 -0.1756 -0.3499
 3906POPC   D2A84839  16.932  18.165  17.080  0.0819  0.1622 -0.1303
 3906POPC   C3A84840  17.141  18.205  17.450 -0.1681  0.1760  0.2505
 3906POPC   C4A84841  17.427  18.111  17.804 -0.0470  0.0010  0.1844
 3906POPC   C1B84842  17.100  18.664  16.493 -0.2487  0.1281 -0.2463
 3906POPC   C2B84843  17.002  18.785  16.929 -0.0148  0.0654 -0.0882
 3906POPC   C3B84844  16.856  18.907  17.378 -0.1568  0.0358  0.0698
 3906POPC   C4B84845  16.652  18.739  17.767 -0.1216  0.1904 -0.0854
 3907POPC   NC384846  25.135  27.189  13.704 -0.0933 -0.0988 -0.3846
 3907POPC   PO484847  25.180  27.301  14.095 -0.1771 -0.1112 -0.1254
 3907POPC   GL184848  25.367  26.904  14.065  0.0409  0.1566 -0.2817
 3907POPC   GL284849  25.190  26.824  14.226  0.1302 -0.1306  0.1795
 3907POPC   C1A84850  25.489  26.500  13.853  0.1621  0.1193 -0.1155
 3907POPC   D2A84851  25.508  26.085  13.665 -0.0093 -0.0323  0.1973
 3907POPC   C3A84852  25.833  25.703  13.643  0.0252  0.2765  0.2791
 3907POPC   C4A84853  26.090  25.273  13.667 -0.1065  0.2694 -0.2046
 3907POPC   C1B84854  25.344  26.421  14.313 -0.0008  0.4111 -0.0559
 3907POPC   C2B84855  25.269  25.950  14.185 -0.1419 -0.3351  0.2598
 3907POPC   C3B84856  25.371  25.590  13.923 -0.1326  0.1357 -0.1644
 3907POPC   C4B84857  25.470  25.159  13.928 -0.3167  0.0819  0.1192
 3908POPC   NC384858  19.519  18.933  15.788 -0.2279  0.3816  0.0379
 3908POPC   PO484859  19.330  18.596  15.811 -0.0400  0.1021  0.1236
 3908POPC   GL184860  19.345  18.693  16.248  0.1574 -0.0167 -0.0745
 3908POPC   GL284861  19.533  18.930  16.322  0.1166  0.2022 -0.0668
 3908POPC   C1A84862  19.373  18.481  16.681  0.1173  0.1479  0.0031
 3908POPC   D2A84863  19.450  18.209  17.031 -0.0190  0.0362  0.1650
 3908POPC   C3A84864  19.885  18.118  17.295  0.0497  0.1658 -0.1468
 3908POPC   C4A84865  19.984  18.157  17.747 -0.0680 -0.0236 -0.1456
 3908POPC   C1B84866  19.431  19.069  16.823 -0.0166  0.1002  0.2695
 3908POPC   C2B84867  19.415  19.056  17.296 -0.0157  0.0201 -0.0090
 3908POPC   C3B84868  19.315  18.912  17.669 -0.2926  0.2452 -0.0248
 3908POPC   C4B84869  18.993  18.596  17.830 -0.0629 -0.0064 -0.1884
 3909POPC   NC384870  22.784  26.101  13.615 -0.1334  0.1405  0.1225
 3909POPC   PO484871  23.149  26.181  13.524  0.0606 -0.0538 -0.0066
 3909POPC   GL184872  23.447  25.897  13.671 -0.1389  0.0237 -0.0186
 3909POPC   GL284873  23.517  25.744  13.484  0.0314 -0.2094 -0.0970
 3909POPC   C1A84874  23.875  25.906  13.866 -0.0515  0.2244 -0.1112
 3909POPC   D2A84875  24.333  25.974  13.768 -0.0423  0.0668 -0.1918
 3909POPC   C3A84876  24.455  25.593  13.556  0.1280 -0.1010 -0.4197
 3909POPC   C4A84877  24.587  25.177  13.503 -0.0100 -0.1784 -0.4235
 3909POPC   C1B84878  23.363  25.366  13.462  0.3548 -0.1551  0.1614
 3909POPC   C2B84879  23.617  25.043  13.678  0.1731  0.0489 -0.1183
 3909POPC   C3B84880  23.944  25.063  14.016 -0.0896  0.0441  0.2016
 3909POPC   C4B84881  24.226  24.855  14.260  0.2414  0.0078  0.0095
 3910POPC   NC384882  24.233  27.120  11.408 -0.0283  0.0789  0.2369
 3910POPC   PO484883  23.968  26.870  11.622 -0.0158  0.1343 -0.0162
 3910POPC   GL184884  24.181  26.649  11.231 -0.0564 -0.3577 -0.2806
 3910POPC   GL284885  24.447  26.567  11.254 -0.0767  0.2440 -0.2610
 3910POPC   C1A84886  24.125  26.224  11.061  0.1210 -0.0926 -0.1203
 3910POPC   D2A84887  24.367  25.839  10.868 -0.2291 -0.0427 -0.1881
 3910POPC   C3A84888  24.537  25.419  10.656 -0.0834  0.1241 -0.1214
 3910POPC   C4A84889  24.844  25.047  10.656 -0.1200  0.1829  0.0206
 3910POPC   C1B84890  24.669  26.126  11.166 -0.1432 -0.0425  0.1196
 3910POPC   C2B84891  24.844  25.780  10.912 -0.1653 -0.0160 -0.2203
 3910POPC   C3B84892  25.130  25.471  10.658 -0.0264  0.2778  0.3834
 3910POPC   C4B84893  25.448  25.163  10.835  0.0337  0.2228 -0.0408
 3911POPC   NC384894  17.335  28.709  16.483  0.4006 -0.3189  0.1293
 3911POPC   PO484895  17.533  28.993  16.367  0.0377  0.1982 -0.0433
 3911POPC   GL184896  17.795  29.137  16.696  0.0890 -0.1141 -0.1339
 3911POPC   GL284897  17.800  28.844  16.863  0.1417 -0.0295 -0.1728
 3911POPC   C1A84898  17.648  29.285  17.099  0.0556 -0.2852 -0.2226
 3911POPC   D2A84899  17.346  29.364  17.420 -0.1418  0.2229 -0.1043
 3911POPC   C3A84900  17.495  29.258  17.812  0.1304  0.0673  0.4128
 3911POPC   C4A84901  17.744  29.149  18.173  0.1284 -0.0679 -0.1470
 3911POPC   C1B84902  17.775  28.843  17.381  0.1576 -0.0388  0.0441
 3911POPC   C2B84903  18.018  29.015  17.777  0.1364  0.1925 -0.3735
 3911POPC   C3B84904  18.225  29.365  18.035  0.1539 -0.1832  0.1853
 3911POPC   C4B84905  18.196  29.841  18.086 -0.4391 -0.0636 -0.0501
 3912POPC   NC384906  29.725  16.607  15.506 -0.2760 -0.1403 -0.0574
 3912POPC   PO484907  29.903  16.364  15.768 -0.2873  0.0551 -0.1722
 3912POPC   GL184908  30.033  16.701  15.926 -0.0872  0.2708 -0.2088
 3912POPC   GL284909  29.928  16.909  15.876  0.0761  0.1377  0.1003
 3912POPC   C1A84910  30.113  16.942  16.324 -0.0233 -0.1644 -0.0056
 3912POPC   D2A84911  29.893  17.184  16.630 -0.4658 -0.1883  0.0806
 3912POPC   C3A84912  30.010  17.511  17.027 -0.0967  0.0972 -0.0896
 3912POPC   C4A84913  30.309  17.847  17.176 -0.0954  0.2401 -0.0761
 3912POPC   C1B84914  29.692  17.215  16.164 -0.1138  0.0933 -0.3119
 3912POPC   C2B84915  29.580  17.541  16.409  0.2309 -0.1957  0.0575
 3912POPC   C3B84916  29.289  17.801  16.687  0.0642  0.3061 -0.1227
 3912POPC   C4B84917  29.016  17.953  16.980  0.0301 -0.1955 -0.2193
 3913POPC   NC384918  32.583  26.030  16.505  0.1982  0.0214 -0.3998
 3913POPC   PO484919  32.304  26.265  16.452 -0.2848 -0.2542  0.2171
 3913POPC   GL184920  32.331  26.228  16.842 -0.0239 -0.2731 -0.1174
 3913POPC   GL284921  32.150  26.089  16.898 -0.2248  0.1945 -0.0824
 3913POPC   C1A84922  32.615  25.916  17.024 -0.3003 -0.2201 -0.0558
 3913POPC   D2A84923  33.025  25.725  17.161  0.2794  0.2419 -0.0970
 3913POPC   C3A84924  33.016  25.667  17.590 -0.2471 -0.0567  0.1345
 3913POPC   C4A84925  32.825  25.836  17.916  0.0485  0.0663 -0.1305
 3913POPC   C1B84926  31.755  25.899  16.797  0.0680  0.1216  0.2114
 3913POPC   C2B84927  31.361  25.771  16.922  0.0398  0.1436 -0.0764
 3913POPC   C3B84928  31.034  25.781  17.327  0.2068  0.1461  0.0986
 3913POPC   C4B84929  30.597  25.857  17.385 -0.0547 -0.3237 -0.1411
 3914POPC   NC384930  24.240  28.074  16.089  0.1086  0.1524 -0.2087
 3914POPC   PO484931  24.437  28.305  15.838 -0.2147 -0.0451 -0.1965
 3914POPC   GL184932  24.678  28.110  16.188  0.2312 -0.3433  0.0328
 3914POPC   GL284933  24.661  27.748  16.117 -0.0769 -0.1839  0.3502
 3914POPC   C1A84934  24.789  27.861  16.554  0.1693  0.3271 -0.1127
 3914POPC   D2A84935  24.588  27.522  16.851 -0.3925 -0.0426 -0.2496
 3914POPC   C3A84936  24.713  27.584  17.313 -0.2901  0.1165  0.2765
 3914POPC   C4A84937  24.757  27.288  17.672 -0.2940  0.3173  0.1010
 3914POPC   C1B84938  24.583  27.385  16.360  0.0919 -0.2277  0.1111
 3914POPC   C2B84939  24.745  27.127  16.688 -0.0398 -0.0642 -0.2055
 3914POPC   C3B84940  25.137  27.124  16.921 -0.4894 -0.1074  0.0438
 3914POPC   C4B84941  25.538  27.146  17.140  0.1325 -0.2594  0.0641
 3915POPC   NC384942  18.297  23.438  15.437  0.0706 -0.0995 -0.0248
 3915POPC   PO484943  18.279  23.523  15.810 -0.0755 -0.2572 -0.1717
 3915POPC   GL184944  18.227  23.676  16.184  0.1779 -0.1619  0.1930
 3915POPC   GL284945  17.928  23.577  16.212  0.1484 -0.0189 -0.1762
 3915POPC   C1A84946  18.211  23.751  16.646 -0.1861 -0.0546 -0.0375
 3915POPC   D2A84947  18.116  23.755  17.161 -0.2491 -0.0056 -0.0319
 3915POPC   C3A84948  18.058  23.467  17.479 -0.0885  0.0545 -0.0062
 3915POPC   C4A84949  17.853  23.102  17.687 -0.4052  0.0677 -0.0374
 3915POPC   C1B84950  17.710  23.435  16.649 -0.1286 -0.1266  0.0811
 3915POPC   C2B84951  17.636  23.448  17.131  0.0840  0.3171 -0.1501
 3915POPC   C3B84952  17.580  23.613  17.556  0.2856  0.2044 -0.1573
 3915POPC   C4B84953  17.646  23.717  18.000  0.4963  0.0016 -0.1454
 3916POPC   NC384954  32.766  25.715  16.120  0.0733  0.1327  0.1482
 3916POPC   PO484955  33.064  25.890  16.251 -0.0944  0.1193  0.1015
 3916POPC   GL184956  33.221  25.895  16.609 -0.1064  0.0073 -0.2355
 3916POPC   GL284957  32.996  26.008  16.783 -0.0343 -0.3241 -0.1745
 3916POPC   C1A84958  33.491  25.699  16.955 -0.1818  0.0064  0.2802
 3916POPC   D2A84959  33.525  25.692  17.443  0.1474  0.1246 -0.0259
 3916POPC   C3A84960  33.631  25.244  17.587 -0.2994 -0.0166 -0.1146
 3916POPC   C4A84961  33.653  24.842  17.798 -0.0674 -0.0146 -0.1253
 3916POPC   C1B84962  33.320  26.310  16.753 -0.0989  0.1058 -0.1177
 3916POPC   C2B84963  33.494  26.618  17.063  0.0497 -0.1892  0.0675
 3916POPC   C3B84964  33.642  26.726  17.541  0.1063  0.0830 -0.2692
 3916POPC   C4B84965  33.721  26.466  17.912  0.0088  0.1509 -0.0836
 3917POPC   NC384966  22.133  20.930  12.760  0.1997  0.0935  0.0342
 3917POPC   PO484967  22.132  20.583  12.582 -0.0885 -0.0522  0.2071
 3917POPC   GL184968  22.537  20.719  12.766  0.0297  0.2678 -0.0743
 3917POPC   GL284969  22.640  20.736  12.445 -0.0910 -0.3797 -0.0545
 3917POPC   C1A84970  22.737  21.130  12.851  0.0699  0.0905  0.3112
 3917POPC   D2A84971  23.098  21.421  12.962 -0.0225 -0.2711  0.3548
 3917POPC   C3A84972  23.487  21.434  13.230 -0.3443 -0.1702 -0.2788
 3917POPC   C4A84973  23.793  21.164  13.354 -0.0190  0.1002  0.1667
 3917POPC   C1B84974  22.938  20.635  12.074  0.0275 -0.1936  0.2491
 3917POPC   C2B84975  23.406  20.713  11.958  0.4946 -0.2391  0.3229
 3917POPC   C3B84976  23.799  21.006  11.944 -0.0733 -0.3998  0.0392
 3917POPC   C4B84977  24.281  21.118  11.901  0.2979 -0.2148  0.0013
 3918POPC   NC384978  17.930  28.936  16.036 -0.3530 -0.2597  0.1442
 3918POPC   PO484979  18.016  28.726  16.386  0.3758 -0.0070 -0.0016
 3918POPC   GL184980  17.953  28.440  16.709  0.0580  0.1352 -0.1514
 3918POPC   GL284981  17.725  28.302  16.745 -0.0008  0.0785 -0.0796
 3918POPC   C1A84982  18.049  28.491  17.194  0.1934 -0.0986  0.3867
 3918POPC   D2A84983  18.158  28.577  17.625  0.0984  0.0939  0.1059
 3918POPC   C3A84984  18.230  28.343  18.036  0.1087 -0.2058 -0.0587
 3918POPC   C4A84985  18.088  28.311  18.478  0.0686  0.2251  0.4157
 3918POPC   C1B84986  17.787  28.096  17.195 -0.1189  0.0690 -0.0497
 3918POPC   C2B84987  17.740  28.152  17.612 -0.0024 -0.3420 -0.2796
 3918POPC   C3B84988  17.740  28.196  18.063 -0.3962 -0.2144  0.2158
 3918POPC   C4B84989  17.496  28.243  18.439 -0.2838  0.1461  0.3252
 3919POPC   NC384990  18.029  24.752  16.121  0.0771  0.0719 -0.0847
 3919POPC   PO484991  18.394  24.723  16.197 -0.5344 -0.0175  0.0736
 3919POPC   GL184992  18.285  24.529  16.504 -0.2102 -0.1774 -0.0701
 3919POPC   GL284993  18.246  24.268  16.357  0.1796 -0.3009  0.0034
 3919POPC   C1A84994  17.832  24.613  16.640  0.3321 -0.0907  0.0115
 3919POPC   D2A84995  17.422  24.457  16.896 -0.0901  0.0617 -0.3631
 3919POPC   C3A84996  17.404  24.337  17.369 -0.1119 -0.1491  0.1752
 3919POPC   C4A84997  17.468  24.342  17.791  0.0763  0.2749  0.1671
 3919POPC   C1B84998  18.090  24.249  16.840 -0.3414 -0.3192 -0.2727
 3919POPC   C2B84999  18.113  24.283  17.278 -0.0626  0.2888  0.0448
 3919POPC   C3B85000  17.982  24.401  17.767  0.0491  0.0607 -0.2404
 3919POPC   C4B85001  17.814  24.609  18.144 -0.0034 -0.0946  0.2433
 3920POPC   NC385002  21.778  22.878  11.991 -0.2541  0.2356  0.0763
 3920POPC   PO485003  21.531  22.764  11.688  0.0183  0.0028 -0.0502
 3920POPC   GL185004  21.857  22.956  11.561  0.3572  0.0520  0.1127
 3920POPC   GL285005  21.865  22.796  11.267 -0.2899  0.0967 -0.2469
 3920POPC   C1A85006  22.282  22.834  11.449 -0.1688  0.0580  0.2039
 3920POPC   D2A85007  22.694  22.945  11.226  0.6181 -0.0927 -0.1677
 3920POPC   C3A85008  22.818  22.682  10.817 -0.0851  0.0299 -0.0177
 3920POPC   C4A85009  22.980  22.745  10.374 -0.1491 -0.2097  0.0232
 3920POPC   C1B85010  22.277  22.716  10.975  0.1588  0.1855 -0.1142
 3920POPC   C2B85011  22.364  22.580  10.548 -0.2823 -0.2510 -0.2540
 3920POPC   C3B85012  22.691  22.355  10.327  0.0519  0.2042  0.1151
 3920POPC   C4B85013  22.954  21.993  10.254 -0.0944  0.2041 -0.0722
 3921POPC   NC385014  25.736  26.775  10.748  0.0545 -0.1651  0.0758
 3921POPC   PO485015  25.805  27.155  10.537 -0.1204 -0.1667  0.1498
 3921POPC   GL185016  25.615  26.912  10.294 -0.3691 -0.0560  0.1146
 3921POPC   GL285017  25.782  26.964  10.020 -0.2116  0.2649  0.0090
 3921POPC   C1A85018  25.892  26.534  10.151 -0.0295 -0.0022  0.0141
 3921POPC   D2A85019  26.334  26.328  10.097 -0.2629 -0.1616 -0.0108
 3921POPC   C3A85020  26.489  26.137   9.740  0.2564 -0.0061 -0.2226
 3921POPC   C4A85021  26.769  25.817   9.669  0.0135  0.1715 -0.0404
 3921POPC   C1B85022  25.810  26.746   9.641 -0.1974  0.2031 -0.5331
 3921POPC   C2B85023  25.734  26.571   9.220 -0.1516  0.2389 -0.1388
 3921POPC   C3B85024  25.506  26.332   8.862 -0.2250  0.1603  0.2933
 3921POPC   C4B85025  25.284  26.160   8.494  0.0130 -0.2129  0.0366
 3922POPC   NC385026  27.938  27.168  15.596 -0.1631 -0.0158  0.3475
 3922POPC   PO485027  27.597  27.301  15.670  0.1183  0.1680  0.1439
 3922POPC   GL185028  27.435  26.938  15.715  0.0338  0.1706  0.2233
 3922POPC   GL285029  27.721  26.733  15.746  0.0027 -0.0470  0.0196
 3922POPC   C1A85030  27.212  26.652  16.013 -0.0582 -0.3120 -0.2722
 3922POPC   D2A85031  26.915  26.299  16.019  0.1930  0.0997 -0.2964
 3922POPC   C3A85032  27.276  26.114  16.229 -0.1825  0.1588 -0.2645
 3922POPC   C4A85033  27.496  25.773  16.446  0.2049 -0.2275  0.1604
 3922POPC   C1B85034  27.733  26.726  16.241 -0.0952  0.0309  0.0300
 3922POPC   C2B85035  27.632  26.774  16.666 -0.3267 -0.1683 -0.1344
 3922POPC   C3B85036  27.572  26.672  17.160  0.2670  0.4093 -0.1832
 3922POPC   C4B85037  27.493  26.364  17.510  0.1389 -0.0731  0.1254
 3923POPC   NC385038  26.539  27.067  14.951 -0.0392  0.0797  0.0787
 3923POPC   PO485039  26.895  26.949  15.083  0.2440 -0.0772  0.0488
 3923POPC   GL185040  26.799  26.663  15.037  0.3348  0.1818 -0.0518
 3923POPC   GL285041  26.712  26.582  14.742  0.1265 -0.0318 -0.4459
 3923POPC   C1A85042  26.404  26.435  15.169 -0.0540 -0.4100  0.1870
 3923POPC   D2A85043  26.245  26.249  15.574 -0.2602 -0.0755 -0.1401
 3923POPC   C3A85044  26.416  25.970  15.879  0.1089  0.2721  0.0624
 3923POPC   C4A85045  26.796  25.826  16.125 -0.0360  0.2668 -0.0652
 3923POPC   C1B85046  26.584  26.168  14.592 -0.1271 -0.1978  0.2141
 3923POPC   C2B85047  26.666  25.783  14.818 -0.0584  0.0389 -0.2945
 3923POPC   C3B85048  26.722  25.450  15.144 -0.3708  0.0980  0.4687
 3923POPC   C4B85049  26.863  24.982  15.246  0.0791  0.2206  0.0936
 3924POPC   NC385050  21.111  20.233  14.523 -0.0449 -0.2212 -0.1322
 3924POPC   PO485051  21.223  20.472  14.242  0.1795 -0.1808  0.1253
 3924POPC   GL185052  21.433  20.548  14.508 -0.0411 -0.1471 -0.3593
 3924POPC   GL285053  21.379  20.522  14.825  0.3534  0.1707  0.2411
 3924POPC   C1A85054  21.883  20.578  14.610 -0.1626  0.1473  0.1065
 3924POPC   D2A85055  22.260  20.303  14.732 -0.1091 -0.0008  0.0460
 3924POPC   C3A85056  22.556  20.444  15.024 -0.0336  0.2122 -0.0703
 3924POPC   C4A85057  22.516  20.758  15.357  0.0445  0.1611 -0.3361
 3924POPC   C1B85058  21.771  20.351  15.019 -0.2253  0.4880 -0.1740
 3924POPC   C2B85059  22.066  20.133  15.308  0.0696 -0.2828  0.0527
 3924POPC   C3B85060  22.263  20.170  15.690  0.0768 -0.0104  0.1393
 3924POPC   C4B85061  22.534  20.202  16.052 -0.0417  0.2703  0.0464
 3925POPC   NC385062  24.359  30.698  15.638  0.0171 -0.0041 -0.0159
 3925POPC   PO485063  24.232  31.022  15.470 -0.3422  0.1198  0.0540
 3925POPC   GL185064  24.162  31.163  15.828  0.3346 -0.0564  0.2610
 3925POPC   GL285065  24.380  31.061  16.052  0.2182 -0.0427  0.2708
 3925POPC   C1A85066  23.856  31.115  16.180 -0.0055  0.2917 -0.1014
 3925POPC   D2A85067  23.490  31.166  16.463 -0.0517 -0.4091 -0.0144
 3925POPC   C3A85068  23.598  31.501  16.838 -0.3489 -0.0695  0.0319
 3925POPC   C4A85069  23.400  31.438  17.265 -0.0637 -0.0832  0.4818
 3925POPC   C1B85070  24.473  31.475  16.176 -0.3451  0.2000 -0.2198
 3925POPC   C2B85071  24.620  31.743  16.489  0.2258  0.3208 -0.1114
 3925POPC   C3B85072  24.617  31.919  16.949 -0.2392 -0.2296  0.1445
 3925POPC   C4B85073  24.940  31.774  17.280  0.4514 -0.2813  0.1263
 3926POPC   NC385074  23.040  26.070  15.301 -0.1150  0.2590 -0.1378
 3926POPC   PO485075  23.162  26.047  14.933 -0.0390 -0.2406 -0.2037
 3926POPC   GL185076  23.416  25.798  15.134 -0.0722 -0.1285 -0.0788
 3926POPC   GL285077  23.686  25.744  15.242  0.0986  0.2582  0.2351
 3926POPC   C1A85078  23.470  25.363  14.998  0.2582 -0.0608 -0.3219
 3926POPC   D2A85079  23.407  24.924  14.799 -0.2838 -0.3625  0.0929
 3926POPC   C3A85080  23.698  24.574  14.754 -0.2648  0.0500  0.1916
 3926POPC   C4A85081  24.137  24.408  14.631 -0.2349 -0.1801 -0.0421
 3926POPC   C1B85082  24.031  25.467  15.455 -0.1248 -0.2882  0.1076
 3926POPC   C2B85083  24.407  25.415  15.754 -0.0979 -0.1106  0.0736
 3926POPC   C3B85084  24.725  25.247  16.081  0.0657  0.1567 -0.1251
 3926POPC   C4B85085  24.696  25.307  16.541 -0.0684 -0.2620  0.1882
 3927POPC   NC385086  17.282  29.400  16.239 -0.1006 -0.0354  0.1057
 3927POPC   PO485087  17.607  29.513  16.425  0.0081 -0.0784 -0.3199
 3927POPC   GL185088  17.685  29.761  16.743  0.0088 -0.0726 -0.0557
 3927POPC   GL285089  17.480  29.930  16.868 -0.1932 -0.2065 -0.1518
 3927POPC   C1A85090  17.842  29.794  17.198  0.1290  0.0628 -0.3046
 3927POPC   D2A85091  17.598  29.775  17.575  0.2397 -0.0549 -0.0784
 3927POPC   C3A85092  17.741  29.630  17.956  0.1041  0.0321  0.3078
 3927POPC   C4A85093  17.716  29.568  18.433 -0.2812  0.0162 -0.1588
 3927POPC   C1B85094  17.252  29.929  17.265  0.1499 -0.4087 -0.0525
 3927POPC   C2B85095  17.072  29.719  17.697 -0.2187  0.2818 -0.1122
 3927POPC   C3B85096  17.258  29.545  18.099 -0.0857 -0.2105 -0.0817
 3927POPC   C4B85097  17.203  29.538  18.569 -0.1622 -0.2298  0.0886
 3928POPC   NC385098  27.990  30.540  15.852 -0.0158 -0.0636 -0.0656
 3928POPC   PO485099  28.113  30.899  15.989 -0.1696 -0.1981  0.1951
 3928POPC   GL185100  27.797  31.172  16.145  0.0755 -0.1800  0.1443
 3928POPC   GL285101  28.060  31.252  16.363 -0.2863 -0.1751 -0.0825
 3928POPC   C1A85102  27.668  31.102  16.565 -0.2193 -0.3993  0.2297
 3928POPC   D2A85103  27.551  31.075  17.060 -0.2980 -0.3055 -0.0306
 3928POPC   C3A85104  27.783  30.775  17.355  0.0750 -0.0312  0.1035
 3928POPC   C4A85105  28.014  30.660  17.768  0.0224 -0.1774  0.0535
 3928POPC   C1B85106  28.092  31.464  16.788  0.4043 -0.0341 -0.0202
 3928POPC   C2B85107  27.978  31.845  17.030 -0.0057 -0.2490  0.1703
 3928POPC   C3B85108  27.614  32.098  17.152  0.1641  0.2221  0.0703
 3928POPC   C4B85109  27.411  32.380  17.498  0.2064 -0.2027  0.1720
 3929POPC   NC385110  28.800  16.581  15.173 -0.0803 -0.1216 -0.1189
 3929POPC   PO485111  28.935  16.255  15.347 -0.0282 -0.0835  0.2994
 3929POPC   GL185112  28.800  16.465  15.640  0.0744 -0.4108  0.0282
 3929POPC   GL285113  28.900  16.501  15.945 -0.1900  0.3522  0.1585
 3929POPC   C1A85114  28.457  16.635  15.874  0.2138  0.2043 -0.1827
 3929POPC   D2A85115  28.185  16.924  16.101 -0.0280  0.2709 -0.2863
 3929POPC   C3A85116  28.280  16.941  16.560  0.2431 -0.3146 -0.0789
 3929POPC   C4A85117  28.490  17.005  16.998 -0.0297  0.3667  0.1259
 3929POPC   C1B85118  29.080  16.773  16.301  0.1279 -0.1602  0.0932
 3929POPC   C2B85119  29.279  17.164  16.501 -0.1719 -0.0775 -0.0723
 3929POPC   C3B85120  29.415  17.330  16.892 -0.3891 -0.0278 -0.1359
 3929POPC   C4B85121  29.241  17.554  17.278 -0.1717 -0.0739 -0.2943
 3930POPC   NC385122  22.110  28.532  16.367 -0.1865 -0.0457 -0.2008
 3930POPC   PO485123  22.500  28.623  16.462  0.0529  0.3263 -0.0904
 3930POPC   GL185124  22.474  28.501  16.909  0.0341 -0.4511  0.1244
 3930POPC   GL285125  22.410  28.802  16.985 -0.1078 -0.0529  0.1362
 3930POPC   C1A85126  22.797  28.482  17.282  0.4107 -0.1164  0.1833
 3930POPC   D2A85127  23.041  28.575  17.666  0.1067  0.0097  0.0631
 3930POPC   C3A85128  23.027  28.809  18.076  0.2039  0.1247 -0.2130
 3930POPC   C4A85129  23.044  29.249  18.090  0.0428  0.2005  0.1325
 3930POPC   C1B85130  22.171  28.934  17.363  0.0202 -0.1031  0.1148
 3930POPC   C2B85131  22.216  29.052  17.846 -0.2375 -0.0882 -0.1474
 3930POPC   C3B85132  22.555  29.009  18.163  0.1008  0.1137  0.2149
 3930POPC   C4B85133  22.710  28.668  18.425 -0.1409  0.0306 -0.1768
 3931POPC   NC385134  31.099  31.108  16.385  0.0053 -0.0804  0.0683
 3931POPC   PO485135  31.294  31.455  16.445  0.1417 -0.1417 -0.0844
 3931POPC   GL185136  31.127  31.370  16.824 -0.1490  0.0869  0.2357
 3931POPC   GL285137  30.929  31.472  16.878 -0.1393 -0.2750  0.2006
 3931POPC   C1A85138  31.326  31.163  17.195  0.0630 -0.0544  0.1319
 3931POPC   D2A85139  31.591  31.163  17.548  0.2687 -0.0506 -0.0512
 3931POPC   C3A85140  31.686  31.395  17.909 -0.4048  0.2749 -0.0669
 3931POPC   C4A85141  31.727  31.667  18.276  0.1640 -0.0122 -0.1089
 3931POPC   C1B85142  30.951  31.477  17.343 -0.1342  0.2077  0.0541
 3931POPC   C2B85143  31.099  31.203  17.690 -0.0548 -0.1433  0.1212
 3931POPC   C3B85144  30.944  31.119  18.141  0.1196  0.0827  0.2083
 3931POPC   C4B85145  31.103  30.774  18.366 -0.1995  0.3557  0.1622
 3932POPC   NC385146  22.384  25.820  13.829  0.1704 -0.1347 -0.0072
 3932POPC   PO485147  22.450  25.657  13.454 -0.1100 -0.3063  0.0291
 3932POPC   GL185148  22.632  25.418  13.303  0.0342  0.0328  0.1284
 3932POPC   GL285149  22.911  25.227  13.344 -0.1829  0.1634 -0.2087
 3932POPC   C1A85150  22.781  25.432  12.857 -0.0093  0.0186 -0.1176
 3932POPC   D2A85151  23.077  25.362  12.536 -0.1285 -0.0836  0.0067
 3932POPC   C3A85152  23.220  24.917  12.496  0.1562  0.0307 -0.1508
 3932POPC   C4A85153  23.152  24.542  12.262 -0.6441 -0.3427  0.1686
 3932POPC   C1B85154  23.065  25.013  13.785 -0.2037 -0.2937  0.3083
 3932POPC   C2B85155  23.333  24.605  13.699  0.1112 -0.0739 -0.2971
 3932POPC   C3B85156  23.791  24.578  13.686 -0.0434  0.2497  0.0867
 3932POPC   C4B85157  24.171  24.879  13.623  0.0039  0.0596  0.1948
 3933POPC   NC385158  21.625  29.666  16.535 -0.1241 -0.2223  0.2217
 3933POPC   PO485159  21.794  29.530  16.879  0.1018  0.1186 -0.0068
 3933POPC   GL185160  21.367  29.417  16.907 -0.0788 -0.0471  0.3674
 3933POPC   GL285161  21.382  29.255  17.116 -0.0285  0.0075  0.2061
 3933POPC   C1A85162  20.998  29.559  17.152 -0.0336 -0.0748  0.0511
 3933POPC   D2A85163  20.833  29.600  17.576  0.2169  0.1780  0.0289
 3933POPC   C3A85164  21.100  29.483  17.897 -0.2940 -0.1122  0.1937
 3933POPC   C4A85165  20.907  29.590  18.349  0.1481  0.4697  0.0012
 3933POPC   C1B85166  21.416  29.539  17.485  0.0109  0.0203 -0.3578
 3933POPC   C2B85167  21.546  29.663  17.911  0.0281  0.0511 -0.0804
 3933POPC   C3B85168  21.560  29.638  18.339  0.0955 -0.0579  0.1528
 3933POPC   C4B85169  21.710  29.375  18.733 -0.0160  0.0158 -0.1513
 3934POPC   NC385170  19.168  24.420  16.218 -0.1607 -0.0930 -0.0806
 3934POPC   PO485171  19.513  24.315  16.059  0.2450  0.2744 -0.0194
 3934POPC   GL185172  19.609  24.294  16.434  0.1444  0.0274 -0.1712
 3934POPC   GL285173  19.420  24.220  16.676  0.0866  0.2067 -0.1805
 3934POPC   C1A85174  19.841  24.127  16.823  0.3166  0.3472  0.0443
 3934POPC   D2A85175  20.184  23.996  17.107  0.2734  0.1420 -0.3251
 3934POPC   C3A85176  20.191  23.969  17.590  0.2750  0.0999 -0.0862
 3934POPC   C4A85177  19.977  24.187  17.930 -0.1196  0.3972 -0.0743
 3934POPC   C1B85178  19.429  24.384  17.137 -0.0979  0.2747  0.3493
 3934POPC   C2B85179  19.576  24.389  17.576  0.1048  0.0849 -0.0051
 3934POPC   C3B85180  19.823  24.650  17.847 -0.2956 -0.2400  0.0828
 3934POPC   C4B85181  19.995  24.940  18.094  0.3063 -0.1132 -0.0747
 3935POPC   NC385182  28.184  26.635  14.090  0.0849  0.2056  0.0824
 3935POPC   PO485183  28.125  26.570  14.449  0.0731  0.2171 -0.2438
 3935POPC   GL185184  28.184  26.185  14.355  0.2687  0.5028 -0.3320
 3935POPC   GL285185  28.420  26.063  14.217  0.1542 -0.1319  0.0451
 3935POPC   C1A85186  27.857  25.779  14.326  0.0450  0.1729  0.0696
 3935POPC   D2A85187  27.799  25.393  14.151 -0.1037  0.0123 -0.1496
 3935POPC   C3A85188  27.689  24.961  14.375 -0.1107  0.0706 -0.0642
 3935POPC   C4A85189  27.632  24.483  14.471  0.2735  0.1464 -0.1326
 3935POPC   C1B85190  28.304  25.580  14.193 -0.0544 -0.1748  0.0308
 3935POPC   C2B85191  28.315  25.141  14.326  0.0168 -0.0511  0.1180
 3935POPC   C3B85192  28.160  24.723  14.373 -0.0119  0.2976 -0.0321
 3935POPC   C4B85193  28.080  24.314  14.634 -0.0370 -0.1363  0.1316
 3936POPC   NC385194  17.305  21.535  15.372  0.1659  0.0304 -0.2805
 3936POPC   PO485195  17.681  21.431  15.458 -0.2368 -0.1736 -0.0206
 3936POPC   GL185196  17.822  21.486  15.911 -0.0726  0.1260  0.1151
 3936POPC   GL285197  17.621  21.395  15.978 -0.2709  0.1000  0.0130
 3936POPC   C1A85198  18.103  21.474  16.268 -0.0896 -0.0657 -0.0759
 3936POPC   D2A85199  18.224  21.102  16.507 -0.2180  0.2923  0.0205
 3936POPC   C3A85200  18.642  21.072  16.709 -0.0284  0.1432 -0.1441
 3936POPC   C4A85201  19.041  21.034  16.980 -0.0715 -0.2609 -0.1171
 3936POPC   C1B85202  17.554  21.449  16.419 -0.0460 -0.1852 -0.1753
 3936POPC   C2B85203  17.288  21.546  16.794  0.0559 -0.1916  0.0876
 3936POPC   C3B85204  17.318  21.893  17.088 -0.0708  0.1433 -0.5089
 3936POPC   C4B85205  17.618  21.865  17.456  0.2793  0.0200 -0.0816
 3937POPC   NC385206  32.173  25.511  15.933  0.0383  0.3707  0.1552
 3937POPC   PO485207  32.301  25.847  16.097 -0.0659 -0.0289 -0.2496
 3937POPC   GL185208  32.421  25.565  16.394 -0.0611  0.1592 -0.4141
 3937POPC   GL285209  32.210  25.598  16.593 -0.3435  0.1150  0.2175
 3937POPC   C1A85210  32.619  25.348  16.777 -0.0373 -0.0982  0.0473
 3937POPC   D2A85211  32.857  25.286  17.167  0.2208  0.0863 -0.2491
 3937POPC   C3A85212  32.453  25.307  17.365 -0.3492  0.2301 -0.2831
 3937POPC   C4A85213  32.084  25.455  17.596  0.0031 -0.0877  0.2980
 3937POPC   C1B85214  32.259  25.659  17.003 -0.0767  0.2060 -0.1651
 3937POPC   C2B85215  32.033  25.881  17.317 -0.0728  0.2690  0.2040
 3937POPC   C3B85216  31.651  25.808  17.524 -0.2253  0.3808  0.2085
 3937POPC   C4B85217  31.314  25.687  17.738  0.3418 -0.1047  0.1152
 3938POPC   NC385218  31.226  16.514  15.024 -0.0512  0.2014 -0.0165
 3938POPC   PO485219  31.172  16.693  15.376  0.0059 -0.4104  0.0700
 3938POPC   GL185220  31.041  16.902  15.724 -0.3277  0.0813  0.0056
 3938POPC   GL285221  31.278  17.124  15.802 -0.1889  0.2005 -0.0837
 3938POPC   C1A85222  30.630  16.994  15.873 -0.0368  0.1304  0.1343
 3938POPC   D2A85223  30.387  17.249  16.109  0.0584  0.1294 -0.2903
 3938POPC   C3A85224  30.142  17.507  16.378  0.1639  0.1350 -0.0678
 3938POPC   C4A85225  29.946  17.823  16.655  0.0324 -0.3240 -0.1141
 3938POPC   C1B85226  31.393  17.262  16.202  0.0066 -0.0493  0.0182
 3938POPC   C2B85227  31.069  17.566  16.426 -0.3088  0.0118 -0.1152
 3938POPC   C3B85228  30.894  17.568  16.876 -0.2094 -0.1634  0.2793
 3938POPC   C4B85229  30.555  17.405  17.212 -0.0538 -0.0957 -0.4995
 3939POPC   NC385230  19.300  26.969  16.515  0.0613 -0.2645 -0.0931
 3939POPC   PO485231  19.240  26.601  16.584 -0.2178 -0.1438 -0.2267
 3939POPC   GL185232  19.264  26.624  17.036  0.3285 -0.1222  0.2978
 3939POPC   GL285233  19.182  26.884  17.011  0.2170 -0.0804  0.2782
 3939POPC   C1A85234  19.187  26.516  17.501 -0.3674  0.1162  0.1748
 3939POPC   D2A85235  19.209  26.194  17.799  0.0247 -0.1299 -0.0651
 3939POPC   C3A85236  18.938  25.926  18.137 -0.3354 -0.0797  0.0490
 3939POPC   C4A85237  18.730  25.585  18.332 -0.0042  0.1673  0.2191
 3939POPC   C1B85238  19.187  27.065  17.447  0.3712  0.0402  0.3160
 3939POPC   C2B85239  19.126  27.158  17.887 -0.1356  0.1546  0.0988
 3939POPC   C3B85240  18.786  27.032  18.231  0.1795 -0.0733  0.3125
 3939POPC   C4B85241  18.499  27.090  18.528  0.0641  0.1040 -0.1639
 3940POPC   NC385242  28.198  28.758  15.882 -0.0720  0.0834  0.2367
 3940POPC   PO485243  28.246  29.176  15.998  0.1525  0.0251  0.0413
 3940POPC   GL185244  28.251  29.023  16.374  0.1456 -0.0542  0.2265
 3940POPC   GL285245  28.186  29.284  16.514 -0.0145 -0.4409  0.0268
 3940POPC   C1A85246  27.863  28.887  16.633  0.0995 -0.0842 -0.2625
 3940POPC   D2A85247  27.503  28.970  16.955  0.1956  0.1709 -0.0137
 3940POPC   C3A85248  27.425  28.992  17.377  0.2115  0.1108 -0.0102
 3940POPC   C4A85249  27.023  28.982  17.658  0.3477  0.0123  0.1351
 3940POPC   C1B85250  27.819  29.375  16.809  0.1048 -0.0701  0.0217
 3940POPC   C2B85251  27.735  29.348  17.300 -0.2629  0.0799  0.1270
 3940POPC   C3B85252  27.839  29.434  17.701  0.3543  0.1753  0.0111
 3940POPC   C4B85253  28.190  29.225  17.910 -0.0125 -0.0878 -0.1070
 3941POPC   NC385254  30.446  19.026  14.051 -0.0656  0.0711  0.2414
 3941POPC   PO485255  30.159  18.872  13.851 -0.0808  0.0734 -0.1156
 3941POPC   GL185256  29.973  19.142  13.822 -0.0712 -0.1106  0.0360
 3941POPC   GL285257  30.105  19.395  13.908 -0.1326 -0.1271 -0.0866
 3941POPC   C1A85258  29.643  19.258  14.106 -0.0336  0.3259  0.0311
 3941POPC   D2A85259  29.369  19.544  14.322  0.0393  0.2936 -0.1245
 3941POPC   C3A85260  29.366  19.616  14.789 -0.1220  0.0680 -0.1105
 3941POPC   C4A85261  29.689  19.865  15.001  0.0035 -0.1142  0.0109
 3941POPC   C1B85262  29.820  19.722  14.005  0.0588  0.2516 -0.1265
 3941POPC   C2B85263  29.547  20.082  13.925 -0.3921  0.2855 -0.0712
 3941POPC   C3B85264  29.267  20.455  13.928  0.0705  0.2600  0.2922
 3941POPC   C4B85265  28.936  20.820  13.977  0.0523 -0.0168 -0.0695
 3942POPC   NC385266  31.438  32.483  16.360  0.0012 -0.1637 -0.2383
 3942POPC   PO485267  31.249  32.348  16.106 -0.0231  0.0201 -0.0229
 3942POPC   GL185268  31.161  32.135  16.464 -0.0021  0.3890 -0.0747
 3942POPC   GL285269  31.302  31.900  16.652  0.0430  0.3520 -0.3204
 3942POPC   C1A85270  31.171  32.411  16.821  0.2783  0.0094  0.2496
 3942POPC   D2A85271  31.269  32.648  17.203 -0.1960 -0.1881 -0.0953
 3942POPC   C3A85272  31.204  32.981  17.511  0.1631  0.1949  0.0020
 3942POPC   C4A85273  31.049  33.179  17.944 -0.2792  0.3776 -0.1398
 3942POPC   C1B85274  31.006  31.920  17.066 -0.1098  0.2979  0.1531
 3942POPC   C2B85275  30.984  31.918  17.547  0.0697  0.2000  0.5231
 3942POPC   C3B85276  30.901  32.099  17.957 -0.1065 -0.1633  0.0079
 3942POPC   C4B85277  30.963  32.404  18.228 -0.0104 -0.2826 -0.1239
 3943POPC   NC385278  21.247  24.106  15.447  0.0655  0.0444 -0.0627
 3943POPC   PO485279  21.304  24.316  15.122 -0.1329 -0.0703 -0.2110
 3943POPC   GL185280  21.651  24.166  15.129 -0.5120  0.4755  0.1444
 3943POPC   GL285281  21.869  24.020  14.940 -0.0001 -0.0489  0.2735
 3943POPC   C1A85282  22.055  24.301  15.337  0.1154 -0.1916  0.2664
 3943POPC   D2A85283  22.457  24.327  15.624 -0.2431 -0.1430 -0.2545
 3943POPC   C3A85284  22.591  24.139  16.051  0.2157 -0.3087 -0.2054
 3943POPC   C4A85285  22.893  24.137  16.418 -0.2336 -0.1112  0.1711
 3943POPC   C1B85286  22.046  23.790  15.255  0.1245  0.1470  0.0026
 3943POPC   C2B85287  22.342  23.466  15.062 -0.1520 -0.2430 -0.1153
 3943POPC   C3B85288  22.635  23.260  15.384  0.0373 -0.0793 -0.2203
 3943POPC   C4B85289  22.656  22.942  15.786  0.1788 -0.1155 -0.0487
 3944POPC   NC385290  28.460  27.448  12.526  0.0125  0.0503 -0.0679
 3944POPC   PO485291  28.500  27.118  12.252  0.0111 -0.0853  0.3112
 3944POPC   GL185292  28.402  26.690  12.068  0.0294 -0.1171  0.3879
 3944POPC   GL285293  28.214  26.590  12.353  0.0288 -0.1805 -0.0598
 3944POPC   C1A85294  28.453  26.319  11.779 -0.0940 -0.0771 -0.0377
 3944POPC   D2A85295  28.605  26.067  11.431 -0.0081  0.1040 -0.0924
 3944POPC   C3A85296  29.069  26.067  11.351  0.0189 -0.1000 -0.2178
 3944POPC   C4A85297  29.532  25.918  11.263 -0.0546 -0.2274 -0.0586
 3944POPC   C1B85298  27.927  26.194  12.288 -0.0939  0.1496 -0.1849
 3944POPC   C2B85299  28.077  25.789  12.281 -0.0535 -0.0341 -0.1362
 3944POPC   C3B85300  28.262  25.332  12.236 -0.1557  0.0036  0.0778
 3944POPC   C4B85301  28.276  24.885  12.205 -0.3608 -0.0618 -0.0869
 3945POPC   NC385302  19.473  25.145  16.205 -0.2435 -0.3380  0.1285
 3945POPC   PO485303  19.485  24.752  16.345 -0.1603 -0.1103  0.1503
 3945POPC   GL185304  19.481  24.732  16.736 -0.1235 -0.3378 -0.2097
 3945POPC   GL285305  19.742  24.645  16.774  0.1799 -0.1818  0.2485
 3945POPC   C1A85306  19.553  24.951  17.176  0.2259  0.1435 -0.0458
 3945POPC   D2A85307  19.724  25.119  17.540  0.0648 -0.2360 -0.0231
 3945POPC   C3A85308  19.596  25.336  17.959 -0.0391  0.1222 -0.0353
 3945POPC   C4A85309  19.159  25.324  18.154  0.4202  0.1387 -0.5427
 3945POPC   C1B85310  19.965  24.555  17.098 -0.0480  0.1391  0.1328
 3945POPC   C2B85311  20.190  24.476  17.478 -0.1866  0.0122  0.2162
 3945POPC   C3B85312  20.339  24.506  17.901 -0.2068  0.1535 -0.1176
 3945POPC   C4B85313  20.264  24.388  18.373  0.0286 -0.3255 -0.0447
 3946POPC   NC385314  30.473  24.656  13.735  0.0796  0.1194  0.0796
 3946POPC   PO485315  30.416  24.801  13.373 -0.1710  0.0445 -0.1748
 3946POPC   GL185316  30.028  24.678  13.375  0.0380  0.3297  0.2411
 3946POPC   GL285317  29.886  24.621  13.685 -0.1716 -0.0260 -0.2735
 3946POPC   C1A85318  29.587  24.594  13.288 -0.4929  0.0100 -0.0930
 3946POPC   D2A85319  29.152  24.694  13.343  0.3758  0.2248  0.2729
 3946POPC   C3A85320  28.844  24.514  13.033  0.2929 -0.3570 -0.1202
 3946POPC   C4A85321  28.384  24.401  12.936 -0.0411 -0.3534 -0.0796
 3946POPC   C1B85322  29.463  24.632  13.780 -0.1694 -0.0836  0.0099
 3946POPC   C2B85323  29.044  24.821  13.842 -0.0037  0.1704  0.1116
 3946POPC   C3B85324  28.629  25.007  13.932 -0.5771 -0.0966  0.0054
 3946POPC   C4B85325  28.193  24.898  13.911 -0.1894 -0.1112 -0.1582
 3947POPC   NC385326  23.610  26.470  12.314 -0.3143  0.2049  0.1551
 3947POPC   PO485327  23.600  26.605  11.922  0.2219 -0.0389 -0.2205
 3947POPC   GL185328  23.678  26.229  11.823 -0.0324 -0.0095 -0.2285
 3947POPC   GL285329  23.689  26.060  12.029  0.0384  0.0259 -0.2526
 3947POPC   C1A85330  23.881  26.037  11.452  0.1241 -0.0494 -0.1252
 3947POPC   D2A85331  24.194  25.662  11.389 -0.1713  0.2952 -0.0465
 3947POPC   C3A85332  24.628  25.647  11.376 -0.0768  0.0497 -0.1004
 3947POPC   C4A85333  24.919  25.428  11.620  0.0918  0.0655  0.4502
 3947POPC   C1B85334  23.766  25.645  11.749 -0.2189 -0.3934  0.0091
 3947POPC   C2B85335  23.971  25.210  11.599 -0.1258 -0.1735 -0.1177
 3947POPC   C3B85336  23.943  24.760  11.611 -0.2881  0.0985  0.0697
 3947POPC   C4B85337  24.000  24.248  11.527 -0.1190 -0.0192 -0.5322
 3948POPC   NC385338  24.914  28.338  15.682  0.0790  0.0997  0.0249
 3948POPC   PO485339  25.252  28.453  15.909  0.0563  0.1973  0.0210
 3948POPC   GL185340  25.274  28.275  16.359 -0.3185  0.2962 -0.1946
 3948POPC   GL285341  25.608  28.224  16.517  0.2885 -0.0849  0.0078
 3948POPC   C1A85342  25.294  27.860  16.600 -0.1241 -0.1260 -0.0125
 3948POPC   D2A85343  25.095  27.585  16.955  0.1219 -0.2117 -0.3718
 3948POPC   C3A85344  25.160  27.373  17.332 -0.1332 -0.2758 -0.0743
 3948POPC   C4A85345  25.215  27.016  17.597  0.0411  0.1080  0.2216
 3948POPC   C1B85346  25.634  28.071  16.914 -0.0643 -0.0391 -0.2718
 3948POPC   C2B85347  25.956  28.130  17.237 -0.1795  0.2343 -0.1440
 3948POPC   C3B85348  26.158  28.132  17.695  0.2038  0.1369  0.0507
 3948POPC   C4B85349  26.567  28.227  17.833  0.2062 -0.0832  0.1032
 3949POPC   NC385350  23.709  30.194  16.286  0.0217 -0.1712 -0.0440
 3949POPC   PO485351  24.113  30.255  16.378 -0.0752  0.1874  0.1302
 3949POPC   GL185352  24.197  30.362  16.696  0.1815 -0.4103  0.0753
 3949POPC   GL285353  24.312  30.705  16.658  0.0169 -0.2902  0.0289
 3949POPC   C1A85354  23.968  30.425  17.053  0.2946  0.1226 -0.1809
 3949POPC   D2A85355  23.766  30.750  17.360  0.0002 -0.0401 -0.0156
 3949POPC   C3A85356  23.684  30.774  17.832 -0.1070  0.0532 -0.0600
 3949POPC   C4A85357  23.323  30.965  18.060 -0.2925  0.1317 -0.2697
 3949POPC   C1B85358  24.208  31.167  16.512 -0.0755  0.1314  0.0735
 3949POPC   C2B85359  24.273  31.483  16.870 -0.1778 -0.1312  0.4414
 3949POPC   C3B85360  24.506  31.498  17.309 -0.1208 -0.1136  0.0787
 3949POPC   C4B85361  24.670  31.335  17.682 -0.0085 -0.2602 -0.1070
 3950POPC   NC385362  24.302  26.547  14.386 -0.0992 -0.1566 -0.1488
 3950POPC   PO485363  23.909  26.625  14.484 -0.1352 -0.0541 -0.1342
 3950POPC   GL185364  23.883  26.301  14.362 -0.5366  0.0707 -0.3042
 3950POPC   GL285365  23.777  26.052  14.487 -0.0279 -0.4849  0.2755
 3950POPC   C1A85366  24.297  26.085  14.217  0.0264 -0.0220 -0.1569
 3950POPC   D2A85367  24.470  25.671  14.140  0.0351  0.1620  0.0481
 3950POPC   C3A85368  24.423  25.170  13.958 -0.5184 -0.5274 -0.3114
 3950POPC   C4A85369  24.750  24.814  14.161 -0.0536  0.0007  0.2048
 3950POPC   C1B85370  23.725  25.721  14.782  0.1689 -0.3098 -0.0708
 3950POPC   C2B85371  23.993  25.393  14.953  0.1960  0.0988 -0.0201
 3950POPC   C3B85372  24.259  25.109  15.205  0.0969  0.0156  0.0676
 3950POPC   C4B85373  24.560  24.901  15.532 -0.2793 -0.1349 -0.5519
 3951POPC   NC385374  20.690  30.615  16.708  0.1500 -0.0742  0.0810
 3951POPC   PO485375  20.385  30.877  16.660 -0.2630 -0.1066 -0.1430
 3951POPC   GL185376  20.137  30.917  16.991  0.1535  0.2430  0.1339
 3951POPC   GL285377  20.370  30.974  17.150  0.1162  0.0571  0.1028
 3951POPC   C1A85378  19.973  30.672  17.328  0.5861  0.0541 -0.0617
 3951POPC   D2A85379  19.862  30.626  17.758  0.1533 -0.2618  0.0123
 3951POPC   C3A85380  19.948  30.478  18.175 -0.1501  0.0082 -0.3905
 3951POPC   C4A85381  20.201  30.786  18.456 -0.1170  0.3325  0.0759
 3951POPC   C1B85382  20.249  31.353  17.407  0.3939 -0.0358  0.2645
 3951POPC   C2B85383  20.219  31.550  17.827 -0.1827 -0.0620  0.1304
 3951POPC   C3B85384  20.164  31.756  18.204 -0.0863 -0.0727  0.0268
 3951POPC   C4B85385  19.986  31.828  18.607 -0.1269  0.1948 -0.0354
 3952POPC   NC385386  26.580  31.222  15.272  0.5119  0.0135  0.0857
 3952POPC   PO485387  26.812  31.507  15.409 -0.0470 -0.2515 -0.0840
 3952POPC   GL185388  26.859  31.450  15.778  0.0551  0.0762 -0.0150
 3952POPC   GL285389  27.142  31.558  15.882 -0.0353 -0.0799  0.0384
 3952POPC   C1A85390  26.712  31.676  16.185  0.2488 -0.3233 -0.1978
 3952POPC   D2A85391  26.486  31.946  16.459 -0.1681 -0.0926  0.0409
 3952POPC   C3A85392  26.339  31.970  16.859 -0.1284  0.0839  0.0118
 3952POPC   C4A85393  26.335  32.035  17.337  0.3009  0.1105 -0.1070
 3952POPC   C1B85394  26.982  32.010  15.918  0.0994 -0.3666  0.0081
 3952POPC   C2B85395  26.927  32.496  16.015 -0.3008 -0.0215  0.2316
 3952POPC   C3B85396  26.724  32.845  16.240 -0.0418  0.1760 -0.1214
 3952POPC   C4B85397  26.599  33.293  16.354 -0.0110  0.0269  0.3196
 3953POPC   NC385398  29.400  30.199  15.978 -0.0020  0.0340  0.1444
 3953POPC   PO485399  28.997  30.223  15.955 -0.1202 -0.2313 -0.0876
 3953POPC   GL185400  28.906  30.325  16.350 -0.1485  0.1832 -0.0235
 3953POPC   GL285401  29.232  30.319  16.419  0.0769  0.0522 -0.1495
 3953POPC   C1A85402  28.717  30.627  16.633 -0.0347 -0.0095 -0.1198
 3953POPC   D2A85403  28.504  30.771  17.056 -0.0824 -0.0725 -0.1000
 3953POPC   C3A85404  28.657  30.586  17.460  0.4970  0.0002 -0.0283
 3953POPC   C4A85405  28.923  30.374  17.826 -0.0542 -0.1832 -0.3124
 3953POPC   C1B85406  29.213  30.407  16.880  0.1838 -0.0278 -0.0968
 3953POPC   C2B85407  29.175  30.658  17.233  0.2437  0.0099  0.1861
 3953POPC   C3B85408  29.075  30.799  17.665 -0.0354  0.2994  0.1545
 3953POPC   C4B85409  29.253  31.073  17.997 -0.0252  0.0123  0.0884
 3954POPC   NC385410  23.242  26.724  11.487 -0.0764  0.0859 -0.4162
 3954POPC   PO485411  23.319  26.916  11.168 -0.1170 -0.1157  0.1977
 3954POPC   GL185412  23.523  26.705  10.937 -0.4233 -0.1878  0.0568
 3954POPC   GL285413  23.780  26.593  10.853 -0.0884 -0.1968  0.4091
 3954POPC   C1A85414  23.406  26.428  10.554  0.0629  0.2814 -0.1367
 3954POPC   D2A85415  23.589  26.151  10.207  0.0187 -0.3160 -0.2795
 3954POPC   C3A85416  23.668  25.671  10.196 -0.0781 -0.0553  0.4547
 3954POPC   C4A85417  23.598  25.336   9.858  0.0979  0.0258 -0.3919
 3954POPC   C1B85418  23.861  26.166  10.603 -0.1576  0.3299 -0.3084
 3954POPC   C2B85419  24.096  25.745  10.486 -0.1507 -0.0438  0.2716
 3954POPC   C3B85420  23.983  25.312  10.294 -0.2680 -0.1606  0.0198
 3954POPC   C4B85421  24.134  24.847  10.196  0.1968 -0.0441 -0.1192
 3955POPC   NC385422  27.155  28.606  16.199  0.3547  0.2316 -0.1119
 3955POPC   PO485423  26.937  28.281  16.060  0.1734 -0.0584 -0.5345
 3955POPC   GL185424  26.633  28.156  16.322  0.1378  0.1608 -0.6504
 3955POPC   GL285425  26.674  28.393  16.515  0.2147  0.1227  0.0220
 3955POPC   C1A85426  26.317  28.050  16.656 -0.0768  0.1121  0.2514
 3955POPC   D2A85427  26.060  27.788  16.941 -0.1107  0.1003  0.0112
 3955POPC   C3A85428  26.116  27.690  17.400  0.5428 -0.1825  0.2313
 3955POPC   C4A85429  25.969  27.683  17.821  0.1781 -0.0903 -0.4610
 3955POPC   C1B85430  26.779  28.319  16.959  0.1871 -0.4764 -0.2611
 3955POPC   C2B85431  26.848  28.259  17.417 -0.0341 -0.3322 -0.0330
 3955POPC   C3B85432  27.031  28.052  17.805  0.1006  0.0226 -0.0902
 3955POPC   C4B85433  27.308  27.803  18.118  0.3972 -0.0014 -0.2857
 3956POPC   NC385434  21.251  22.665  14.093  0.1590  0.1519  0.2388
 3956POPC   PO485435  21.280  22.324  14.261 -0.2320  0.2243  0.0161
 3956POPC   GL185436  21.656  22.216  14.392  0.0964  0.0381 -0.0303
 3956POPC   GL285437  21.622  22.175  14.639 -0.0583  0.1100  0.0451
 3956POPC   C1A85438  21.996  22.394  14.188 -0.0514  0.0024  0.4872
 3956POPC   D2A85439  22.357  22.301  13.904 -0.5441  0.3392  0.0432
 3956POPC   C3A85440  22.764  22.105  14.004  0.1675 -0.0827 -0.0014
 3956POPC   C4A85441  22.992  22.336  14.314 -0.2247 -0.1629 -0.3052
 3956POPC   C1B85442  21.693  22.274  15.110 -0.0759 -0.1634  0.0105
 3956POPC   C2B85443  21.950  22.127  15.428 -0.2362  0.0553  0.1052
 3956POPC   C3B85444  22.115  22.211  15.842 -0.2162  0.1197 -0.0399
 3956POPC   C4B85445  22.272  22.250  16.298 -0.0095  0.3258 -0.1940
 3957POPC   NC385446  30.328  25.621  14.995  0.0711  0.2741 -0.0392
 3957POPC   PO485447  30.736  25.657  15.013 -0.1121 -0.0458  0.3518
 3957POPC   GL185448  30.697  25.754  15.338  0.5231 -0.1952 -0.0659
 3957POPC   GL285449  30.829  25.526  15.447 -0.0435  0.0290  0.0320
 3957POPC   C1A85450  30.389  25.886  15.657 -0.1804  0.0204 -0.2677
 3957POPC   D2A85451  30.277  26.033  16.086  0.4861  0.1558 -0.2201
 3957POPC   C3A85452  29.971  25.912  16.432 -0.3972  0.1459 -0.0102
 3957POPC   C4A85453  29.540  25.904  16.578 -0.2093  0.2809  0.2831
 3957POPC   C1B85454  30.683  25.501  15.901 -0.3366  0.1971 -0.1801
 3957POPC   C2B85455  30.280  25.504  16.037  0.0765  0.1096 -0.1424
 3957POPC   C3B85456  29.907  25.334  16.222  0.2578 -0.3499  0.0871
 3957POPC   C4B85457  29.507  25.113  16.340 -0.0713 -0.1341  0.0035
 3958POPC   NC385458  23.865  30.006  16.743  0.2442  0.0053 -0.0498
 3958POPC   PO485459  23.969  29.797  16.451 -0.1149  0.3430 -0.2060
 3958POPC   GL185460  24.141  29.540  16.744  0.0818  0.0389  0.0592
 3958POPC   GL285461  24.361  29.715  16.800  0.1636 -0.1859 -0.3271
 3958POPC   C1A85462  23.973  29.554  17.158 -0.1220 -0.0953  0.1639
 3958POPC   D2A85463  23.866  29.660  17.582  0.1308 -0.1512 -0.1643
 3958POPC   C3A85464  24.156  29.535  17.857  0.4992 -0.0787 -0.0892
 3958POPC   C4A85465  24.352  29.410  18.268 -0.1285 -0.0799  0.0319
 3958POPC   C1B85466  24.317  29.990  17.157  0.0280 -0.2991  0.1576
 3958POPC   C2B85467  24.012  30.130  17.489 -0.0777 -0.0708 -0.0748
 3958POPC   C3B85468  23.639  30.308  17.700  0.2390 -0.1237  0.0058
 3958POPC   C4B85469  23.181  30.294  17.900 -0.0644  0.0548 -0.1225
 3959POPC   NC385470  17.091  23.063  15.292  0.1199  0.0950 -0.2526
 3959POPC   PO485471  16.890  22.725  15.363 -0.0753  0.2193  0.0156
 3959POPC   GL185472  16.741  22.798  15.674 -0.2572  0.2937  0.2759
 3959POPC   GL285473  16.853  23.007  15.742  0.1662  0.0430  0.2955
 3959POPC   C1A85474  16.604  22.542  16.047  0.0514 -0.1808 -0.0829
 3959POPC   D2A85475  16.409  22.117  16.090 -0.1466  0.3212  0.1765
 3959POPC   C3A85476  16.643  21.890  16.338 -0.0649  0.1623 -0.1008
 3959POPC   C4A85477  16.764  21.466  16.425  0.3270 -0.1216 -0.2426
 3959POPC   C1B85478  16.818  22.967  16.243 -0.2462  0.1692 -0.1549
 3959POPC   C2B85479  16.883  22.945  16.739 -0.0610  0.1152 -0.1643
 3959POPC   C3B85480  16.995  22.864  17.167 -0.2222  0.0688  0.0865
 3959POPC   C4B85481  17.355  22.871  17.466 -0.1127 -0.1637 -0.0429
 3960POPC   NC385482  31.598  17.433  15.137  0.2518 -0.2588  0.0678
 3960POPC   PO485483  31.828  17.647  15.361  0.2203 -0.1778 -0.1247
 3960POPC   GL185484  31.575  17.711  15.648  0.1592  0.0230 -0.4265
 3960POPC   GL285485  31.375  17.893  15.550  0.4279 -0.3152 -0.3885
 3960POPC   C1A85486  31.423  17.759  16.087 -0.0843  0.0678 -0.1730
 3960POPC   D2A85487  31.312  18.041  16.436  0.0578 -0.3201 -0.1820
 3960POPC   C3A85488  30.916  18.044  16.597  0.2327 -0.1535  0.2493
 3960POPC   C4A85489  30.681  18.391  16.742 -0.2495  0.2201  0.0903
 3960POPC   C1B85490  31.108  17.557  15.655 -0.1321 -0.1019  0.0661
 3960POPC   C2B85491  30.875  17.415  16.036  0.0540  0.1910  0.1779
 3960POPC   C3B85492  30.617  17.720  16.307 -0.5115  0.1208  0.2733
 3960POPC   C4B85493  30.428  17.849  16.672  0.3329 -0.0205  0.0876
 3961POPC   NC385494  31.226  29.853  16.839  0.1796  0.0001 -0.0845
 3961POPC   PO485495  31.118  29.512  16.686 -0.0508 -0.0337  0.1308
 3961POPC   GL185496  31.162  29.250  17.098 -0.2967  0.1700 -0.2141
 3961POPC   GL285497  31.079  28.943  17.081 -0.2314  0.0054 -0.0734
 3961POPC   C1A85498  31.273  29.118  17.552 -0.0781 -0.1671 -0.0469
 3961POPC   D2A85499  31.310  29.141  18.027 -0.1686  0.0961  0.0579
 3961POPC   C3A85500  31.614  29.128  18.350  0.1698  0.2797  0.0242
 3961POPC   C4A85501  31.964  29.110  18.641  0.3258  0.1248  0.0702
 3961POPC   C1B85502  30.805  29.144  17.468  0.0043 -0.1842 -0.1021
 3961POPC   C2B85503  30.801  29.029  17.922  0.0654 -0.1184  0.2952
 3961POPC   C3B85504  31.012  28.789  18.291 -0.0048  0.1192  0.2599
 3961POPC   C4B85505  31.196  28.588  18.608  0.1345  0.4131 -0.0101
 3962POPC   NC385506  29.924  26.109  12.583 -0.0654 -0.0624  0.0762
 3962POPC   PO485507  30.217  26.099  12.874 -0.0052  0.0731  0.3660
 3962POPC   GL185508  29.928  25.856  13.067 -0.2879 -0.3703 -0.1074
 3962POPC   GL285509  29.609  25.920  13.090  0.2313 -0.3204  0.1906
 3962POPC   C1A85510  29.822  25.448  13.199 -0.1414  0.0167  0.3099
 3962POPC   D2A85511  29.773  25.071  13.397 -0.0950 -0.1947  0.0524
 3962POPC   C3A85512  29.378  25.128  13.608  0.2491  0.0113  0.0887
 3962POPC   C4A85513  29.052  25.364  13.843  0.0307  0.0733 -0.1324
 3962POPC   C1B85514  29.120  25.990  13.082  0.1212 -0.0014 -0.0672
 3962POPC   C2B85515  28.832  26.012  12.710 -0.1657 -0.5110  0.1010
 3962POPC   C3B85516  28.678  26.111  12.270 -0.1475 -0.1364 -0.0426
 3962POPC   C4B85517  28.471  25.829  11.937  0.2653  0.4886  0.1548
 3963POPC   NC385518  26.551  27.549  11.025  0.2412  0.3228  0.3204
 3963POPC   PO485519  26.486  27.575  10.648  0.1728 -0.1196 -0.0208
 3963POPC   GL185520  26.395  27.611  10.270  0.0081  0.1620  0.1058
 3963POPC   GL285521  26.177  27.383  10.215  0.1524  0.3982  0.1435
 3963POPC   C1A85522  26.512  27.594   9.820  0.0189  0.2254 -0.0191
 3963POPC   D2A85523  26.415  27.408   9.426  0.0782 -0.0664  0.2169
 3963POPC   C3A85524  26.401  26.984   9.328 -0.2717  0.0866  0.1528
 3963POPC   C4A85525  26.552  26.601   9.179  0.0546 -0.3733  0.1726
 3963POPC   C1B85526  26.403  26.966  10.352 -0.1264  0.2176 -0.1390
 3963POPC   C2B85527  26.476  26.544  10.520 -0.2066  0.0068 -0.4629
 3963POPC   C3B85528  26.407  26.100  10.648 -0.1985 -0.0912  0.0623
 3963POPC   C4B85529  26.583  25.838  10.345 -0.0223 -0.1364  0.0783
 3964POPC   NC385530  17.543  16.867  16.336  0.2880  0.4477  0.0384
 3964POPC   PO485531  17.410  17.166  16.216  0.1303 -0.0912 -0.0871
 3964POPC   GL185532  17.215  17.302  16.525 -0.2485  0.0170 -0.0272
 3964POPC   GL285533  17.255  17.025  16.732  0.0356 -0.4868 -0.1024
 3964POPC   C1A85534  16.832  17.389  16.773 -0.1907 -0.0701  0.0222
 3964POPC   D2A85535  16.411  17.435  16.962 -0.0830  0.1786 -0.0607
 3964POPC   C3A85536  16.345  17.463  17.422 -0.2382  0.2687  0.1866
 3964POPC   C4A85537  16.477  17.112  17.706  0.2103 -0.3411  0.0876
 3964POPC   C1B85538  17.369  17.054  17.205  0.1771 -0.0615 -0.0763
 3964POPC   C2B85539  17.576  17.199  17.590  0.1284 -0.0165  0.2471
 3964POPC   C3B85540  17.946  17.358  17.819 -0.0079  0.1682 -0.1468
 3964POPC   C4B85541  18.209  17.586  18.109  0.2878  0.3849 -0.1387
 3965POPC   NC385542  27.304  16.590  14.262  0.1080  0.0717 -0.1499
 3965POPC   PO485543  27.663  16.762  14.334  0.0383 -0.0075 -0.0363
 3965POPC   GL185544  27.812  16.846  14.699 -0.0875 -0.1047 -0.1284
 3965POPC   GL285545  27.632  16.971  14.766  0.0696 -0.0542 -0.2194
 3965POPC   C1A85546  27.940  16.857  15.141  0.2664 -0.1970  0.3122
 3965POPC   D2A85547  28.069  16.905  15.599  0.2452  0.0334 -0.2230
 3965POPC   C3A85548  27.820  17.317  15.651  0.0610  0.0513  0.0197
 3965POPC   C4A85549  27.706  17.695  15.961  0.0509  0.3199  0.1700
 3965POPC   C1B85550  27.428  16.948  15.209  0.2667  0.0507  0.0719
 3965POPC   C2B85551  27.329  17.266  15.528  0.0635 -0.0754  0.1887
 3965POPC   C3B85552  27.276  17.561  15.837  0.2352 -0.1768  0.1336
 3965POPC   C4B85553  27.348  17.655  16.333  0.3039  0.1848  0.0331
 3966POPC   NC385554  31.333  28.822  16.683  0.2252  0.3876 -0.1281
 3966POPC   PO485555  31.497  29.166  16.716  0.0529  0.0253  0.3275
 3966POPC   GL185556  31.548  29.056  17.078  0.2981  0.2201  0.0466
 3966POPC   GL285557  31.598  28.775  17.083 -0.1330  0.0899  0.0533
 3966POPC   C1A85558  31.951  29.163  17.251  0.1669  0.4616 -0.3338
 3966POPC   D2A85559  32.139  29.203  17.701  0.1906  0.3712 -0.1507
 3966POPC   C3A85560  32.545  29.083  17.781  0.1284 -0.2128 -0.0011
 3966POPC   C4A85561  32.791  28.868  18.101  0.1496 -0.0708 -0.0557
 3966POPC   C1B85562  31.707  28.877  17.556  0.3762 -0.0825  0.1200
 3966POPC   C2B85563  31.921  28.890  17.957  0.1757  0.0228  0.2438
 3966POPC   C3B85564  32.285  29.057  18.221 -0.0771 -0.1166 -0.3797
 3966POPC   C4B85565  32.574  29.028  18.582  0.0423  0.0091 -0.1268
 3967POPC   NC385566  31.049  25.110  14.387 -0.1544 -0.2905 -0.1268
 3967POPC   PO485567  30.981  24.801  14.624  0.1964 -0.1807  0.0638
 3967POPC   GL185568  30.617  24.833  14.761 -0.0241  0.2695 -0.2976
 3967POPC   GL285569  30.553  24.651  14.970  0.2273  0.1140 -0.0614
 3967POPC   C1A85570  30.520  25.098  15.163  0.3019  0.0275  0.1797
 3967POPC   D2A85571  30.368  25.336  15.538 -0.2705 -0.1819 -0.0020
 3967POPC   C3A85572  29.938  25.314  15.717 -0.1057 -0.0785 -0.1050
 3967POPC   C4A85573  29.487  25.192  15.644 -0.0426 -0.3344  0.2480
 3967POPC   C1B85574  30.385  24.366  14.631  0.4431 -0.2040  0.3553
 3967POPC   C2B85575  29.966  24.178  14.535  0.2856  0.1133  0.0460
 3967POPC   C3B85576  29.558  24.050  14.708  0.1610  0.0683  0.1299
 3967POPC   C4B85577  29.198  23.739  14.688 -0.1309 -0.0600  0.0495
 3968POPC   NC385578  31.543  24.839  15.439  0.0862 -0.0233  0.1103
 3968POPC   PO485579  31.456  24.469  15.328  0.0777 -0.1227  0.1879
 3968POPC   GL185580  31.194  24.398  15.547  0.0727 -0.1435  0.1095
 3968POPC   GL285581  31.142  24.145  15.504 -0.3528  0.0330  0.0225
 3968POPC   C1A85582  30.835  24.548  15.808 -0.1179  0.0724  0.0855
 3968POPC   D2A85583  30.642  24.770  16.106 -0.1101  0.0821  0.1219
 3968POPC   C3A85584  30.189  24.914  16.142 -0.2751  0.1346 -0.2389
 3968POPC   C4A85585  29.760  24.890  15.995 -0.4307 -0.0665 -0.1689
 3968POPC   C1B85586  30.891  24.038  15.914 -0.1391  0.3305 -0.0725
 3968POPC   C2B85587  30.633  24.262  16.184 -0.2280  0.1645 -0.0408
 3968POPC   C3B85588  30.207  24.388  16.258 -0.0292  0.0926  0.0108
 3968POPC   C4B85589  29.755  24.389  16.178  0.3294  0.1262 -0.1095
 3969POPC   NC385590  32.391  25.112  15.765 -0.0489 -0.0313  0.1931
 3969POPC   PO485591  32.613  25.281  16.065 -0.3108  0.0354  0.0886
 3969POPC   GL185592  32.347  25.115  16.327 -0.0874 -0.1301 -0.5525
 3969POPC   GL285593  32.103  25.111  16.322  0.0123  0.6143  0.2007
 3969POPC   C1A85594  32.250  25.021  16.784  0.0776  0.1808  0.0435
 3969POPC   D2A85595  31.982  24.721  17.072 -0.3921 -0.2722 -0.0529
 3969POPC   C3A85596  32.073  24.270  17.278 -0.1467 -0.1895  0.3309
 3969POPC   C4A85597  32.318  23.989  17.590  0.1372 -0.1555  0.0261
 3969POPC   C1B85598  31.774  25.005  16.711 -0.2262  0.2774 -0.1734
 3969POPC   C2B85599  31.358  25.104  16.843  0.0070  0.1887  0.1258
 3969POPC   C3B85600  31.108  25.265  17.234 -0.0895  0.0103  0.0239
 3969POPC   C4B85601  31.044  25.157  17.737  0.1202 -0.1351 -0.0058
 3970POPC   NC385602  30.047  29.708  16.012 -0.1244  0.2293 -0.3146
 3970POPC   PO485603  30.157  29.573  16.387 -0.1983 -0.0983  0.0965
 3970POPC   GL185604  29.942  29.429  16.804  0.1972 -0.2075  0.0834
 3970POPC   GL285605  30.153  29.277  16.899 -0.1325 -0.0189 -0.0756
 3970POPC   C1A85606  29.757  29.300  17.218  0.0326  0.2313  0.2400
 3970POPC   D2A85607  29.987  29.219  17.651 -0.1685  0.2106 -0.1941
 3970POPC   C3A85608  29.940  28.815  17.938 -0.4854 -0.0026 -0.0293
 3970POPC   C4A85609  30.018  28.444  18.244  0.1328 -0.0867  0.1612
 3970POPC   C1B85610  30.339  29.065  17.293 -0.0925 -0.1003 -0.2974
 3970POPC   C2B85611  30.402  28.797  17.658 -0.1814  0.1213  0.2062
 3970POPC   C3B85612  30.449  28.677  18.085  0.2231  0.1117  0.1878
 3970POPC   C4B85613  30.720  28.335  18.129 -0.3002  0.0961 -0.2542
 3971POPC   NC385614  29.235  17.536  14.460  0.2464 -0.0417 -0.1088
 3971POPC   PO485615  29.032  17.310  14.743  0.1685 -0.1690  0.0337
 3971POPC   GL185616  28.901  17.570  14.984  0.0556 -0.3648  0.0855
 3971POPC   GL285617  29.079  17.677  15.146  0.0534 -0.1000 -0.1057
 3971POPC   C1A85618  28.576  17.599  15.291 -0.2475 -0.0540 -0.2483
 3971POPC   D2A85619  28.545  17.904  15.551  0.0633 -0.1482 -0.2171
 3971POPC   C3A85620  28.306  18.143  15.829  0.0724 -0.0890  0.0765
 3971POPC   C4A85621  28.020  18.285  16.206 -0.1994  0.3316 -0.1055
 3971POPC   C1B85622  29.166  18.024  15.447 -0.3519 -0.0417  0.1639
 3971POPC   C2B85623  29.078  18.460  15.675 -0.1304  0.0762 -0.0151
 3971POPC   C3B85624  29.157  18.960  15.784 -0.4031 -0.2478  0.0627
 3971POPC   C4B85625  28.912  19.254  16.031 -0.0892 -0.1381  0.0700
 3972POPC   NC385626  25.981  31.530  15.358 -0.1973 -0.2831 -0.2222
 3972POPC   PO485627  25.624  31.398  15.419  0.0902 -0.3262 -0.0379
 3972POPC   GL185628  25.520  31.467  15.836 -0.3213 -0.1042 -0.0524
 3972POPC   GL285629  25.775  31.468  15.920 -0.2067 -0.0590 -0.0037
 3972POPC   C1A85630  25.409  31.883  16.039 -0.0408  0.0722 -0.1489
 3972POPC   D2A85631  25.495  32.299  16.239 -0.2348  0.2674 -0.1072
 3972POPC   C3A85632  25.452  32.760  16.373 -0.0253  0.1256  0.1903
 3972POPC   C4A85633  25.371  32.976  16.722  0.0334 -0.1361 -0.0326
 3972POPC   C1B85634  25.713  31.637  16.309  0.0716  0.1482 -0.4241
 3972POPC   C2B85635  25.643  31.763  16.757 -0.3358  0.4127  0.2656
 3972POPC   C3B85636  25.631  32.210  16.900 -0.0489  0.1419  0.4997
 3972POPC   C4B85637  25.666  32.617  17.008 -0.0424 -0.0790  0.0040
 3973POPC   NC385638  31.605  30.596  16.751  0.0376 -0.1448  0.0061
 3973POPC   PO485639  31.273  30.624  16.529 -0.0087 -0.1912 -0.1934
 3973POPC   GL185640  31.141  30.906  16.871  0.1456 -0.0772  0.1285
 3973POPC   GL285641  31.217  30.690  17.065 -0.1983  0.1493  0.0922
 3973POPC   C1A85642  30.847  31.016  17.226 -0.1653  0.3522 -0.4348
 3973POPC   D2A85643  30.701  30.916  17.723  0.0922  0.0747 -0.0771
 3973POPC   C3A85644  30.280  31.014  17.895 -0.1110  0.1048 -0.0014
 3973POPC   C4A85645  30.146  31.383  18.094  0.0962 -0.1554 -0.1743
 3973POPC   C1B85646  31.160  30.724  17.524 -0.3280 -0.0636  0.0867
 3973POPC   C2B85647  31.386  30.834  17.921 -0.3083  0.4171  0.1372
 3973POPC   C3B85648  31.464  31.127  18.281  0.0116 -0.1464  0.3587
 3973POPC   C4B85649  31.395  31.457  18.637 -0.1984 -0.2093 -0.2190
 3974POPC   NC385650  21.087  18.607  14.831 -0.0713  0.1523 -0.0479
 3974POPC   PO485651  21.295  18.848  14.607 -0.0959 -0.1719  0.1764
 3974POPC   GL185652  21.595  19.063  14.803 -0.1154  0.1796 -0.3222
 3974POPC   GL285653  21.535  19.030  15.120 -0.2298  0.0613 -0.1902
 3974POPC   C1A85654  22.020  18.940  14.913 -0.1397 -0.2121  0.1923
 3974POPC   D2A85655  22.216  19.073  15.355 -0.1423 -0.0101  0.1531
 3974POPC   C3A85656  22.610  19.148  15.521 -0.0666 -0.3169 -0.0531
 3974POPC   C4A85657  23.044  19.199  15.652  0.0575  0.2456 -0.0432
 3974POPC   C1B85658  21.863  18.713  15.351 -0.0702  0.0159  0.0633
 3974POPC   C2B85659  22.082  18.426  15.706  0.0265 -0.1661  0.0987
 3974POPC   C3B85660  22.194  18.380  16.124 -0.2002  0.1821 -0.3921
 3974POPC   C4B85661  22.415  18.326  16.561  0.2850 -0.2568  0.0982
 3975POPC   NC385662  28.774  15.634  15.928 -0.0377 -0.0878  0.0763
 3975POPC   PO485663  28.731  16.006  15.729 -0.0520 -0.1535  0.1380
 3975POPC   GL185664  28.512  16.238  15.975  0.2733  0.0976 -0.1976
 3975POPC   GL285665  28.289  16.183  15.818  0.0653  0.1802  0.0015
 3975POPC   C1A85666  28.589  16.576  16.304 -0.1559 -0.0809 -0.0580
 3975POPC   D2A85667  28.771  16.639  16.686  0.1357 -0.4398  0.4789
 3975POPC   C3A85668  28.695  16.435  17.074  0.0593  0.1771  0.2909
 3975POPC   C4A85669  28.917  16.354  17.441  0.0217 -0.1245  0.0538
 3975POPC   C1B85670  27.985  16.494  16.040  0.1487 -0.3539  0.2885
 3975POPC   C2B85671  27.964  16.583  16.489 -0.1454 -0.2981  0.1770
 3975POPC   C3B85672  28.002  16.665  16.943 -0.2101 -0.3039  0.2757
 3975POPC   C4B85673  28.084  16.859  17.306  0.1347 -0.1701  0.3787
 3976POPC   NC385674  30.298  16.723  15.548  0.1022  0.2776  0.0284
 3976POPC   PO485675  30.094  16.964  15.284  0.1234  0.2303  0.1995
 3976POPC   GL185676  29.812  17.245  15.381 -0.1995 -0.1666 -0.3724
 3976POPC   GL285677  29.907  17.495  15.305 -0.3615  0.0650 -0.0763
 3976POPC   C1A85678  29.564  17.450  15.682  0.0013 -0.2462  0.0951
 3976POPC   D2A85679  29.331  17.788  15.848  0.0791 -0.0553  0.3072
 3976POPC   C3A85680  29.231  18.053  16.172  0.0279 -0.2014 -0.0421
 3976POPC   C4A85681  29.078  18.226  16.528  0.3319  0.2120 -0.1159
 3976POPC   C1B85682  29.826  17.913  15.584  0.0236  0.1118 -0.1146
 3976POPC   C2B85683  29.543  18.201  15.759  0.1965 -0.1585 -0.0413
 3976POPC   C3B85684  29.338  18.504  16.106 -0.0336 -0.1606 -0.3252
 3976POPC   C4B85685  28.942  18.754  16.166  0.0481 -0.0574  0.0590
 3977POPC   NC385686  30.968  24.643  12.368 -0.0355 -0.0209 -0.0644
 3977POPC   PO485687  31.135  24.382  12.107  0.0554 -0.0526 -0.0541
 3977POPC   GL185688  30.760  24.227  12.048  0.1577 -0.0236 -0.0060
 3977POPC   GL285689  30.841  23.985  11.867  0.4717  0.0775 -0.1494
 3977POPC   C1A85690  30.335  23.999  12.054  0.0410 -0.0662  0.0228
 3977POPC   D2A85691  29.891  23.869  11.926  0.0883  0.0828  0.0878
 3977POPC   C3A85692  29.780  23.733  12.370  0.0594  0.2140 -0.1724
 3977POPC   C4A85693  29.346  23.797  12.533  0.0469 -0.0071 -0.2387
 3977POPC   C1B85694  30.482  23.961  11.550  0.1546  0.2842 -0.2841
 3977POPC   C2B85695  30.084  23.770  11.426  0.0003  0.1158  0.0611
 3977POPC   C3B85696  29.662  23.847  11.310  0.2669 -0.1184 -0.2476
 3977POPC   C4B85697  29.182  23.908  11.458  0.1402 -0.1829  0.0089
 3978POPC   NC385698  24.165  28.078   9.587  0.1921 -0.0289 -0.0045
 3978POPC   PO485699  23.790  28.215   9.561  0.3391  0.0656  0.1766
 3978POPC   GL185700  23.650  27.975   9.293 -0.1491 -0.0438  0.0254
 3978POPC   GL285701  23.734  27.698   9.395  0.0409  0.0743 -0.3903
 3978POPC   C1A85702  23.630  27.784   8.855 -0.2941  0.2027  0.0859
 3978POPC   D2A85703  23.576  27.461   8.626 -0.1554  0.0126 -0.0094
 3978POPC   C3A85704  23.692  27.467   8.185 -0.0904  0.2600 -0.0018
 3978POPC   C4A85705  24.028  27.437   7.855 -0.0025 -0.2772  0.2570
 3978POPC   C1B85706  23.988  27.511   9.088  0.1693  0.0163 -0.0430
 3978POPC   C2B85707  24.018  27.089   8.941 -0.2502  0.0952 -0.0828
 3978POPC   C3B85708  23.957  26.642   8.857 -0.1102  0.0274  0.0050
 3978POPC   C4B85709  24.185  26.222   8.779 -0.4148 -0.2916  0.2680
 3979POPC   NC385710  32.348  24.068  15.428  0.0956  0.0941  0.0238
 3979POPC   PO485711  32.086  23.829  15.489  0.2423 -0.1581  0.2783
 3979POPC   GL185712  31.952  23.749  15.823 -0.1885 -0.1276 -0.2279
 3979POPC   GL285713  31.693  23.593  15.927 -0.0193 -0.1643  0.2149
 3979POPC   C1A85714  31.829  24.007  16.224  0.2004 -0.1816  0.2689
 3979POPC   D2A85715  31.483  24.254  16.446  0.1478 -0.1051 -0.0111
 3979POPC   C3A85716  31.310  24.048  16.801 -0.3071  0.0651 -0.0249
 3979POPC   C4A85717  30.984  24.220  17.032  0.0854 -0.0380  0.3095
 3979POPC   C1B85718  31.436  23.173  15.879  0.1502 -0.2233 -0.2061
 3979POPC   C2B85719  31.244  22.908  16.184 -0.0380  0.0196 -0.0803
 3979POPC   C3B85720  31.098  22.447  16.184  0.0568  0.0340  0.1069
 3979POPC   C4B85721  30.954  22.054  16.466 -0.3188  0.1095 -0.1505
 3980POPC   NC385722  21.100  24.966  10.520  0.2105 -0.2299  0.4657
 3980POPC   PO485723  21.296  25.296  10.398 -0.0471 -0.1178  0.0862
 3980POPC   GL185724  21.546  25.371  10.059 -0.3085  0.1551 -0.3237
 3980POPC   GL285725  21.701  25.130   9.903 -0.0137 -0.0281  0.0156
 3980POPC   C1A85726  21.762  25.646   9.711  0.0910 -0.1303 -0.0986
 3980POPC   D2A85727  22.177  25.774   9.610 -0.3641  0.1225 -0.1316
 3980POPC   C3A85728  22.387  25.866   9.247 -0.2548 -0.0200 -0.1511
 3980POPC   C4A85729  22.595  25.594   8.942  0.1224 -0.0567  0.0071
 3980POPC   C1B85730  21.931  25.166   9.495 -0.1659 -0.1678 -0.0366
 3980POPC   C2B85731  22.341  25.357   9.363  0.1674 -0.0053 -0.0822
 3980POPC   C3B85732  22.791  25.318   9.370  0.1759  0.3170 -0.3613
 3980POPC   C4B85733  23.194  25.235   9.123 -0.2306 -0.1690  0.1306
 3981POPC   NC385734  19.894  23.147  16.003  0.0760 -0.0565  0.0201
 3981POPC   PO485735  19.654  23.473  15.987 -0.1372  0.1193  0.0253
 3981POPC   GL185736  19.554  23.520  16.453 -0.4909  0.2851  0.4158
 3981POPC   GL285737  19.772  23.674  16.578  0.0683  0.1090 -0.0022
 3981POPC   C1A85738  19.520  23.301  16.859  0.0993  0.1651 -0.1799
 3981POPC   D2A85739  19.581  23.169  17.315  0.3119 -0.1125  0.0314
 3981POPC   C3A85740  19.503  23.408  17.660  0.0461 -0.4962 -0.0154
 3981POPC   C4A85741  19.745  23.729  17.865  0.1640 -0.0651  0.1281
 3981POPC   C1B85742  19.851  23.631  17.014 -0.1102  0.0789  0.3357
 3981POPC   C2B85743  19.948  23.488  17.458 -0.2112 -0.0782 -0.0970
 3981POPC   C3B85744  20.009  23.186  17.839  0.0877  0.0086 -0.2429
 3981POPC   C4B85745  20.277  22.849  17.808  0.0515  0.1355 -0.2593
 3982POPC   NC385746  21.138  21.213  10.800 -0.3876  0.3526  0.0009
 3982POPC   PO485747  21.056  21.524  11.013  0.1342  0.0691 -0.1383
 3982POPC   GL185748  21.431  21.599  11.030 -0.0273 -0.3186 -0.2604
 3982POPC   GL285749  21.455  21.625  10.694 -0.2303  0.1896 -0.2796
 3982POPC   C1A85750  21.875  21.812  10.881 -0.2904  0.0298  0.1296
 3982POPC   D2A85751  22.286  21.874  10.854  0.0090  0.3212 -0.2787
 3982POPC   C3A85752  22.531  22.227  10.899 -0.2334 -0.2397 -0.2953
 3982POPC   C4A85753  22.605  22.428  11.325  0.3925 -0.0850 -0.0327
 3982POPC   C1B85754  21.581  21.992  10.569 -0.2069  0.3662 -0.1068
 3982POPC   C2B85755  21.715  22.375  10.343  0.0429 -0.2425  0.2033
 3982POPC   C3B85756  22.050  22.478  10.102  0.1383  0.0130  0.2007
 3982POPC   C4B85757  22.441  22.690   9.929 -0.1307  0.0989  0.0544
 3983POPC   NC385758  21.118  29.427  16.470  0.3132  0.1485 -0.1150
 3983POPC   PO485759  21.171  29.811  16.448 -0.1385  0.1274  0.3509
 3983POPC   GL185760  21.250  30.034  16.793 -0.1669  0.2243 -0.0556
 3983POPC   GL285761  21.344  29.863  16.960 -0.0892  0.1169 -0.1398
 3983POPC   C1A85762  20.868  30.106  17.037  0.1524 -0.2702 -0.3223
 3983POPC   D2A85763  20.722  30.124  17.470  0.1169  0.1052 -0.2079
 3983POPC   C3A85764  20.911  30.136  17.891 -0.0290  0.0129  0.0139
 3983POPC   C4A85765  21.104  30.026  18.267 -0.0366 -0.1331  0.3758
 3983POPC   C1B85766  21.416  30.067  17.334 -0.3315 -0.1754  0.0002
 3983POPC   C2B85767  21.395  30.224  17.797  0.1287 -0.1999  0.1399
 3983POPC   C3B85768  21.422  30.418  18.189 -0.0469  0.1105 -0.0090
 3983POPC   C4B85769  21.432  30.765  18.521 -0.0033  0.0155  0.0558
 3984POPC   NC385770  19.396  31.609  16.837 -0.0825  0.0424  0.0760
 3984POPC   PO485771  19.704  31.574  16.564  0.3185 -0.0147 -0.0005
 3984POPC   GL185772  19.809  31.904  16.763  0.3345 -0.0452 -0.0676
 3984POPC   GL285773  19.777  31.849  17.013  0.0029  0.0145 -0.1718
 3984POPC   C1A85774  20.265  31.888  16.957 -0.1658  0.2346 -0.0220
 3984POPC   D2A85775  20.344  31.852  17.400 -0.0109 -0.2547 -0.2304
 3984POPC   C3A85776  20.426  32.075  17.790  0.2366 -0.0562 -0.1585
 3984POPC   C4A85777  20.762  32.085  18.153 -0.2519  0.0299 -0.2113
 3984POPC   C1B85778  19.906  32.117  17.366  0.2309 -0.2000 -0.2684
 3984POPC   C2B85779  19.919  32.084  17.774  0.0755  0.1009 -0.1891
 3984POPC   C3B85780  19.754  32.071  18.196 -0.2207 -0.0230  0.1521
 3984POPC   C4B85781  19.809  32.309  18.582 -0.2711  0.1350 -0.1560
 3985POPC   NC385782  19.301  23.223   9.226  0.0597 -0.2194  0.1416
 3985POPC   PO485783  19.081  22.915   9.259  0.0444  0.1676  0.1163
 3985POPC   GL185784  19.003  22.705   8.939 -0.0850  0.0924  0.0330
 3985POPC   GL285785  19.243  22.677   8.841  0.0593 -0.0079  0.0706
 3985POPC   C1A85786  18.967  22.891   8.517  0.1718  0.0559  0.1279
 3985POPC   D2A85787  18.578  23.095   8.441 -0.2273 -0.0497 -0.0785
 3985POPC   C3A85788  18.432  23.133   8.027  0.2812 -0.2193 -0.1118
 3985POPC   C4A85789  18.364  23.314   7.617 -0.2992  0.0553  0.0411
 3985POPC   C1B85790  18.986  22.411   8.498  0.2232 -0.1721 -0.1013
 3985POPC   C2B85791  18.961  22.160   8.125  0.0489 -0.1074  0.0404
 3985POPC   C3B85792  18.752  22.400   7.784 -0.0887  0.0703  0.0936
 3985POPC   C4B85793  18.699  22.349   7.313  0.3326  0.3053 -0.0570
 3986POPC   NC385794  27.148  28.172  16.567 -0.1200 -0.2582 -0.1628
 3986POPC   PO485795  27.274  27.971  16.270 -0.1587 -0.0888  0.1486
 3986POPC   GL185796  27.217  27.641  16.576 -0.3530 -0.1113 -0.3123
 3986POPC   GL285797  27.385  27.728  16.847  0.3970 -0.0794 -0.5749
 3986POPC   C1A85798  26.989  27.371  16.911 -0.1840  0.0333 -0.1138
 3986POPC   D2A85799  26.590  27.465  17.080  0.2795  0.0550 -0.2431
 3986POPC   C3A85800  26.190  27.219  17.108 -0.1933  0.1366 -0.1927
 3986POPC   C4A85801  26.091  26.843  17.008 -0.0509 -0.4598  0.2341
 3986POPC   C1B85802  27.277  27.483  17.277 -0.0831 -0.2807 -0.0912
 3986POPC   C2B85803  26.975  27.555  17.634 -0.1191 -0.1950 -0.2011
 3986POPC   C3B85804  26.605  27.798  17.549  0.0121 -0.0553 -0.1893
 3986POPC   C4B85805  26.472  27.994  17.161  0.2831  0.0947 -0.0348
 3987POPC   NC385806  30.948  24.059  13.553 -0.1866  0.1034 -0.1339
 3987POPC   PO485807  30.793  24.280  13.867 -0.2668  0.0271 -0.1803
 3987POPC   GL185808  30.419  24.175  13.797  0.0233 -0.0915 -0.0367
 3987POPC   GL285809  30.394  23.910  13.700  0.1139  0.2242  0.0286
 3987POPC   C1A85810  30.053  24.179  13.456 -0.0780  0.1881 -0.1408
 3987POPC   D2A85811  29.599  24.135  13.443  0.0283 -0.2726  0.0620
 3987POPC   C3A85812  29.309  24.039  13.741 -0.1203  0.1359 -0.0867
 3987POPC   C4A85813  28.843  23.866  13.658 -0.0629 -0.0001  0.0235
 3987POPC   C1B85814  30.083  24.014  14.034 -0.1868 -0.1885 -0.0796
 3987POPC   C2B85815  29.648  24.239  14.080 -0.1566  0.1355  0.1014
 3987POPC   C3B85816  29.189  24.286  14.138 -0.0382  0.0695 -0.3907
 3987POPC   C4B85817  28.819  24.325  13.843  0.0730  0.3349 -0.0964
 3988POPC   NC385818  29.610  27.497   9.751  0.1135  0.0620  0.1638
 3988POPC   PO485819  29.967  27.554   9.608  0.1123 -0.0850  0.2797
 3988POPC   GL185820  29.936  27.236   9.315 -0.0213  0.2499  0.0329
 3988POPC   GL285821  29.654  27.052   9.383 -0.3171 -0.1531  0.1637
 3988POPC   C1A85822  29.852  27.171   8.890 -0.0100 -0.1816 -0.2648
 3988POPC   D2A85823  29.849  26.967   8.501 -0.3157  0.1812 -0.2691
 3988POPC   C3A85824  29.553  26.668   8.321 -0.4476  0.2500  0.1067
 3988POPC   C4A85825  29.231  26.357   8.270  0.1513 -0.1238  0.1309
 3988POPC   C1B85826  29.604  26.727   9.187  0.4557 -0.0420  0.1379
 3988POPC   C2B85827  29.593  26.451   8.792  0.0286 -0.1033 -0.0788
 3988POPC   C3B85828  29.548  26.127   8.566 -0.0892  0.0948  0.0615
 3988POPC   C4B85829  29.385  25.871   8.284  0.3635 -0.0760  0.0673
 3989POPC   NC385830  24.142  29.935  15.993 -0.1327  0.3207 -0.1993
 3989POPC   PO485831  24.488  29.973  16.140  0.0867  0.3248 -0.2001
 3989POPC   GL185832  24.566  30.113  16.537 -0.0009  0.0352  0.3211
 3989POPC   GL285833  24.703  30.285  16.534  0.2432  0.1896  0.1758
 3989POPC   C1A85834  24.838  29.960  16.856  0.0977 -0.0590 -0.0558
 3989POPC   D2A85835  24.787  29.976  17.275  0.1477  0.3911 -0.0643
 3989POPC   C3A85836  24.739  30.362  17.560 -0.0792 -0.1166  0.1880
 3989POPC   C4A85837  24.682  30.548  17.992 -0.0696 -0.1592  0.0508
 3989POPC   C1B85838  24.571  30.421  16.973 -0.2135 -0.1759  0.1196
 3989POPC   C2B85839  24.346  30.505  17.329 -0.2074  0.1375  0.0372
 3989POPC   C3B85840  24.245  30.636  17.796  0.1662  0.2963  0.2141
 3989POPC   C4B85841  24.446  30.990  17.986  0.0494  0.1188 -0.2074
 3990POPC   NC385842  29.951  15.919  16.047 -0.1830  0.2108 -0.0407
 3990POPC   PO485843  29.766  15.666  16.289  0.0247  0.2583 -0.1705
 3990POPC   GL185844  29.505  15.970  16.333 -0.1674 -0.0739 -0.3962
 3990POPC   GL285845  29.588  16.226  16.137  0.5712 -0.3559  0.0401
 3990POPC   C1A85846  29.770  16.206  16.655 -0.0950 -0.1357  0.0106
 3990POPC   D2A85847  29.972  16.617  16.773  0.0458 -0.1734 -0.1375
 3990POPC   C3A85848  29.988  16.581  17.245  0.0745 -0.2896 -0.1244
 3990POPC   C4A85849  30.012  16.806  17.658  0.2499  0.3834 -0.1507
 3990POPC   C1B85850  29.232  16.322  16.454  0.0086 -0.0219  0.1878
 3990POPC   C2B85851  28.855  16.172  16.693 -0.1935 -0.3560  0.2302
 3990POPC   C3B85852  28.616  15.881  16.862  0.0752 -0.0410  0.0038
 3990POPC   C4B85853  28.644  15.952  17.301  0.0924 -0.1758 -0.0492
 3991POPC   NC385854  20.796  15.747  16.441  0.2292  0.3374  0.2485
 3991POPC   PO485855  20.445  15.553  16.364 -0.2554  0.0939  0.4095
 3991POPC   GL185856  20.506  15.521  16.739 -0.1344 -0.1649  0.3597
 3991POPC   GL285857  20.298  15.423  16.823 -0.2329  0.3442 -0.1639
 3991POPC   C1A85858  20.427  15.769  17.137  0.1594  0.0360  0.2622
 3991POPC   D2A85859  20.282  15.746  17.576  0.2586  0.0130 -0.2648
 3991POPC   C3A85860  20.450  15.480  17.862  0.1948 -0.1019  0.0931
 3991POPC   C4A85861  20.843  15.353  18.134 -0.0146 -0.0980  0.0342
 3991POPC   C1B85862  20.074  15.394  17.241 -0.1323  0.3704  0.3539
 3991POPC   C2B85863  19.825  15.427  17.616 -0.0073 -0.0633  0.1692
 3991POPC   C3B85864  19.986  15.479  18.049 -0.3065 -0.2305 -0.0987
 3991POPC   C4B85865  20.247  15.538  18.401 -0.2197 -0.0450 -0.0918
 3992POPC   NC385866  31.247  23.607  14.364 -0.1606  0.3347  0.0646
 3992POPC   PO485867  31.083  23.220  14.303  0.1377 -0.4183  0.0376
 3992POPC   GL185868  30.695  23.048  14.155  0.0227 -0.0224  0.1514
 3992POPC   GL285869  30.715  22.762  14.005 -0.0696 -0.2358 -0.0996
 3992POPC   C1A85870  30.257  23.111  14.230 -0.0344  0.0870 -0.1489
 3992POPC   D2A85871  29.831  23.145  14.356 -0.0191 -0.1455 -0.1073
 3992POPC   C3A85872  29.578  22.968  14.043  0.1693  0.0134  0.1755
 3992POPC   C4A85873  29.190  23.043  13.766  0.0059  0.0938  0.3919
 3992POPC   C1B85874  30.293  22.598  14.103 -0.2855 -0.0357  0.1700
 3992POPC   C2B85875  29.856  22.570  13.936 -0.1830  0.2198  0.3842
 3992POPC   C3B85876  29.470  22.587  13.689 -0.0318  0.0448 -0.2172
 3992POPC   C4B85877  29.371  22.713  13.258  0.1068  0.1176 -0.1776
 3993POPC   NC385878   0.413  26.269   9.293  0.3033  0.3346 -0.6957
 3993POPC   PO485879   0.271  26.419   8.964  0.0256  0.3180 -0.1829
 3993POPC   GL185880   0.212  26.352   8.652 -0.0088 -0.2635 -0.4432
 3993POPC   GL285881   0.035  26.058   8.691 -0.1899 -0.0447 -0.0311
 3993POPC   C1A85882   0.339  26.578   8.286 -0.1351  0.2198 -0.0486
 3993POPC   D2A85883   0.306  26.657   7.832  0.2369  0.2022 -0.0403
 3993POPC   C3A85884   0.312  26.226   7.630 -0.0722  0.1530 -0.1694
 3993POPC   C4A85885  -0.133  26.068   7.473 -0.0883 -0.0369 -0.1220
 3993POPC   C1B85886  -0.137  26.329   8.349 -0.0576  0.0277  0.3849
 3993POPC   C2B85887  -0.141  26.416   7.896  0.2631 -0.1170 -0.3435
 3993POPC   C3B85888  -0.008  26.555   7.427 -0.0045 -0.0383 -0.0431
 3993POPC   C4B85889   0.076  26.211   7.072  0.2429  0.2158  0.1587
 3994POPC   NC385890  18.375  31.860  16.479 -0.5008 -0.1613  0.0742
 3994POPC   PO485891  17.984  31.992  16.430 -0.1631 -0.2264 -0.2107
 3994POPC   GL185892  18.074  31.964  16.809  0.1645  0.1426  0.1331
 3994POPC   GL285893  18.367  31.928  16.950  0.1557 -0.1161  0.0836
 3994POPC   C1A85894  18.010  31.614  17.220  0.3574 -0.3663 -0.0534
 3994POPC   D2A85895  18.033  31.193  17.373 -0.0721  0.0168  0.2592
 3994POPC   C3A85896  18.154  31.233  17.777  0.1452  0.1079  0.1301
 3994POPC   C4A85897  18.252  31.052  18.195  0.1788  0.3088  0.2749
 3994POPC   C1B85898  18.343  31.923  17.377 -0.1961  0.1861  0.1148
 3994POPC   C2B85899  18.265  31.709  17.791  0.0408  0.0958 -0.0956
 3994POPC   C3B85900  18.177  31.596  18.228 -0.0024 -0.2370 -0.3220
 3994POPC   C4B85901  17.811  31.401  18.213  0.1214 -0.1705  0.0629
 3995POPC   NC385902  30.665  25.925  12.738 -0.0514 -0.2027  0.2700
 3995POPC   PO485903  30.556  25.776  12.371 -0.0537  0.0613 -0.1858
 3995POPC   GL185904  30.238  25.821  12.489  0.0395  0.0480 -0.2002
 3995POPC   GL285905  30.014  25.710  12.259 -0.0108  0.1269 -0.1598
 3995POPC   C1A85906  29.921  25.580  12.715 -0.1928  0.0090 -0.1897
 3995POPC   D2A85907  29.494  25.537  12.832  0.1263  0.1102  0.0454
 3995POPC   C3A85908  29.234  25.261  12.547 -0.1338 -0.1520  0.1649
 3995POPC   C4A85909  29.193  24.898  12.341  0.2901  0.2975  0.0373
 3995POPC   C1B85910  30.142  25.337  12.073  0.1591 -0.1311  0.1060
 3995POPC   C2B85911  30.024  24.989  11.790  0.2120  0.0456  0.0132
 3995POPC   C3B85912  29.743  24.708  11.533  0.1963 -0.0497 -0.0191
 3995POPC   C4B85913  29.496  24.461  11.266 -0.3055  0.3743  0.1442
 3996POPC   NC385914  19.255  17.210  15.959  0.1878  0.2494 -0.0815
 3996POPC   PO485915  18.992  17.313  16.235 -0.1476  0.0481  0.0700
 3996POPC   GL185916  18.972  17.611  16.500  0.0302 -0.1186  0.3336
 3996POPC   GL285917  19.149  17.482  16.678 -0.4179 -0.2611 -0.0923
 3996POPC   C1A85918  18.725  17.861  16.812  0.1053  0.2784  0.2401
 3996POPC   D2A85919  18.390  18.141  16.962  0.3012  0.1279 -0.4457
 3996POPC   C3A85920  18.145  18.085  17.366 -0.0316  0.2028 -0.1852
 3996POPC   C4A85921  18.058  18.374  17.734  0.0130  0.1950 -0.1693
 3996POPC   C1B85922  19.231  17.740  17.073 -0.1128  0.3110 -0.2423
 3996POPC   C2B85923  19.355  17.801  17.529  0.1069 -0.2421  0.3555
 3996POPC   C3B85924  19.105  17.971  17.814 -0.4137 -0.1714 -0.0377
 3996POPC   C4B85925  19.056  18.252  18.183  0.0162  0.2362  0.0057
 3997POPC   NC385926  20.717  26.016  16.347  0.0832  0.2213 -0.1821
 3997POPC   PO485927  20.592  25.698  16.180  0.1728 -0.0554 -0.3910
 3997POPC   GL185928  20.648  25.591  16.610 -0.1313 -0.0640  0.0249
 3997POPC   GL285929  20.420  25.753  16.675  0.0717 -0.1442 -0.0147
 3997POPC   C1A85930  20.665  25.415  16.996  0.0333 -0.1445 -0.0697
 3997POPC   D2A85931  20.896  25.238  17.308 -0.3709  0.0311  0.1414
 3997POPC   C3A85932  20.939  25.384  17.752  0.0631  0.1431 -0.2107
 3997POPC   C4A85933  20.952  25.212  18.201  0.2062 -0.0883 -0.0160
 3997POPC   C1B85934  20.141  25.598  17.037 -0.2707  0.0085 -0.2553
 3997POPC   C2B85935  20.223  25.481  17.485  0.0403  0.1289 -0.0491
 3997POPC   C3B85936  20.088  25.401  17.950 -0.1018  0.1558  0.1220
 3997POPC   C4B85937  19.925  25.395  18.384  0.1032  0.1246 -0.2097
 3998POPC   NC385938  30.733  16.518  15.533 -0.2462 -0.0523 -0.1047
 3998POPC   PO485939  31.023  16.362  15.722  0.2725 -0.0063  0.1368
 3998POPC   GL185940  30.851  16.533  16.009  0.1288 -0.2313  0.0210
 3998POPC   GL285941  31.128  16.699  16.141  0.2617  0.2115 -0.1611
 3998POPC   C1A85942  30.535  16.669  16.266  0.0009  0.0436  0.1601
 3998POPC   D2A85943  30.473  16.752  16.700 -0.4118 -0.0373 -0.0380
 3998POPC   C3A85944  30.848  16.720  17.037 -0.1321 -0.0346 -0.2507
 3998POPC   C4A85945  31.143  16.926  17.333 -0.0261  0.2099  0.0853
 3998POPC   C1B85946  30.860  17.054  16.394 -0.1447  0.0083 -0.0084
 3998POPC   C2B85947  30.535  17.287  16.646 -0.0090 -0.0394 -0.0748
 3998POPC   C3B85948  30.223  17.074  16.989 -0.0524 -0.2986  0.0059
 3998POPC   C4B85949  29.774  17.061  17.139 -0.1062 -0.0292 -0.3596
 3999POPC   NC385950  22.806  18.799  14.083  0.2089  0.0251 -0.1501
 3999POPC   PO485951  22.699  18.716  13.681 -0.1754 -0.3603  0.1604
 3999POPC   GL185952  23.003  18.934  13.627  0.0519 -0.2615  0.0381
 3999POPC   GL285953  22.974  19.162  13.397 -0.1159 -0.0118  0.1435
 3999POPC   C1A85954  23.324  19.262  13.775 -0.0491 -0.1456  0.5046
 3999POPC   D2A85955  23.600  19.398  14.094  0.1231 -0.1042 -0.2033
 3999POPC   C3A85956  23.762  19.797  14.320 -0.1439  0.0560 -0.0412
 3999POPC   C4A85957  23.725  20.064  14.698  0.2382 -0.0773  0.4208
 3999POPC   C1B85958  23.354  19.440  13.255 -0.0339  0.0949  0.0826
 3999POPC   C2B85959  23.400  19.879  13.228  0.0407  0.1369  0.4738
 3999POPC   C3B85960  23.689  20.150  13.453 -0.2608 -0.0726  0.0148
 3999POPC   C4B85961  23.933  20.384  13.806  0.2153 -0.0410  0.1096
 4000POPC   NC385962  27.066  27.346  11.731  0.1236  0.0920 -0.0025
 4000POPC   PO485963  27.272  27.293  12.063  0.1743  0.1419  0.1344
 4000POPC   GL185964  27.431  27.025  12.250  0.2405 -0.4207 -0.1443
 4000POPC   GL285965  27.240  26.787  12.219 -0.2650  0.2127 -0.0062
 4000POPC   C1A85966  27.708  26.683  12.162  0.0091 -0.1656  0.2807
 4000POPC   D2A85967  27.969  26.497  11.877 -0.0623  0.2165  0.0142
 4000POPC   C3A85968  28.017  26.116  11.613  0.0024  0.1681 -0.3424
 4000POPC   C4A85969  28.189  25.734  11.448 -0.1206 -0.1044  0.0539
 4000POPC   C1B85970  27.345  26.346  12.348 -0.2699  0.1422  0.1888
 4000POPC   C2B85971  27.478  25.905  12.253 -0.1596 -0.2454  0.4435
 4000POPC   C3B85972  27.465  25.412  12.143 -0.1568  0.0161  0.0576
 4000POPC   C4B85973  27.624  24.966  12.229 -0.1708  0.1857  0.2310
 4001POPC   NC385974  22.501  27.092   9.735  0.1126 -0.3007 -0.2251
 4001POPC   PO485975  22.675  26.927  10.047  0.0344  0.0788 -0.0764
 4001POPC   GL185976  23.019  26.757   9.962 -0.3616 -0.0173 -0.0727
 4001POPC   GL285977  22.857  26.456   9.977  0.0133 -0.1836  0.0793
 4001POPC   C1A85978  23.354  26.910   9.640  0.1654  0.1986 -0.0291
 4001POPC   D2A85979  23.622  26.781   9.224  0.1920  0.0883  0.2520
 4001POPC   C3A85980  23.724  26.350   9.266  0.1278  0.2571 -0.0479
 4001POPC   C4A85981  23.838  25.963   9.089 -0.2608 -0.1536 -0.1642
 4001POPC   C1B85982  22.978  26.042   9.905  0.2410  0.1473  0.1914
 4001POPC   C2B85983  23.315  25.923   9.623 -0.0714 -0.1988 -0.2863
 4001POPC   C3B85984  23.523  25.590   9.438 -0.0849 -0.1873  0.1416
 4001POPC   C4B85985  23.650  25.476   8.975 -0.1718 -0.2246 -0.1370
 4002POPC   NC385986  28.633  27.793   9.623 -0.1820  0.0448 -0.3385
 4002POPC   PO485987  28.443  28.170   9.567  0.1016 -0.0597  0.2302
 4002POPC   GL185988  28.244  27.909   9.207 -0.5379  0.2474  0.1834
 4002POPC   GL285989  28.220  27.677   9.308  0.5321  0.1190 -0.0513
 4002POPC   C1A85990  27.999  27.759   8.846  0.0169  0.1891 -0.0856
 4002POPC   D2A85991  28.053  27.478   8.518 -0.0300 -0.2084  0.1830
 4002POPC   C3A85992  27.878  27.204   8.186 -0.3586  0.3149 -0.0692
 4002POPC   C4A85993  27.624  27.000   7.808 -0.0549  0.2182 -0.0228
 4002POPC   C1B85994  28.448  27.381   9.067  0.1511  0.3569 -0.0908
 4002POPC   C2B85995  28.638  26.951   9.027 -0.1312  0.0208  0.1958
 4002POPC   C3B85996  28.527  26.560   8.903  0.3507 -0.0448  0.1434
 4002POPC   C4B85997  28.281  26.380   8.531 -0.1475 -0.0955 -0.2011
 4003POPC   NC385998  28.549  27.585  11.817  0.3120 -0.0167 -0.1286
 4003POPC   PO485999  28.181  27.452  11.911 -0.1833 -0.1294  0.1557
 4003POPC   GL186000  28.368  27.158  11.587 -0.0655 -0.0871  0.2827
 4003POPC   GL286001  28.155  26.948  11.675  0.0287  0.1778 -0.1387
 4003POPC   C1A86002  28.246  26.995  11.178 -0.3273 -0.2488  0.0760
 4003POPC   D2A86003  27.935  26.809  10.903  0.2121  0.3520  0.0490
 4003POPC   C3A86004  27.815  26.400  10.770 -0.0715  0.1529  0.0658
 4003POPC   C4A86005  27.733  26.049  10.543 -0.1684  0.0624  0.0791
 4003POPC   C1B86006  27.848  26.842  11.407 -0.0489  0.0041 -0.0808
 4003POPC   C2B86007  27.716  26.460  11.312 -0.0888  0.0062 -0.1516
 4003POPC   C3B86008  27.712  26.058  11.157  0.0774 -0.2344  0.0150
 4003POPC   C4B86009  27.725  25.645  10.887  0.2329  0.0056 -0.1127
 4004POPC   NC386010  17.879  17.774  15.975  0.0541  0.0981  0.0652
 4004POPC   PO486011  17.831  17.412  16.116  0.1265 -0.1267 -0.2239
 4004POPC   GL186012  17.661  17.308  16.583 -0.0819  0.0488 -0.2051
 4004POPC   GL286013  17.854  17.084  16.684 -0.0131  0.0380  0.1208
 4004POPC   C1A86014  17.681  17.449  17.047 -0.1781  0.0818  0.4183
 4004POPC   D2A86015  17.943  17.645  17.376 -0.2885  0.0708 -0.0335
 4004POPC   C3A86016  17.953  17.920  17.835 -0.0342  0.0809 -0.0136
 4004POPC   C4A86017  18.131  18.064  18.207 -0.2686  0.2256 -0.1157
 4004POPC   C1B86018  17.996  16.856  17.085  0.3590 -0.3638 -0.0711
 4004POPC   C2B86019  18.033  16.693  17.476  0.0769  0.1149 -0.1618
 4004POPC   C3B86020  17.968  16.842  17.864 -0.1651  0.0906  0.1655
 4004POPC   C4B86021  17.611  16.787  18.186  0.0268 -0.1888 -0.2640
 4005POPC   NC386022  23.168  17.104  14.625  0.0246  0.0879 -0.0264
 4005POPC   PO486023  23.434  16.902  14.461 -0.1889  0.1420  0.1203
 4005POPC   GL186024  23.639  17.192  14.749  0.0492 -0.2459  0.0814
 4005POPC   GL286025  23.549  17.393  14.481  0.1297 -0.0930 -0.1550
 4005POPC   C1A86026  23.457  17.228  15.167 -0.1004  0.3293 -0.1348
 4005POPC   D2A86027  23.375  17.357  15.558 -0.1787  0.2405 -0.1223
 4005POPC   C3A86028  23.524  17.786  15.611 -0.0800  0.1502  0.0410
 4005POPC   C4A86029  23.676  18.131  15.915  0.1302 -0.1677 -0.1391
 4005POPC   C1B86030  23.665  17.633  14.870 -0.1715  0.0860 -0.2643
 4005POPC   C2B86031  23.956  18.023  14.859  0.1495 -0.2328  0.3074
 4005POPC   C3B86032  24.275  18.363  14.830  0.0366  0.1435  0.5001
 4005POPC   C4B86033  24.564  18.706  14.874  0.2675 -0.2524 -0.0146
 4006POPC   NC386034  31.744  23.421  15.450  0.1947 -0.0851 -0.3274
 4006POPC   PO486035  31.970  23.103  15.345 -0.1461 -0.0780 -0.0576
 4006POPC   GL186036  31.698  22.844  15.496  0.1906 -0.0575 -0.0770
 4006POPC   GL286037  31.427  22.985  15.367  0.0369  0.0916 -0.0329
 4006POPC   C1A86038  31.688  22.766  15.958 -0.0645 -0.0561 -0.1683
 4006POPC   D2A86039  31.647  22.747  16.436  0.0374  0.3398 -0.0989
 4006POPC   C3A86040  31.503  22.539  16.831 -0.1654  0.0810 -0.0890
 4006POPC   C4A86041  31.368  22.542  17.234 -0.2099  0.0962 -0.4773
 4006POPC   C1B86042  31.186  22.776  15.726 -0.2353  0.3811 -0.2744
 4006POPC   C2B86043  30.792  22.747  15.904 -0.1071  0.1182  0.1620
 4006POPC   C3B86044  30.342  22.847  16.026  0.0333  0.1740 -0.0154
 4006POPC   C4B86045  29.854  22.852  16.033 -0.0303  0.0193  0.1527
 4007POPC   NC386046  18.547  24.002  16.047  0.0200 -0.1525 -0.0570
 4007POPC   PO486047  18.694  24.362  16.137  0.2482 -0.1675  0.0617
 4007POPC   GL186048  18.792  24.550  16.522 -0.1935 -0.2110  0.0504
 4007POPC   GL286049  18.989  24.610  16.648  0.0407 -0.3254 -0.0472
 4007POPC   C1A86050  18.601  24.459  16.968 -0.1158  0.0022  0.3114
 4007POPC   D2A86051  18.690  24.402  17.422  0.0197 -0.1391 -0.0944
 4007POPC   C3A86052  18.545  24.182  17.877  0.4629  0.1632  0.2739
 4007POPC   C4A86053  18.694  24.279  18.285  0.0824 -0.0210 -0.1650
 4007POPC   C1B86054  19.043  24.680  17.112  0.3101  0.4064  0.0384
 4007POPC   C2B86055  19.232  24.774  17.513 -0.1125  0.1777  0.1163
 4007POPC   C3B86056  19.377  24.891  17.958 -0.0015 -0.1799 -0.0427
 4007POPC   C4B86057  19.527  25.027  18.366 -0.1814  0.0354 -0.1296
 4008POPC   NC386058  16.627  16.974  15.922 -0.0291 -0.1344 -0.0291
 4008POPC   PO486059  16.381  16.649  16.015 -0.1586  0.2533 -0.2442
 4008POPC   GL186060  16.635  16.799  16.386  0.1319  0.0744  0.1383
 4008POPC   GL286061  16.434  16.686  16.518  0.3833 -0.2369 -0.0023
 4008POPC   C1A86062  16.714  16.914  16.837 -0.1332  0.0833  0.2984
 4008POPC   D2A86063  16.722  17.167  17.270 -0.0318 -0.1181  0.1814
 4008POPC   C3A86064  17.047  17.176  17.606  0.0958 -0.4233 -0.1815
 4008POPC   C4A86065  17.256  16.977  17.947 -0.3032  0.1493  0.2533
 4008POPC   C1B86066  16.533  16.428  16.882  0.0642 -0.2742  0.1351
 4008POPC   C2B86067  16.538  16.546  17.338 -0.1199  0.0195 -0.2473
 4008POPC   C3B86068  16.421  16.558  17.781 -0.1649  0.0910 -0.1458
 4008POPC   C4B86069  16.217  16.496  18.217 -0.0654  0.3233 -0.2560
 4009POPC   NC386070  31.320  27.704  16.392  0.1808 -0.0455 -0.0546
 4009POPC   PO486071  31.693  27.811  16.336 -0.2008 -0.2966  0.1077
 4009POPC   GL186072  31.707  27.972  16.770 -0.2781 -0.1257  0.2131
 4009POPC   GL286073  31.464  27.877  16.884 -0.0800  0.2020 -0.0405
 4009POPC   C1A86074  31.917  27.989  17.152  0.0036 -0.0761 -0.0348
 4009POPC   D2A86075  31.820  27.939  17.605  0.1224  0.3190  0.1255
 4009POPC   C3A86076  31.438  28.132  17.804  0.0101 -0.0102  0.2288
 4009POPC   C4A86077  31.291  28.200  18.250  0.0060  0.0092 -0.0748
 4009POPC   C1B86078  31.517  27.637  17.234 -0.0503  0.0032 -0.1148
 4009POPC   C2B86079  31.666  27.389  17.592 -0.0147  0.1604  0.3200
 4009POPC   C3B86080  31.717  27.120  17.971 -0.0367 -0.0818  0.1442
 4009POPC   C4B86081  31.855  26.902  18.334  0.2841 -0.2387  0.4000
 4010POPC   NC386082  22.796  25.327  14.257  0.0991  0.2533 -0.1579
 4010POPC   PO486083  23.137  25.579  14.209 -0.1319  0.1054 -0.1357
 4010POPC   GL186084  23.417  25.381  14.334 -0.3052  0.0129 -0.0626
 4010POPC   GL286085  23.283  25.095  14.239 -0.0404  0.0385 -0.1787
 4010POPC   C1A86086  23.749  25.156  14.560 -0.1006 -0.1808 -0.0974
 4010POPC   D2A86087  24.099  24.926  14.732  0.1346 -0.2627 -0.2730
 4010POPC   C3A86088  24.523  24.926  14.606 -0.1022 -0.1985 -0.1322
 4010POPC   C4A86089  24.989  25.054  14.466 -0.1756  0.0224 -0.2392
 4010POPC   C1B86090  23.538  24.745  14.155 -0.1149  0.4407  0.0266
 4010POPC   C2B86091  23.906  24.491  14.197 -0.2611  0.0582 -0.3158
 4010POPC   C3B86092  24.342  24.372  14.081 -0.2318 -0.2365 -0.0524
 4010POPC   C4B86093  24.779  24.243  13.961 -0.1925 -0.2659 -0.0085
 4011POPC   NC386094  23.371  27.501  10.714  0.3816  0.0109  0.3959
 4011POPC   PO486095  23.415  27.098  10.700 -0.1683 -0.1322  0.0447
 4011POPC   GL186096  23.650  26.813  10.466 -0.3473  0.0682  0.1124
 4011POPC   GL286097  23.853  26.914  10.323 -0.2109  0.1352 -0.1758
 4011POPC   C1A86098  23.413  26.603  10.089  0.1811 -0.0775  0.2307
 4011POPC   D2A86099  23.318  26.410   9.657  0.1553 -0.2481  0.0574
 4011POPC   C3A86100  23.207  26.528   9.281  0.1997 -0.2058 -0.4036
 4011POPC   C4A86101  23.359  26.315   8.890  0.1421 -0.0171 -0.2327
 4011POPC   C1B86102  23.982  26.502  10.239  0.3095 -0.0200 -0.0548
 4011POPC   C2B86103  24.086  26.023  10.101  0.3414  0.0611  0.5250
 4011POPC   C3B86104  24.188  25.641   9.856  0.2302  0.2920 -0.3665
 4011POPC   C4B86105  24.155  25.177   9.853  0.2669  0.2616  0.0808
 4012POPC   NC386106  19.264  32.808  16.273 -0.1561 -0.0789  0.3612
 4012POPC   PO486107  18.977  32.740  16.500  0.1752  0.0669 -0.1018
 4012POPC   GL186108  19.210  32.872  16.757  0.1255 -0.0503 -0.2206
 4012POPC   GL286109  19.447  32.709  16.743  0.2257  0.3587 -0.2705
 4012POPC   C1A86110  18.995  33.122  17.121  0.0861 -0.4840 -0.1103
 4012POPC   D2A86111  18.801  33.298  17.533 -0.1196 -0.0940 -0.2401
 4012POPC   C3A86112  18.627  33.741  17.640  0.1111 -0.0151  0.1157
 4012POPC   C4A86113  18.688  34.186  17.636  0.3737 -0.0114  0.1254
 4012POPC   C1B86114  19.362  32.811  17.164  0.1730 -0.0582 -0.0222
 4012POPC   C2B86115  19.244  32.910  17.572 -0.2603 -0.1984 -0.2196
 4012POPC   C3B86116  19.348  32.945  18.032  0.0661  0.5200  0.0690
 4012POPC   C4B86117  19.195  32.888  18.456  0.0690  0.3108  0.0146
 4013POPC   NC386118  22.117  24.116  13.926  0.0242 -0.0948 -0.1192
 4013POPC   PO486119  21.931  24.017  14.295 -0.0663  0.0334  0.1205
 4013POPC   GL186120  22.077  23.936  14.572  0.0009 -0.1266  0.1705
 4013POPC   GL286121  22.276  23.679  14.575  0.1937 -0.1502  0.0689
 4013POPC   C1A86122  22.391  23.959  14.943  0.0230 -0.1540 -0.0937
 4013POPC   D2A86123  22.528  23.810  15.377 -0.0203  0.0715 -0.2912
 4013POPC   C3A86124  22.488  23.635  15.792  0.1524 -0.0403 -0.0988
 4013POPC   C4A86125  22.637  23.610  16.266  0.0443  0.2485  0.0636
 4013POPC   C1B86126  22.706  23.643  14.782 -0.1402  0.1032  0.1294
 4013POPC   C2B86127  22.908  23.566  15.171 -0.1176 -0.0939 -0.1612
 4013POPC   C3B86128  22.959  23.648  15.616  0.0464 -0.1906  0.0462
 4013POPC   C4B86129  23.054  24.001  15.970  0.2223  0.0408 -0.1772
 4014POPC   NC386130  30.649  29.442  16.441  0.0408  0.0364  0.1472
 4014POPC   PO486131  30.395  29.119  16.453 -0.1691 -0.1939  0.0943
 4014POPC   GL186132  30.578  29.108  16.853  0.0638  0.1360 -0.2712
 4014POPC   GL286133  30.705  29.365  16.948  0.2436  0.2106 -0.3057
 4014POPC   C1A86134  30.613  28.716  17.159 -0.1740 -0.0913 -0.0938
 4014POPC   D2A86135  30.849  28.635  17.569 -0.0358  0.0690  0.0838
 4014POPC   C3A86136  30.919  28.229  17.715  0.2941  0.2130  0.1457
 4014POPC   C4A86137  30.959  27.867  17.981 -0.0216 -0.0361  0.1042
 4014POPC   C1B86138  30.547  29.572  17.312 -0.2583  0.0060 -0.0560
 4014POPC   C2B86139  30.458  29.427  17.772 -0.0245 -0.0003 -0.1187
 4014POPC   C3B86140  30.244  29.257  18.103  0.0259 -0.1406  0.2462
 4014POPC   C4B86141  30.112  28.928  18.436  0.2536 -0.0402  0.3184
 4015POPC   NC386142  20.691  21.745  14.561  0.0041  0.1989 -0.0027
 4015POPC   PO486143  20.915  21.520  14.323  0.1378 -0.2279  0.3456
 4015POPC   GL186144  21.176  21.409  14.518 -0.3153 -0.2747 -0.0588
 4015POPC   GL286145  21.149  21.482  14.795 -0.1150 -0.2344 -0.2228
 4015POPC   C1A86146  21.507  21.083  14.401  0.0861 -0.1495  0.1208
 4015POPC   D2A86147  21.873  20.943  14.198  0.0056  0.0507 -0.0043
 4015POPC   C3A86148  22.281  20.888  14.447  0.2209 -0.2853 -0.0221
 4015POPC   C4A86149  22.737  20.759  14.614  0.0955  0.1213  0.3793
 4015POPC   C1B86150  21.443  21.339  15.171  0.0140 -0.5083 -0.0940
 4015POPC   C2B86151  21.779  21.222  15.558 -0.1304 -0.0770  0.3061
 4015POPC   C3B86152  22.075  21.435  15.807 -0.1001 -0.0024  0.0156
 4015POPC   C4B86153  22.404  21.468  16.115 -0.0241 -0.1658  0.1664
 4016POPC   NC386154  29.933  17.915  14.942 -0.0558 -0.0952  0.2768
 4016POPC   PO486155  30.258  17.700  14.992  0.0919  0.1286 -0.2028
 4016POPC   GL186156  30.358  17.922  15.386  0.2212  0.5389 -0.2548
 4016POPC   GL286157  30.248  18.149  15.251  0.1616  0.0352  0.1687
 4016POPC   C1A86158  30.280  18.025  15.827 -0.0851 -0.3098  0.1319
 4016POPC   D2A86159  30.226  18.147  16.357 -0.1073 -0.2385  0.0013
 4016POPC   C3A86160  30.111  18.430  16.625 -0.1896 -0.0860 -0.0122
 4016POPC   C4A86161  29.766  18.683  16.528 -0.1188 -0.0790 -0.0902
 4016POPC   C1B86162  30.190  18.618  15.228 -0.1198 -0.0647  0.4013
 4016POPC   C2B86163  30.073  19.002  15.492  0.3705 -0.2510 -0.2361
 4016POPC   C3B86164  29.976  19.368  15.843 -0.3823 -0.3040  0.0014
 4016POPC   C4B86165  29.625  19.510  16.033 -0.0057 -0.1173 -0.4018
 4017POPC   NC386166  28.823  15.168  15.411  0.3312  0.1583 -0.2164
 4017POPC   PO486167  28.683  15.139  15.760  0.0336 -0.2408 -0.3649
 4017POPC   GL186168  28.542  15.179  16.050 -0.2961  0.0825  0.1578
 4017POPC   GL286169  28.620  15.042  16.311 -0.0966  0.3465 -0.0891
 4017POPC   C1A86170  28.386  15.575  16.317  0.0566  0.2797  0.1110
 4017POPC   D2A86171  28.503  16.069  16.381 -0.0765  0.0992  0.0420
 4017POPC   C3A86172  28.326  16.300  16.685  0.4182 -0.1263 -0.0193
 4017POPC   C4A86173  28.244  16.289  17.169  0.1617 -0.2305  0.0613
 4017POPC   C1B86174  28.231  15.133  16.409  0.2003  0.2270  0.1208
 4017POPC   C2B86175  27.919  15.374  16.609  0.1845 -0.2847 -0.2368
 4017POPC   C3B86176  27.843  15.615  16.974  0.1342  0.0187  0.1680
 4017POPC   C4B86177  27.753  16.048  17.066  0.0931  0.0526  0.2193
 4018POPC   NC386178  29.797  18.528  13.112  0.0500  0.1333 -0.1188
 4018POPC   PO486179  29.595  18.823  12.942  0.1661  0.1056 -0.2365
 4018POPC   GL186180  29.404  19.201  13.000 -0.1752 -0.2831  0.2368
 4018POPC   GL286181  29.263  19.095  13.196  0.2209  0.3099 -0.0648
 4018POPC   C1A86182  29.146  19.542  12.797 -0.1827  0.1036 -0.0278
 4018POPC   D2A86183  28.955  19.936  12.758  0.2313  0.0526 -0.2961
 4018POPC   C3A86184  28.827  20.095  13.103 -0.3678 -0.2338  0.0139
 4018POPC   C4A86185  28.585  20.500  13.180 -0.0525  0.0576 -0.2342
 4018POPC   C1B86186  28.848  19.360  13.132 -0.0559  0.1491 -0.1422
 4018POPC   C2B86187  28.526  19.706  13.125 -0.4144 -0.3582 -0.3243
 4018POPC   C3B86188  28.289  20.028  13.270  0.1311 -0.2413 -0.2957
 4018POPC   C4B86189  27.927  20.239  13.492 -0.1701  0.0111  0.2436
 4019POPC   NC386190   0.351  30.302  16.706  0.2876  0.2268 -0.0830
 4019POPC   PO486191   0.065  30.594  16.558 -0.4321 -0.2017  0.1012
 4019POPC   GL186192   0.113  30.721  16.909  0.1365  0.1236 -0.0578
 4019POPC   GL286193   0.303  30.665  17.178  0.2469 -0.0013 -0.0020
 4019POPC   C1A86194  -0.186  30.690  17.230  0.1811 -0.1548 -0.0909
 4019POPC   D2A86195  -0.297  30.569  17.691 -0.1932 -0.3212 -0.1016
 4019POPC   C3A86196  -0.396  30.863  18.009 -0.1138 -0.0698 -0.0747
 4019POPC   C4A86197  -0.474  30.790  18.469 -0.0418 -0.2868  0.1563
 4019POPC   C1B86198   0.278  30.690  17.605 -0.0663 -0.1180 -0.2028
 4019POPC   C2B86199   0.203  30.474  18.011  0.1602  0.1383  0.0891
 4019POPC   C3B86200  -0.232  30.425  18.218 -0.1896 -0.2546  0.0703
 4019POPC   C4B86201  -0.663  30.408  18.011  0.2050 -0.1172 -0.0670
 4020POPC   NC386202  25.326  27.156  10.630  0.0836 -0.1366  0.1404
 4020POPC   PO486203  25.193  26.946  10.974  0.0805 -0.1748  0.0840
 4020POPC   GL186204  25.183  26.718  10.685  0.2062 -0.0987  0.1046
 4020POPC   GL286205  24.989  26.772  10.519 -0.2672  0.1615 -0.1558
 4020POPC   C1A86206  25.383  26.327  10.671 -0.2941  0.0930  0.0587
 4020POPC   D2A86207  25.419  25.894  10.666 -0.0109  0.1971  0.0710
 4020POPC   C3A86208  25.727  25.688  10.821 -0.0277  0.1166  0.0427
 4020POPC   C4A86209  25.855  25.328  11.058  0.4152  0.1156  0.0453
 4020POPC   C1B86210  25.297  26.654  10.245 -0.2280  0.1937  0.1890
 4020POPC   C2B86211  25.442  26.199  10.119  0.0983  0.0058  0.0644
 4020POPC   C3B86212  25.111  25.991   9.882  0.0506  0.1078 -0.0722
 4020POPC   C4B86213  24.859  25.894   9.468  0.0226 -0.0260  0.2018
 4021POPC   NC386214  23.880  17.848  12.331  0.2178 -0.0431  0.0087
 4021POPC   PO486215  24.149  18.052  12.155  0.3290 -0.0347 -0.3853
 4021POPC   GL186216  24.300  18.399  12.303 -0.4048  0.0800 -0.2683
 4021POPC   GL286217  24.594  18.385  12.303  0.1352  0.0069  0.3846
 4021POPC   C1A86218  24.148  18.722  12.617 -0.0075  0.5105  0.2826
 4021POPC   D2A86219  24.267  19.092  12.850  0.0812 -0.1299  0.2620
 4021POPC   C3A86220  24.491  19.502  13.035 -0.0430  0.0211  0.2203
 4021POPC   C4A86221  24.651  19.886  13.181 -0.2042  0.0100 -0.0063
 4021POPC   C1B86222  24.746  18.551  12.674 -0.4591 -0.1588 -0.1772
 4021POPC   C2B86223  24.891  18.997  12.772 -0.1640 -0.1628 -0.2073
 4021POPC   C3B86224  25.059  19.386  12.897  0.1871 -0.0978  0.0710
 4021POPC   C4B86225  25.304  19.752  13.037  0.2109 -0.0498  0.0784
 4022POPC   NC386226  31.302  15.726  16.249 -0.0301 -0.0165 -0.0873
 4022POPC   PO486227  31.665  15.929  16.224  0.1609  0.0382  0.2112
 4022POPC   GL186228  31.502  16.079  16.504 -0.1916  0.3664 -0.3357
 4022POPC   GL286229  31.675  16.299  16.621 -0.0714 -0.0144  0.0126
 4022POPC   C1A86230  31.176  15.856  16.771 -0.1428 -0.1092  0.0288
 4022POPC   D2A86231  30.850  15.705  17.026  0.0737 -0.2806  0.0138
 4022POPC   C3A86232  30.467  15.509  16.830  0.0103  0.1136  0.2452
 4022POPC   C4A86233  30.016  15.496  16.810 -0.1937  0.0214  0.3544
 4022POPC   C1B86234  31.575  16.081  17.049  0.1373  0.2583  0.0832
 4022POPC   C2B86235  31.857  15.947  17.371 -0.0327 -0.1678 -0.1090
 4022POPC   C3B86236  32.154  15.866  17.728 -0.0360 -0.1873 -0.1871
 4022POPC   C4B86237  32.390  16.230  18.024  0.0402  0.0254  0.0231
 4023POPC   NC386238  18.133  27.402  16.708  0.3556 -0.2530 -0.2736
 4023POPC   PO486239  17.964  27.764  16.587 -0.0424 -0.0858 -0.2081
 4023POPC   GL186240  17.942  27.766  17.012 -0.0414 -0.2519  0.0642
 4023POPC   GL286241  17.704  27.580  17.033  0.0582 -0.0601 -0.0633
 4023POPC   C1A86242  18.187  27.558  17.387  0.0410 -0.0115  0.0669
 4023POPC   D2A86243  18.009  27.343  17.724 -0.3030 -0.1799 -0.2853
 4023POPC   C3A86244  17.785  26.948  17.880  0.3314  0.1928  0.0666
 4023POPC   C4A86245  17.738  26.768  18.246  0.0487 -0.0580 -0.2012
 4023POPC   C1B86246  17.678  27.621  17.442  0.1957 -0.0233 -0.1767
 4023POPC   C2B86247  17.570  27.722  17.824  0.0374 -0.1939 -0.3279
 4023POPC   C3B86248  17.451  27.816  18.235 -0.0119 -0.2798 -0.0927
 4023POPC   C4B86249  17.467  27.734  18.677  0.1323 -0.0843 -0.1317
 4024POPC   NC386250  22.073  31.384  15.930  0.0209  0.0050 -0.1183
 4024POPC   PO486251  21.901  31.179  16.192 -0.0511  0.1918  0.1946
 4024POPC   GL186252  22.050  31.167  16.536  0.0559  0.0312  0.2799
 4024POPC   GL286253  22.248  31.431  16.441  0.1574 -0.1075  0.2444
 4024POPC   C1A86254  22.021  31.273  17.004  0.0332  0.6045 -0.1818
 4024POPC   D2A86255  21.984  31.423  17.426  0.0832 -0.0293  0.0766
 4024POPC   C3A86256  21.957  31.212  17.885  0.1306 -0.0324  0.0853
 4024POPC   C4A86257  22.385  31.025  17.993 -0.0668 -0.0611 -0.2120
 4024POPC   C1B86258  22.523  31.768  16.589  0.0592 -0.0673  0.1810
 4024POPC   C2B86259  22.706  31.920  16.997 -0.0935  0.2428  0.0389
 4024POPC   C3B86260  22.740  32.121  17.389 -0.2670 -0.1491 -0.4306
 4024POPC   C4B86261  22.716  32.387  17.732 -0.0192  0.4053 -0.1040
 4025POPC   NC386262  31.733  28.975  16.302  0.0502  0.0568  0.0876
 4025POPC   PO486263  31.994  29.217  16.455  0.0616 -0.0629  0.2894
 4025POPC   GL186264  31.831  29.405  16.886 -0.0481  0.3029 -0.1940
 4025POPC   GL286265  31.559  29.525  17.069  0.3088  0.1548 -0.1652
 4025POPC   C1A86266  32.117  29.609  17.188 -0.3106  0.0422 -0.2298
 4025POPC   D2A86267  32.315  29.721  17.635 -0.0324 -0.0787  0.2081
 4025POPC   C3A86268  32.401  29.515  17.996 -0.2126  0.3785 -0.1664
 4025POPC   C4A86269  32.593  29.490  18.439 -0.3190 -0.0168  0.1225
 4025POPC   C1B86270  31.612  29.424  17.529 -0.0507  0.0872  0.1368
 4025POPC   C2B86271  31.737  29.448  17.984  0.1443  0.0464  0.0823
 4025POPC   C3B86272  31.976  29.530  18.359 -0.0547  0.2845  0.0053
 4025POPC   C4B86273  32.195  29.917  18.363  0.1811 -0.0657  0.0566
 4026POPC   NC386274  21.020  28.645  16.587 -0.2677  0.3257  0.1513
 4026POPC   PO486275  21.170  28.995  16.724  0.3466  0.2524  0.0534
 4026POPC   GL186276  21.139  28.887  17.033 -0.1674 -0.0742 -0.2706
 4026POPC   GL286277  20.903  28.701  17.091  0.3186  0.0723 -0.3710
 4026POPC   C1A86278  21.257  28.846  17.483 -0.0988  0.0903  0.1918
 4026POPC   D2A86279  21.129  28.853  17.926 -0.2484  0.1128  0.0051
 4026POPC   C3A86280  21.320  28.532  18.206  0.0318  0.2435  0.0056
 4026POPC   C4A86281  21.357  28.210  18.591 -0.2926  0.2073 -0.4127
 4026POPC   C1B86282  20.805  28.502  17.507 -0.3639 -0.2406  0.0962
 4026POPC   C2B86283  20.790  28.480  17.927 -0.1507  0.2776 -0.2225
 4026POPC   C3B86284  20.841  28.485  18.323  0.0328 -0.1772 -0.2667
 4026POPC   C4B86285  21.070  28.778  18.664  0.1511 -0.2834  0.1173
 4027POPC   NC386286  31.907  22.895  13.448  0.0628  0.0616 -0.1656
 4027POPC   PO486287  31.530  23.014  13.537 -0.0748  0.2097 -0.5660
 4027POPC   GL186288  31.099  22.933  13.499  0.0502 -0.0739 -0.3533
 4027POPC   GL286289  31.002  22.911  13.244  0.0720  0.2174  0.1317
 4027POPC   C1A86290  30.798  23.191  13.686 -0.3740  0.1282 -0.0549
 4027POPC   D2A86291  30.458  23.423  13.871 -0.0715 -0.1803  0.3611
 4027POPC   C3A86292  29.990  23.397  13.757  0.0420 -0.0047 -0.0312
 4027POPC   C4A86293  29.701  23.747  13.839  0.1491 -0.1074  0.1879
 4027POPC   C1B86294  30.591  22.896  13.090  0.2448 -0.0790 -0.1211
 4027POPC   C2B86295  30.147  22.835  13.136 -0.1332  0.0915 -0.0641
 4027POPC   C3B86296  29.866  22.557  13.393  0.4076 -0.0661  0.2491
 4027POPC   C4B86297  29.627  22.178  13.507 -0.2867  0.0344 -0.0656
 4028POPC   NC386298  27.985  27.900  15.425  0.1472 -0.0989  0.0483
 4028POPC   PO486299  28.303  28.022  15.602  0.0944  0.0588 -0.3021
 4028POPC   GL186300  28.442  27.783  15.935 -0.1763  0.0097 -0.2872
 4028POPC   GL286301  28.701  27.830  16.082 -0.2119  0.1626  0.0619
 4028POPC   C1A86302  28.459  27.295  15.916 -0.0996 -0.3345  0.0297
 4028POPC   D2A86303  28.335  26.874  15.891  0.1666  0.1283  0.3577
 4028POPC   C3A86304  28.241  26.491  16.208  0.0286 -0.2011 -0.1022
 4028POPC   C4A86305  28.283  26.189  16.518  0.0257 -0.2235  0.2016
 4028POPC   C1B86306  28.401  27.559  16.319  0.0594 -0.0472  0.1890
 4028POPC   C2B86307  28.093  27.469  16.641  0.0674  0.0975  0.1478
 4028POPC   C3B86308  28.142  27.352  17.099 -0.1159 -0.1941  0.2817
 4028POPC   C4B86309  28.301  27.314  17.556  0.4164  0.2961  0.2198
 4029POPC   NC386310  22.951  29.984  16.680 -0.2937 -0.1429  0.1524
 4029POPC   PO486311  23.293  30.002  16.444  0.1371 -0.1495  0.0419
 4029POPC   GL186312  23.408  30.191  16.796 -0.1350 -0.1746  0.1190
 4029POPC   GL286313  23.228  30.343  16.902  0.1294  0.1684 -0.0486
 4029POPC   C1A86314  23.550  30.275  17.231 -0.1571  0.2718 -0.2474
 4029POPC   D2A86315  23.304  30.584  17.498  0.1912  0.4392  0.3415
 4029POPC   C3A86316  23.378  30.998  17.466 -0.0553  0.1525 -0.2802
 4029POPC   C4A86317  23.455  31.360  17.728 -0.1145  0.1138 -0.1140
 4029POPC   C1B86318  22.994  30.208  17.300 -0.1012 -0.0791 -0.2233
 4029POPC   C2B86319  22.752  30.072  17.649 -0.1884 -0.3379 -0.2301
 4029POPC   C3B86320  22.732  30.013  18.114 -0.3974 -0.3204 -0.0646
 4029POPC   C4B86321  22.639  29.848  18.532  0.0444 -0.1353  0.0735
 4030POPC   NC386322  23.169  27.764  15.858 -0.1681 -0.0699  0.0164
 4030POPC   PO486323  23.399  27.715  16.178  0.1471 -0.2317  0.2693
 4030POPC   GL186324  23.810  27.730  16.207  0.0353  0.0406  0.1117
 4030POPC   GL286325  23.825  28.021  16.308 -0.1568 -0.0917  0.0954
 4030POPC   C1A86326  24.053  27.399  16.447 -0.0150  0.0299 -0.2407
 4030POPC   D2A86327  24.033  27.336  16.940  0.0560  0.2401 -0.0955
 4030POPC   C3A86328  24.435  27.169  17.199 -0.2687 -0.1542 -0.2671
 4030POPC   C4A86329  24.813  26.986  17.280 -0.0568  0.1533 -0.0679
 4030POPC   C1B86330  23.761  27.828  16.642 -0.0422  0.0497 -0.4870
 4030POPC   C2B86331  23.577  27.793  17.076 -0.0430  0.3282 -0.0341
 4030POPC   C3B86332  23.213  27.509  17.224 -0.3107  0.0835  0.0461
 4030POPC   C4B86333  23.126  27.075  17.263 -0.0288  0.0851  0.2412
 4031POPC   NC386334  29.253  32.341   8.474  0.2246 -0.1321  0.2263
 4031POPC   PO486335  29.220  32.657   8.232  0.1460 -0.1777  0.3692
 4031POPC   GL186336  29.095  32.857   7.923  0.0798 -0.1046  0.1553
 4031POPC   GL286337  29.182  33.193   7.868 -0.1818 -0.1880 -0.1973
 4031POPC   C1A86338  29.086  32.842   7.454  0.2531 -0.0216  0.0022
 4031POPC   D2A86339  29.057  32.954   6.939 -0.1184  0.1097  0.1676
 4031POPC   C3A86340  28.661  33.128   6.789  0.2018  0.0316 -0.2810
 4031POPC   C4A86341  28.364  33.091   6.476  0.0164 -0.1812 -0.1605
 4031POPC   C1B86342  29.059  33.423   7.502  0.0746  0.2268  0.0883
 4031POPC   C2B86343  29.142  33.504   7.059 -0.0775 -0.0408  0.0708
 4031POPC   C3B86344  29.347  33.568   6.614  0.1475 -0.1399 -0.3199
 4031POPC   C4B86345  29.367  33.931   6.459 -0.0154  0.0325 -0.2466
 4032POPC   NC386346  32.734  23.811  16.010 -0.2084  0.1398  0.0659
 4032POPC   PO486347  32.398  23.872  15.870  0.1737  0.1029  0.1221
 4032POPC   GL186348  32.351  23.627  16.204  0.3726 -0.4138 -0.0832
 4032POPC   GL286349  32.091  23.514  16.239  0.0147 -0.2566 -0.0962
 4032POPC   C1A86350  32.219  23.841  16.589 -0.0508  0.1693  0.0394
 4032POPC   D2A86351  32.213  23.755  17.048  0.3103 -0.2363  0.4136
 4032POPC   C3A86352  31.928  23.696  17.441 -0.0195  0.0185  0.1884
 4032POPC   C4A86353  31.817  23.790  17.865 -0.2148 -0.0721 -0.0165
 4032POPC   C1B86354  32.278  23.329  16.616 -0.1114  0.0068 -0.1521
 4032POPC   C2B86355  32.323  23.141  17.040 -0.2200 -0.0499 -0.2950
 4032POPC   C3B86356  32.478  22.896  17.366 -0.0885  0.1766  0.0133
 4032POPC   C4B86357  32.668  22.874  17.750 -0.5971 -0.1176  0.1005
 4033POPC   NC386358  30.547  19.508  12.384  0.2396  0.1895 -0.3103
 4033POPC   PO486359  30.805  19.811  12.393  0.3369 -0.3079 -0.1686
 4033POPC   GL186360  30.364  19.972  12.298 -0.2277 -0.1858 -0.0181
 4033POPC   GL286361  30.199  19.876  12.517 -0.2299  0.1752 -0.2365
 4033POPC   C1A86362  30.175  20.358  12.379 -0.1966 -0.1632 -0.1274
 4033POPC   D2A86363  29.892  20.668  12.526  0.0567 -0.0626 -0.0965
 4033POPC   C3A86364  29.612  21.035  12.573 -0.0309  0.0982  0.2606
 4033POPC   C4A86365  29.743  21.469  12.671 -0.1110  0.4151  0.0618
 4033POPC   C1B86366  29.781  20.040  12.426 -0.0698  0.0357  0.0136
 4033POPC   C2B86367  29.608  20.390  12.253  0.0518 -0.0039  0.1265
 4033POPC   C3B86368  29.225  20.615  12.358 -0.1507 -0.1430 -0.0157
 4033POPC   C4B86369  28.971  20.962  12.497 -0.2274 -0.0014 -0.1729
 4034POPC   NC386370  26.753  30.541  16.104  0.0482 -0.0937 -0.1284
 4034POPC   PO486371  26.467  30.764  16.088  0.0442 -0.2877  0.1031
 4034POPC   GL186372  26.252  31.047  16.369  0.1208 -0.0336  0.3703
 4034POPC   GL286373  25.992  31.136  16.206  0.1232 -0.3230 -0.2126
 4034POPC   C1A86374  26.279  31.194  16.848  0.0415  0.1177  0.2093
 4034POPC   D2A86375  26.341  31.521  17.133 -0.2421 -0.2014 -0.1986
 4034POPC   C3A86376  26.477  31.625  17.591  0.0723  0.1134  0.1802
 4034POPC   C4A86377  26.534  31.817  17.984  0.2052 -0.0538 -0.1326
 4034POPC   C1B86378  25.783  31.259  16.593  0.0793  0.1288 -0.0035
 4034POPC   C2B86379  25.868  31.428  16.996  0.0962  0.0216 -0.1751
 4034POPC   C3B86380  25.905  31.758  17.258 -0.0356  0.4040  0.0542
 4034POPC   C4B86381  25.836  32.195  17.369 -0.1181 -0.2005 -0.0635
 4035POPC   NC386382  30.717  26.455  15.485 -0.1848 -0.1905 -0.0067
 4035POPC   PO486383  30.568  26.804  15.539 -0.2281  0.0413  0.1876
 4035POPC   GL186384  30.321  26.695  15.871 -0.2101 -0.0303 -0.3428
 4035POPC   GL286385  30.587  26.633  16.065  0.4226 -0.3430  0.0729
 4035POPC   C1A86386  30.051  26.437  16.181  0.0355  0.1849  0.0137
 4035POPC   D2A86387  29.782  26.366  16.542 -0.0517 -0.0692  0.1626
 4035POPC   C3A86388  29.623  26.738  16.790 -0.0216 -0.1846 -0.1764
 4035POPC   C4A86389  29.329  26.942  17.093  0.0753  0.1944 -0.1852
 4035POPC   C1B86390  30.356  26.963  16.286 -0.0994  0.0138  0.1127
 4035POPC   C2B86391  30.210  27.294  16.492  0.2141  0.0733  0.2352
 4035POPC   C3B86392  30.038  27.668  16.724 -0.2409  0.2046  0.0370
 4035POPC   C4B86393  30.162  27.990  17.038 -0.0851  0.4204  0.0467
 4036POPC   NC386394  30.002  25.769  14.253  0.1003  0.2064  0.2205
 4036POPC   PO486395  29.969  25.966  13.925 -0.0745  0.1622  0.0192
 4036POPC   GL186396  29.628  26.011  13.931  0.3225 -0.1730 -0.2092
 4036POPC   GL286397  29.505  25.804  14.088  0.0716  0.0477 -0.1462
 4036POPC   C1A86398  29.210  25.877  13.681 -0.0470  0.1202  0.0502
 4036POPC   D2A86399  28.877  25.629  13.402  0.2834  0.0752  0.0303
 4036POPC   C3A86400  28.763  25.133  13.477 -0.0210  0.1631  0.1575
 4036POPC   C4A86401  28.616  24.690  13.502 -0.0596  0.0644 -0.0564
 4036POPC   C1B86402  29.317  25.402  14.334  0.0612 -0.3950 -0.0643
 4036POPC   C2B86403  29.087  25.142  14.651 -0.1621 -0.0628 -0.0604
 4036POPC   C3B86404  29.006  24.758  14.895  0.1523  0.4462 -0.0363
 4036POPC   C4B86405  28.788  24.380  15.109 -0.1581  0.0545  0.3134
 4037POPC   NC386406  32.299  17.758  15.329 -0.0895  0.0307 -0.0239
 4037POPC   PO486407  32.125  18.058  15.307  0.0802 -0.0636  0.0422
 4037POPC   GL186408  32.038  17.936  15.694  0.4733  0.2133  0.2343
 4037POPC   GL286409  31.826  18.149  15.783 -0.1075 -0.1524  0.0660
 4037POPC   C1A86410  31.930  17.809  16.147 -0.3332  0.0177 -0.1269
 4037POPC   D2A86411  32.162  17.696  16.568  0.0324 -0.2317 -0.1697
 4037POPC   C3A86412  31.897  17.760  16.971  0.0359 -0.0418 -0.0126
 4037POPC   C4A86413  31.684  17.770  17.367  0.0516 -0.0842  0.0518
 4037POPC   C1B86414  31.716  18.223  16.251 -0.2536  0.3279  0.0917
 4037POPC   C2B86415  31.765  18.103  16.667 -0.0291 -0.2090  0.0576
 4037POPC   C3B86416  31.728  18.235  17.114  0.2756  0.0511  0.1944
 4037POPC   C4B86417  31.806  18.430  17.508  0.1328 -0.2008 -0.1770
 4038POPC   NC386418  32.324  22.386  15.520 -0.0524  0.0365 -0.0066
 4038POPC   PO486419  32.478  22.020  15.380 -0.0170 -0.2725  0.0112
 4038POPC   GL186420  32.384  21.869  15.787 -0.1687 -0.0636  0.0421
 4038POPC   GL286421  32.485  22.091  15.915 -0.1197  0.2277  0.1635
 4038POPC   C1A86422  31.995  21.800  16.036  0.1552 -0.2052 -0.1474
 4038POPC   D2A86423  31.841  21.795  16.511 -0.0713  0.0500  0.1181
 4038POPC   C3A86424  32.055  21.606  16.855  0.3283 -0.2838 -0.2600
 4038POPC   C4A86425  31.998  21.655  17.359 -0.2336  0.1763  0.0684
 4038POPC   C1B86426  32.473  22.057  16.369  0.2517  0.2025 -0.0884
 4038POPC   C2B86427  32.350  22.052  16.808 -0.0406 -0.5234 -0.0116
 4038POPC   C3B86428  32.448  21.876  17.195  0.0923 -0.2454  0.1361
 4038POPC   C4B86429  32.760  21.645  17.466  0.0239  0.0805 -0.0864
 4039POPC   NC386430  25.895  27.396  15.195  0.3072  0.0534  0.0932
 4039POPC   PO486431  26.229  27.209  15.277 -0.0154  0.0343  0.0596
 4039POPC   GL186432  26.491  26.887  15.380 -0.0509  0.0846 -0.0733
 4039POPC   GL286433  26.439  26.911  15.693 -0.1748 -0.0724  0.3538
 4039POPC   C1A86434  26.760  26.549  15.506 -0.4597 -0.0319 -0.2186
 4039POPC   D2A86435  26.743  26.127  15.318  0.0276 -0.0667 -0.1177
 4039POPC   C3A86436  26.797  25.751  15.579  0.3081 -0.2132  0.0645
 4039POPC   C4A86437  27.001  25.399  15.791 -0.1226  0.1177  0.2783
 4039POPC   C1B86438  26.398  26.607  16.055  0.1017  0.2714 -0.0986
 4039POPC   C2B86439  26.256  26.308  16.293 -0.1026  0.0456  0.0637
 4039POPC   C3B86440  26.093  25.850  16.329 -0.5260  0.0888  0.2368
 4039POPC   C4B86441  26.007  25.482  16.061  0.0899 -0.0954  0.0206
 4040POPC   NC386442  23.322  29.144  16.414  0.1134  0.2550  0.0549
 4040POPC   PO486443  23.283  29.148  16.789 -0.2581  0.6708 -0.1650
 4040POPC   GL186444  23.342  29.432  16.996 -0.1791 -0.0301  0.1060
 4040POPC   GL286445  23.445  29.628  16.739 -0.2871  0.0567  0.1859
 4040POPC   C1A86446  23.568  29.324  17.402  0.1447 -0.0795 -0.1829
 4040POPC   D2A86447  23.889  29.148  17.642 -0.1231  0.2220  0.1222
 4040POPC   C3A86448  23.959  28.827  18.023  0.0202 -0.0089 -0.0118
 4040POPC   C4A86449  24.263  28.723  18.393  0.1201  0.0134 -0.0716
 4040POPC   C1B86450  23.486  29.766  17.192  0.1431  0.2636 -0.0366
 4040POPC   C2B86451  23.404  29.882  17.651 -0.2602  0.0537 -0.0488
 4040POPC   C3B86452  23.176  29.745  18.083  0.1949  0.1376 -0.1986
 4040POPC   C4B86453  23.180  29.808  18.507  0.0220  0.2250  0.0140
 4041POPC   NC386454  31.227  22.864  13.946 -0.2079 -0.2767 -0.1205
 4041POPC   PO486455  31.309  22.564  13.724 -0.0003 -0.2937  0.0016
 4041POPC   GL186456  30.937  22.546  13.582 -0.1360 -0.0389  0.1885
 4041POPC   GL286457  30.806  22.340  13.809  0.2394  0.1060  0.0095
 4041POPC   C1A86458  30.523  22.778  13.551 -0.4988  0.2918  0.3440
 4041POPC   D2A86459  30.115  22.915  13.678  0.1546 -0.3083 -0.0915
 4041POPC   C3A86460  29.708  23.023  13.535 -0.2567  0.0434 -0.1168
 4041POPC   C4A86461  29.385  23.232  13.317  0.0476 -0.0377 -0.0187
 4041POPC   C1B86462  30.368  22.154  13.843  0.2212 -0.2624 -0.2935
 4041POPC   C2B86463  29.934  21.998  14.052 -0.4191  0.0902 -0.1688
 4041POPC   C3B86464  29.534  21.882  14.087  0.2674 -0.2010  0.0179
 4041POPC   C4B86465  29.193  21.647  14.315  0.1734 -0.1013 -0.1006
 4042POPC   NC386466  30.930  22.732  11.068 -0.0776  0.0274 -0.2334
 4042POPC   PO486467  31.188  22.557  10.848  0.0892  0.1819 -0.0097
 4042POPC   GL186468  30.926  22.347  10.646  0.6366 -0.2125  0.0552
 4042POPC   GL286469  30.800  22.245  10.852  0.4943 -0.1585 -0.4479
 4042POPC   C1A86470  30.674  22.337  10.303 -0.3736  0.1095  0.4360
 4042POPC   D2A86471  30.254  22.255  10.093  0.0307  0.0186 -0.2600
 4042POPC   C3A86472  30.199  22.662   9.901  0.2344  0.0350 -0.1209
 4042POPC   C4A86473  30.311  22.994   9.559  0.0859  0.2251 -0.1589
 4042POPC   C1B86474  30.444  22.467  10.873  0.0380  0.5253  0.0527
 4042POPC   C2B86475  30.073  22.511  11.112  0.0309 -0.2732  0.2190
 4042POPC   C3B86476  29.739  22.573  11.355 -0.0659  0.1575  0.0069
 4042POPC   C4B86477  29.241  22.556  11.362 -0.0007  0.0447  0.0971
 4043POPC   NC386478  21.260  25.102  15.936  0.0089  0.0633  0.3078
 4043POPC   PO486479  21.195  24.752  15.764  0.1715 -0.1190 -0.3459
 4043POPC   GL186480  21.611  24.640  15.943  0.2667 -0.0808  0.3197
 4043POPC   GL286481  21.758  24.900  15.914  0.0332 -0.0798 -0.0236
 4043POPC   C1A86482  21.697  24.777  16.381  0.1422  0.0530  0.0181
 4043POPC   D2A86483  22.012  24.678  16.732 -0.0510  0.2078 -0.2517
 4043POPC   C3A86484  21.977  24.211  16.872  0.1364  0.2737  0.1235
 4043POPC   C4A86485  22.279  23.975  17.115 -0.1994  0.0219 -0.2898
 4043POPC   C1B86486  22.126  24.730  16.092 -0.2611  0.5612 -0.1711
 4043POPC   C2B86487  22.302  24.453  16.420  0.1079  0.0544  0.0845
 4043POPC   C3B86488  22.488  24.208  16.744  0.1021 -0.3312 -0.0350
 4043POPC   C4B86489  22.743  23.851  16.819 -0.2083 -0.1969  0.0938
 4044POPC   NC386490  24.002  26.586  13.477 -0.1364 -0.0925  0.0801
 4044POPC   PO486491  24.167  26.926  13.655 -0.3906 -0.1937 -0.0634
 4044POPC   GL186492  24.431  26.786  13.249 -0.3354  0.4812 -0.2714
 4044POPC   GL286493  24.409  26.544  13.203 -0.1578 -0.1152 -0.1551
 4044POPC   C1A86494  24.902  26.609  13.320  0.1375  0.1626 -0.4024
 4044POPC   D2A86495  25.054  26.288  13.633 -0.2274 -0.0679 -0.1313
 4044POPC   C3A86496  24.933  26.302  14.084  0.0040  0.1336  0.1595
 4044POPC   C4A86497  24.767  26.011  14.453 -0.0701 -0.0935 -0.2834
 4044POPC   C1B86498  24.255  26.167  13.324  0.2794 -0.1341  0.1855
 4044POPC   C2B86499  24.035  25.747  13.286  0.4277 -0.2187 -0.2966
 4044POPC   C3B86500  23.704  25.425  13.084 -0.0914  0.0622 -0.1238
 4044POPC   C4B86501  23.274  25.193  12.990 -0.3976 -0.0358  0.2067
 4045POPC   NC386502  22.932  27.332  16.272  0.0924  0.0530 -0.0931
 4045POPC   PO486503  23.118  27.285  15.942  0.1546  0.1919 -0.0181
 4045POPC   GL186504  23.393  27.092  16.128  0.0143 -0.0633 -0.3731
 4045POPC   GL286505  23.538  27.253  16.269  0.2459  0.0685 -0.2486
 4045POPC   C1A86506  23.451  26.737  16.367  0.1195  0.0320  0.1994
 4045POPC   D2A86507  23.477  26.412  16.583 -0.2857  0.0863 -0.0355
 4045POPC   C3A86508  23.790  26.093  16.386  0.0887  0.1502  0.0658
 4045POPC   C4A86509  24.186  25.776  16.472  0.1293  0.0138 -0.2494
 4045POPC   C1B86510  23.794  26.975  16.601  0.3615 -0.1077 -0.0386
 4045POPC   C2B86511  23.987  26.855  16.956 -0.2141 -0.1963  0.1169
 4045POPC   C3B86512  24.174  26.849  17.393  0.5595 -0.1229 -0.0419
 4045POPC   C4B86513  24.511  26.813  17.760  0.0303  0.2359 -0.1620
 4046POPC   NC386514  24.266  31.434  15.191 -0.1293  0.0218  0.0960
 4046POPC   PO486515  23.856  31.358  15.179 -0.2425 -0.3128 -0.2874
 4046POPC   GL186516  23.812  31.618  15.430  0.1355  0.1408  0.1531
 4046POPC   GL286517  23.986  31.577  15.658  0.0630  0.1256 -0.3378
 4046POPC   C1A86518  23.735  31.962  15.776 -0.1147  0.2464 -0.1204
 4046POPC   D2A86519  23.917  32.155  16.184 -0.1365  0.0437  0.2089
 4046POPC   C3A86520  23.804  32.348  16.626 -0.2364 -0.2160  0.2049
 4046POPC   C4A86521  23.968  32.761  16.808 -0.0180  0.1459 -0.2516
 4046POPC   C1B86522  24.057  31.689  16.094  0.0004  0.3233  0.4857
 4046POPC   C2B86523  23.995  31.744  16.559  0.3309 -0.0075 -0.1722
 4046POPC   C3B86524  23.943  31.990  16.976  0.1381 -0.0598 -0.2090
 4046POPC   C4B86525  24.256  32.004  17.326 -0.1460 -0.1323  0.2933
 4047POPC   NC386526  18.080  25.769  16.496  0.0391  0.2463 -0.0625
 4047POPC   PO486527  17.938  26.033  16.230 -0.0152 -0.0325 -0.3089
 4047POPC   GL186528  17.643  25.917  16.445 -0.0471  0.0475 -0.2692
 4047POPC   GL286529  17.621  26.194  16.629  0.0694 -0.1447 -0.1720
 4047POPC   C1A86530  17.566  25.608  16.741  0.1403 -0.3758  0.0453
 4047POPC   D2A86531  17.677  25.499  17.160  0.0303 -0.0893  0.3558
 4047POPC   C3A86532  17.447  25.429  17.544  0.0562 -0.0806  0.0145
 4047POPC   C4A86533  17.474  25.410  18.071  0.0932 -0.4379 -0.2624
 4047POPC   C1B86534  17.574  26.007  17.032 -0.1942 -0.1965 -0.1289
 4047POPC   C2B86535  17.424  25.972  17.456 -0.0727 -0.2457  0.0073
 4047POPC   C3B86536  17.395  26.125  17.921 -0.3583 -0.2618 -0.0026
 4047POPC   C4B86537  17.123  26.232  18.261 -0.4465  0.0821  0.0687
 4048POPC   NC386538  19.668  28.210  16.984  0.0896  0.1614  0.0458
 4048POPC   PO486539  19.903  28.043  16.734 -0.1310  0.0614  0.2862
 4048POPC   GL186540  20.041  27.954  17.081  0.0341 -0.1641  0.2167
 4048POPC   GL286541  20.183  28.139  17.197  0.0556  0.0328  0.1148
 4048POPC   C1A86542  20.161  27.530  17.224  0.3274 -0.0960 -0.5204
 4048POPC   D2A86543  20.238  27.342  17.612 -0.1520  0.0312  0.1051
 4048POPC   C3A86544  20.145  27.340  18.062 -0.1783 -0.0901  0.2393
 4048POPC   C4A86545  20.257  27.201  18.460 -0.1893  0.0785  0.1087
 4048POPC   C1B86546  20.061  27.925  17.568 -0.3702  0.1504  0.0866
 4048POPC   C2B86547  20.101  27.823  18.052 -0.1223 -0.3004  0.0806
 4048POPC   C3B86548  19.958  27.701  18.452 -0.2474 -0.1846 -0.1039
 4048POPC   C4B86549  19.602  27.412  18.583 -0.0260 -0.0962  0.1708
 4049POPC   NC386550  18.797  16.160  16.232 -0.1317 -0.0611 -0.0639
 4049POPC   PO486551  19.099  16.244  16.007 -0.2703 -0.2424  0.1677
 4049POPC   GL186552  19.230  16.395  16.362  0.1588 -0.0641  0.0306
 4049POPC   GL286553  19.143  16.175  16.567 -0.0381 -0.0569  0.0417
 4049POPC   C1A86554  18.959  16.645  16.733 -0.4701  0.0023  0.0850
 4049POPC   D2A86555  18.841  17.106  16.672  0.0211  0.0520  0.0387
 4049POPC   C3A86556  18.765  17.380  17.012 -0.1764 -0.1088 -0.4758
 4049POPC   C4A86557  18.922  17.571  17.451  0.0729 -0.0165  0.1643
 4049POPC   C1B86558  19.461  16.328  16.867  0.1310  0.0950  0.0572
 4049POPC   C2B86559  19.701  16.388  17.219 -0.2572  0.0866 -0.4987
 4049POPC   C3B86560  19.727  16.530  17.685  0.0064  0.2440  0.0513
 4049POPC   C4B86561  19.586  16.849  17.977 -0.0233  0.1806  0.1034
 4050POPC   NC386562  19.549  27.870  16.367 -0.0786 -0.2342  0.0506
 4050POPC   PO486563  19.382  27.530  16.436  0.0266  0.1520  0.0253
 4050POPC   GL186564  19.358  27.407  16.824  0.2278 -0.2624 -0.1413
 4050POPC   GL286565  19.101  27.380  16.846 -0.0069 -0.1421  0.1716
 4050POPC   C1A86566  19.553  27.227  17.167  0.2059  0.1823  0.0669
 4050POPC   D2A86567  19.746  27.476  17.526  0.0722 -0.0489 -0.0193
 4050POPC   C3A86568  19.559  27.366  17.957 -0.1043 -0.5187 -0.0970
 4050POPC   C4A86569  19.314  27.184  18.312 -0.2353 -0.0475 -0.3197
 4050POPC   C1B86570  19.160  27.545  17.251 -0.2287  0.2210 -0.0591
 4050POPC   C2B86571  19.227  27.628  17.729 -0.1345 -0.1342  0.0877
 4050POPC   C3B86572  18.995  27.613  18.080  0.0734 -0.1594  0.1182
 4050POPC   C4B86573  18.797  27.531  18.547 -0.1946  0.2029  0.1238
 4051POPC   NC386574  19.700  31.875  16.126 -0.1303 -0.0018  0.1184
 4051POPC   PO486575  19.845  32.239  16.199  0.1370 -0.1027 -0.1118
 4051POPC   GL186576  19.920  32.253  16.532 -0.1029 -0.0289  0.3851
 4051POPC   GL286577  19.641  32.287  16.635  0.1931  0.2180  0.3712
 4051POPC   C1A86578  20.094  32.316  16.981 -0.2889  0.0899  0.1646
 4051POPC   D2A86579  20.331  32.365  17.378 -0.0002  0.3185  0.0049
 4051POPC   C3A86580  20.130  32.561  17.764 -0.1369  0.1677  0.1722
 4051POPC   C4A86581  20.142  32.379  18.166 -0.0446  0.1974 -0.1313
 4051POPC   C1B86582  19.580  32.331  17.084  0.0565 -0.0239 -0.1731
 4051POPC   C2B86583  19.592  32.466  17.523 -0.1163  0.1762 -0.0488
 4051POPC   C3B86584  19.662  32.566  18.020 -0.0828  0.4450  0.1773
 4051POPC   C4B86585  19.752  32.907  18.284  0.0920  0.1195 -0.4826
 4052POPC   NC386586  28.850  18.658  13.911 -0.2676  0.0497  0.1541
 4052POPC   PO486587  28.581  18.420  13.944 -0.1284  0.3573 -0.0277
 4052POPC   GL186588  28.369  18.589  14.251  0.0435 -0.4772  0.1972
 4052POPC   GL286589  28.074  18.459  14.180  0.1724  0.1007  0.2996
 4052POPC   C1A86590  28.278  19.041  14.197 -0.2703  0.1002 -0.3210
 4052POPC   D2A86591  28.372  19.397  14.533 -0.0961  0.2987  0.3283
 4052POPC   C3A86592  28.213  19.297  14.959 -0.0392  0.0290  0.1177
 4052POPC   C4A86593  27.965  19.091  15.300 -0.2215 -0.1517 -0.0096
 4052POPC   C1B86594  28.024  18.719  14.532 -0.0343 -0.0028 -0.2737
 4052POPC   C2B86595  27.793  19.067  14.812 -0.1892  0.3536 -0.1021
 4052POPC   C3B86596  27.596  19.379  15.098 -0.0152  0.0159 -0.0536
 4052POPC   C4B86597  27.659  19.784  15.063  0.1735 -0.3020 -0.0017
 4053POPC   NC386598  23.580  27.500  15.807 -0.0377 -0.2158 -0.0860
 4053POPC   PO486599  23.523  27.401  15.446  0.0027 -0.3733 -0.2134
 4053POPC   GL186600  23.930  27.251  15.361  0.1893  0.1418 -0.0786
 4053POPC   GL286601  23.960  27.142  15.635 -0.3246 -0.1093 -0.0102
 4053POPC   C1A86602  24.394  27.269  15.295  0.1588  0.2150 -0.1361
 4053POPC   D2A86603  24.848  27.330  15.379  0.0923  0.0420  0.1310
 4053POPC   C3A86604  25.050  27.399  15.815  0.1977 -0.0717  0.1191
 4053POPC   C4A86605  25.172  27.533  16.231  0.3191  0.4221 -0.0609
 4053POPC   C1B86606  23.845  26.869  16.043 -0.1755 -0.0949 -0.0611
 4053POPC   C2B86607  23.982  26.566  16.367 -0.0905 -0.3433 -0.5728
 4053POPC   C3B86608  24.185  26.352  16.738  0.0187 -0.1820  0.1319
 4053POPC   C4B86609  24.510  26.047  16.768 -0.1836  0.0604 -0.0810
 4054POPC   NC386610  24.496  30.440  16.100 -0.2804  0.0743  0.2142
 4054POPC   PO486611  24.749  30.537  15.833 -0.0323  0.0431  0.0268
 4054POPC   GL186612  24.789  30.743  16.308 -0.0206 -0.0822 -0.2224
 4054POPC   GL286613  25.000  30.702  16.404 -0.0652 -0.0603 -0.0674
 4054POPC   C1A86614  24.768  31.169  16.466 -0.0428  0.1898  0.2870
 4054POPC   D2A86615  24.847  31.446  16.795  0.0886 -0.2450  0.0219
 4054POPC   C3A86616  25.008  31.243  17.173 -0.3932 -0.3481 -0.3049
 4054POPC   C4A86617  25.275  31.294  17.551  0.1114 -0.1917 -0.1524
 4054POPC   C1B86618  24.985  30.954  16.821 -0.0813  0.0353 -0.0910
 4054POPC   C2B86619  24.556  31.027  17.027 -0.1491  0.0341 -0.2990
 4054POPC   C3B86620  24.291  31.012  17.439 -0.0928 -0.4670  0.1259
 4054POPC   C4B86621  24.012  31.113  17.755 -0.0735 -0.2641 -0.0459
 4055POPC   NC386622  24.296  28.757  16.477 -0.3979 -0.2678  0.1138
 4055POPC   PO486623  24.441  28.446  16.369 -0.0580  0.3381  0.1313
 4055POPC   GL186624  24.677  28.261  16.626  0.1633  0.0394  0.2127
 4055POPC   GL286625  24.890  28.518  16.698  0.1436  0.4153 -0.0485
 4055POPC   C1A86626  24.639  27.980  17.017  0.0456 -0.0279  0.1535
 4055POPC   D2A86627  24.521  28.036  17.473 -0.0106 -0.1817 -0.3217
 4055POPC   C3A86628  24.361  27.809  17.804  0.1373  0.0440  0.0239
 4055POPC   C4A86629  24.333  27.365  17.939 -0.0303 -0.0662 -0.1400
 4055POPC   C1B86630  25.099  28.184  16.964 -0.1614  0.1170  0.3122
 4055POPC   C2B86631  25.067  27.941  17.300  0.2723  0.2436 -0.1648
 4055POPC   C3B86632  25.052  27.682  17.714  0.2176  0.0992  0.0297
 4055POPC   C4B86633  25.164  27.337  17.971  0.2877 -0.2078  0.0422
 4056POPC   NC386634  29.030  18.129  12.844 -0.0747 -0.1002  0.0083
 4056POPC   PO486635  29.339  18.203  13.019 -0.0693 -0.0768 -0.3258
 4056POPC   GL186636  28.998  18.464  13.183  0.1128 -0.0814  0.4428
 4056POPC   GL286637  29.094  18.656  13.028  0.0642  0.2081 -0.1089
 4056POPC   C1A86638  28.770  18.827  13.333 -0.0479 -0.2894 -0.1729
 4056POPC   D2A86639  28.794  19.158  13.737  0.0326 -0.1870 -0.1313
 4056POPC   C3A86640  28.493  19.441  14.024  0.0117  0.1087 -0.2167
 4056POPC   C4A86641  28.087  19.555  14.193  0.0543 -0.2651 -0.0289
 4056POPC   C1B86642  29.026  18.962  12.697  0.1532 -0.0036  0.1138
 4056POPC   C2B86643  28.706  19.342  12.608  0.0515  0.3041 -0.2442
 4056POPC   C3B86644  28.459  19.721  12.634  0.0725 -0.0213 -0.0284
 4056POPC   C4B86645  28.409  20.121  12.796 -0.2292  0.0764 -0.0641
 4057POPC   NC386646  31.926  29.874  16.810 -0.0504  0.2361  0.0446
 4057POPC   PO486647  31.653  30.095  16.673  0.4354  0.0015 -0.1654
 4057POPC   GL186648  31.556  30.023  17.062  0.1500 -0.2815 -0.0315
 4057POPC   GL286649  31.617  30.294  17.182 -0.0006 -0.2158  0.1440
 4057POPC   C1A86650  31.756  29.955  17.500 -0.0890  0.1419 -0.0349
 4057POPC   D2A86651  31.920  29.945  17.941 -0.4366 -0.1524 -0.0474
 4057POPC   C3A86652  31.698  29.950  18.351 -0.1360  0.1658  0.0049
 4057POPC   C4A86653  31.240  29.981  18.620  0.0741 -0.1612 -0.1925
 4057POPC   C1B86654  31.285  30.038  17.467 -0.0022  0.0693  0.0878
 4057POPC   C2B86655  31.419  29.934  17.915 -0.0056  0.0079 -0.0811
 4057POPC   C3B86656  31.322  29.669  18.290  0.2688  0.2534 -0.0564
 4057POPC   C4B86657  31.177  29.356  18.590 -0.0779 -0.0791 -0.0185
 4058POPC   NC386658  22.796  29.138  17.001 -0.0532 -0.1306 -0.2389
 4058POPC   PO486659  22.869  28.857  16.714 -0.1664  0.1071  0.0957
 4058POPC   GL186660  23.039  28.772  17.095  0.3639  0.4023 -0.5628
 4058POPC   GL286661  23.262  28.658  16.966  0.1671  0.2615 -0.0244
 4058POPC   C1A86662  23.268  28.927  17.461 -0.0621 -0.1009  0.2954
 4058POPC   D2A86663  23.451  29.015  17.830 -0.1489  0.1477  0.0583
 4058POPC   C3A86664  23.517  29.453  17.934  0.2327  0.1359 -0.5501
 4058POPC   C4A86665  23.730  29.834  18.025 -0.0827 -0.1020  0.0042
 4058POPC   C1B86666  23.325  28.393  17.284 -0.1513 -0.0408 -0.3604
 4058POPC   C2B86667  23.501  28.030  17.535 -0.0539  0.4574  0.0880
 4058POPC   C3B86668  23.585  27.757  17.920  0.1030 -0.0419 -0.0724
 4058POPC   C4B86669  24.000  27.735  18.110  0.4197  0.0857  0.2201
 4059POPC   NC386670  22.643  30.800  16.574 -0.1039  0.3085 -0.0927
 4059POPC   PO486671  22.320  30.625  16.414  0.2653 -0.1502 -0.1829
 4059POPC   GL186672  22.287  30.576  16.835  0.3600  0.0766  0.2480
 4059POPC   GL286673  22.044  30.780  16.807 -0.0558 -0.0009 -0.2459
 4059POPC   C1A86674  21.991  30.409  17.158  0.2203  0.0590  0.1161
 4059POPC   D2A86675  21.843  30.235  17.615 -0.1149  0.4806 -0.0558
 4059POPC   C3A86676  21.852  30.520  17.964 -0.1674 -0.3392  0.0899
 4059POPC   C4A86677  21.942  30.717  18.375 -0.2721 -0.1709 -0.1712
 4059POPC   C1B86678  22.371  30.829  17.167 -0.1284 -0.1588  0.4731
 4059POPC   C2B86679  22.537  31.129  17.490 -0.0944 -0.4530  0.0801
 4059POPC   C3B86680  22.634  31.484  17.779 -0.1764  0.1143  0.0011
 4059POPC   C4B86681  22.579  31.769  18.135  0.0800  0.1762  0.0727
 4060POPC   NC386682  30.173  27.048  15.540 -0.1059 -0.2574  0.0532
 4060POPC   PO486683  30.010  26.919  15.206 -0.3890 -0.3647 -0.1918
 4060POPC   GL186684  29.982  26.548  15.198 -0.1483  0.1096 -0.1381
 4060POPC   GL286685  30.082  26.518  15.505 -0.4007  0.0280  0.2520
 4060POPC   C1A86686  29.923  26.093  15.279  0.0332  0.3930 -0.2572
 4060POPC   D2A86687  29.822  25.669  15.418 -0.1869  0.1157  0.3668
 4060POPC   C3A86688  29.337  25.679  15.481 -0.1235  0.1439  0.2152
 4060POPC   C4A86689  28.989  25.394  15.607 -0.1800 -0.0098 -0.1302
 4060POPC   C1B86690  29.875  26.170  15.766 -0.0273  0.0170 -0.1579
 4060POPC   C2B86691  29.806  25.765  15.961  0.0723 -0.1681  0.2612
 4060POPC   C3B86692  29.439  25.669  16.125  0.3172  0.1386  0.0864
 4060POPC   C4B86693  29.027  25.524  16.139  0.0682  0.0497  0.0459
 4061POPC   NC386694  27.075  26.503  13.358  0.1515 -0.1696 -0.2231
 4061POPC   PO486695  26.773  26.709  13.307 -0.3129 -0.0502  0.0115
 4061POPC   GL186696  26.572  26.325  13.347 -0.2069  0.1847 -0.2655
 4061POPC   GL286697  26.690  26.184  13.171 -0.1225  0.0246 -0.0892
 4061POPC   C1A86698  26.677  26.022  13.677 -0.0046  0.2171  0.1184
 4061POPC   D2A86699  26.980  25.718  13.956  0.0058 -0.1859 -0.1467
 4061POPC   C3A86700  26.864  25.237  13.864 -0.1412 -0.0936 -0.1556
 4061POPC   C4A86701  26.472  24.969  13.839  0.2796  0.0955  0.0878
 4061POPC   C1B86702  26.319  25.963  13.210  0.3060  0.0850 -0.3648
 4061POPC   C2B86703  26.109  25.555  13.200 -0.0934  0.1636  0.1339
 4061POPC   C3B86704  25.861  25.165  13.030 -0.1664  0.2368 -0.4911
 4061POPC   C4B86705  25.826  24.679  13.021 -0.1469  0.0753 -0.1543
 4062POPC   NC386706  18.458  25.974  16.062  0.0099  0.0506  0.0603
 4062POPC   PO486707  18.494  25.958  16.432 -0.2484 -0.1537  0.2371
 4062POPC   GL186708  18.486  25.884  16.815 -0.2265 -0.1981  0.3363
 4062POPC   GL286709  18.486  25.601  16.843  0.0185 -0.4162 -0.0433
 4062POPC   C1A86710  18.048  25.815  17.012 -0.2570 -0.0976  0.4332
 4062POPC   D2A86711  18.006  25.650  17.448 -0.2975  0.1414 -0.1203
 4062POPC   C3A86712  17.785  25.788  17.866  0.1497 -0.4416  0.3255
 4062POPC   C4A86713  17.800  25.767  18.321 -0.0981 -0.0020  0.1516
 4062POPC   C1B86714  18.301  25.343  17.168  0.0928  0.4177 -0.0785
 4062POPC   C2B86715  18.358  25.193  17.607 -0.3500 -0.0078 -0.0448
 4062POPC   C3B86716  18.282  25.150  18.081 -0.0115 -0.0788 -0.1321
 4062POPC   C4B86717  17.860  25.067  18.251  0.2089 -0.3107 -0.2767
 4063POPC   NC386718  31.459  23.309  11.685 -0.2308 -0.1422 -0.0202
 4063POPC   PO486719  31.234  23.416  12.038 -0.1194  0.2142 -0.0843
 4063POPC   GL186720  30.828  23.645  12.206 -0.3895  0.5221  0.3891
 4063POPC   GL286721  30.844  23.372  12.309 -0.1054  0.2813 -0.1834
 4063POPC   C1A86722  30.483  23.738  12.460 -0.1588 -0.0720 -0.0243
 4063POPC   D2A86723  30.146  24.038  12.516  0.2151  0.0778 -0.1521
 4063POPC   C3A86724  29.846  24.268  12.273  0.0511  0.0779  0.0693
 4063POPC   C4A86725  29.422  24.413  12.331  0.4072 -0.1967  0.1387
 4063POPC   C1B86726  30.389  23.256  12.418  0.0356  0.0619 -0.2107
 4063POPC   C2B86727  30.215  22.903  12.618  0.1067 -0.0498 -0.0459
 4063POPC   C3B86728  29.820  22.686  12.808  0.0137 -0.1660 -0.0806
 4063POPC   C4B86729  29.533  22.353  13.014 -0.0537 -0.0841 -0.0405
 4064POPC   NC386730  21.560  30.429  16.855 -0.1472  0.2300  0.1959
 4064POPC   PO486731  21.241  30.504  16.665  0.2214  0.1317  0.0736
 4064POPC   GL186732  21.164  30.470  17.052 -0.0159  0.2403 -0.0566
 4064POPC   GL286733  21.099  30.748  17.056  0.3181 -0.0794 -0.1390
 4064POPC   C1A86734  21.032  30.464  17.497 -0.0633  0.0275 -0.2212
 4064POPC   D2A86735  21.033  30.683  17.913  0.0076  0.0094  0.0167
 4064POPC   C3A86736  21.475  30.852  17.967  0.2108 -0.0698 -0.0228
 4064POPC   C4A86737  21.555  31.278  18.211  0.2974  0.0991 -0.1038
 4064POPC   C1B86738  20.781  30.873  17.430  0.1875  0.0620 -0.1021
 4064POPC   C2B86739  20.511  31.103  17.727 -0.0523 -0.0047  0.0425
 4064POPC   C3B86740  20.498  31.207  18.167 -0.2048 -0.0197  0.1833
 4064POPC   C4B86741  20.786  31.304  18.561 -0.3326 -0.3064  0.0406
 4065POPC   NC386742  18.661  26.474  16.675  0.0667 -0.0975  0.1793
 4065POPC   PO486743  18.424  26.465  16.343  0.0623 -0.1814 -0.1510
 4065POPC   GL186744  18.199  26.486  16.636  0.0649  0.0093 -0.4367
 4065POPC   GL286745  18.119  26.206  16.711 -0.1963 -0.2478 -0.5065
 4065POPC   C1A86746  17.846  26.655  16.928 -0.0139 -0.1764  0.3478
 4065POPC   D2A86747  17.682  26.435  17.287  0.0366 -0.1287  0.1002
 4065POPC   C3A86748  17.632  26.505  17.703  0.0102  0.1390 -0.2523
 4065POPC   C4A86749  17.295  26.613  17.984  0.1124  0.1875  0.1220
 4065POPC   C1B86750  18.166  26.319  17.180 -0.2185 -0.3542  0.1547
 4065POPC   C2B86751  18.035  26.295  17.617  0.2466  0.1046 -0.0416
 4065POPC   C3B86752  18.032  26.263  18.074 -0.2565  0.1351 -0.0728
 4065POPC   C4B86753  18.107  26.412  18.499 -0.1236  0.3726 -0.0840
 4066POPC   NC386754  25.545  16.788  13.794 -0.0864  0.2662  0.1294
 4066POPC   PO486755  25.599  16.520  14.063  0.3768  0.1952 -0.0677
 4066POPC   GL186756  25.778  16.675  14.453 -0.0510  0.1017  0.1483
 4066POPC   GL286757  25.753  16.568  14.800 -0.1629 -0.0508  0.0949
 4066POPC   C1A86758  25.772  17.157  14.493  0.1932 -0.0645  0.1605
 4066POPC   D2A86759  25.771  17.618  14.606 -0.2767 -0.0171  0.1564
 4066POPC   C3A86760  25.916  17.900  14.945 -0.1582 -0.2491 -0.0825
 4066POPC   C4A86761  25.900  18.162  15.380 -0.2288 -0.2484 -0.0297
 4066POPC   C1B86762  25.838  16.794  15.173  0.1725  0.3568 -0.4685
 4066POPC   C2B86763  25.878  17.005  15.634 -0.2020  0.2088  0.1617
 4066POPC   C3B86764  25.743  17.248  15.916  0.0292  0.0552 -0.2655
 4066POPC   C4B86765  25.596  17.687  15.953  0.0785 -0.5007  0.1315
 4067POPC   NC386766  19.818  27.466  16.758  0.4235  0.3416 -0.5508
 4067POPC   PO486767  19.764  27.211  16.449  0.0549 -0.1972  0.1045
 4067POPC   GL186768  19.809  27.006  16.803 -0.0069 -0.1086 -0.0220
 4067POPC   GL286769  19.731  26.845  16.834  0.0274  0.0008  0.0258
 4067POPC   C1A86770  19.985  26.985  17.232  0.1519 -0.2447  0.1335
 4067POPC   D2A86771  19.638  26.952  17.603 -0.3481 -0.1037 -0.0739
 4067POPC   C3A86772  19.338  26.723  17.954 -0.0267  0.0455 -0.2953
 4067POPC   C4A86773  19.173  26.667  18.417 -0.1234  0.0521  0.1797
 4067POPC   C1B86774  19.649  26.627  17.211  0.2913  0.4984 -0.0340
 4067POPC   C2B86775  19.737  26.255  17.521 -0.0759 -0.1141 -0.1983
 4067POPC   C3B86776  19.673  26.290  17.950  0.0086 -0.0802  0.0198
 4067POPC   C4B86777  19.425  26.269  18.349 -0.0750  0.1152  0.0753
 4068POPC   NC386778  16.777  32.439  16.658  0.2856 -0.0534 -0.1689
 4068POPC   PO486779  16.711  32.723  16.375 -0.1320  0.1043  0.1345
 4068POPC   GL186780  16.721  32.926  16.756 -0.1475 -0.2425 -0.0976
 4068POPC   GL286781  16.953  33.065  16.739  0.3164 -0.1816 -0.4987
 4068POPC   C1A86782  16.603  33.397  16.816 -0.1005  0.1380 -0.4188
 4068POPC   D2A86783  16.248  33.605  17.088  0.0213  0.0202  0.1415
 4068POPC   C3A86784  16.283  33.542  17.547  0.0607 -0.0717  0.0853
 4068POPC   C4A86785  16.216  33.528  18.020 -0.0460 -0.0900 -0.4668
 4068POPC   C1B86786  17.121  33.450  16.963  0.1007 -0.3695 -0.0444
 4068POPC   C2B86787  17.265  33.685  17.367  0.0622  0.0455 -0.0755
 4068POPC   C3B86788  17.425  33.499  17.795  0.0943 -0.1866 -0.1749
 4068POPC   C4B86789  17.543  33.270  18.150 -0.0638  0.2881  0.3470
 4069POPC   NC386790  30.268  30.830  16.344 -0.4424 -0.3417  0.0160
 4069POPC   PO486791  30.120  30.452  16.409 -0.2090 -0.2218  0.0777
 4069POPC   GL186792  30.111  30.498  16.783 -0.2904  0.2899  0.3617
 4069POPC   GL286793  30.199  30.810  16.845 -0.4683 -0.0049  0.0405
 4069POPC   C1A86794  30.023  30.511  17.204  0.3772 -0.2171 -0.2308
 4069POPC   D2A86795  30.007  30.196  17.536 -0.1535  0.1774  0.1050
 4069POPC   C3A86796  29.811  30.244  17.943 -0.1915  0.0563 -0.1295
 4069POPC   C4A86797  29.764  30.273  18.391 -0.0177 -0.0292 -0.0686
 4069POPC   C1B86798  30.251  31.018  17.304  0.0358 -0.1469  0.0652
 4069POPC   C2B86799  30.499  31.360  17.558 -0.2722  0.1112 -0.0727
 4069POPC   C3B86800  30.647  31.575  17.943 -0.2148  0.0759 -0.0310
 4069POPC   C4B86801  30.461  31.802  18.319  0.2269  0.1385 -0.0978
 4070POPC   NC386802  29.426  26.313  13.430 -0.0662  0.3426 -0.0877
 4070POPC   PO486803  29.099  26.535  13.512  0.1667  0.0245  0.0048
 4070POPC   GL186804  28.955  26.187  13.587  0.2210  0.2085 -0.0821
 4070POPC   GL286805  28.861  26.240  13.873  0.0141 -0.4327  0.5564
 4070POPC   C1A86806  28.567  25.907  13.699 -0.3204  0.3006  0.1313
 4070POPC   D2A86807  28.382  25.467  13.656 -0.0432 -0.0633  0.0489
 4070POPC   C3A86808  27.932  25.277  13.678  0.0667 -0.0927 -0.2288
 4070POPC   C4A86809  27.493  25.484  13.655 -0.0054  0.0575 -0.2052
 4070POPC   C1B86810  28.824  25.862  14.144  0.2747 -0.1433 -0.2055
 4070POPC   C2B86811  28.750  25.472  14.412 -0.0697 -0.0286 -0.0343
 4070POPC   C3B86812  28.641  25.049  14.651 -0.2387  0.1041 -0.2296
 4070POPC   C4B86813  28.459  24.623  14.789 -0.1593  0.0618 -0.0159
 4071POPC   NC386814  26.534  29.761  16.546 -0.0960 -0.0207  0.0424
 4071POPC   PO486815  26.643  29.540  16.258 -0.0374 -0.3415  0.0692
 4071POPC   GL186816  26.427  29.334  16.626  0.1084 -0.0549 -0.1477
 4071POPC   GL286817  26.711  29.204  16.788  0.0627 -0.0442 -0.2439
 4071POPC   C1A86818  26.295  29.583  16.950 -0.0125 -0.2138  0.0661
 4071POPC   D2A86819  26.347  29.601  17.398 -0.0810 -0.0486  0.0506
 4071POPC   C3A86820  25.994  29.454  17.714 -0.2712 -0.0441 -0.1637
 4071POPC   C4A86821  25.889  29.400  18.128 -0.0464 -0.3090 -0.2288
 4071POPC   C1B86822  26.610  29.186  17.275 -0.0809  0.1261 -0.0707
 4071POPC   C2B86823  26.548  29.162  17.702 -0.0228 -0.2732  0.0136
 4071POPC   C3B86824  26.841  29.304  18.054  0.2249  0.3490  0.2333
 4071POPC   C4B86825  27.200  29.273  18.421  0.1224  0.3752 -0.0388
 4072POPC   NC386826  22.155  25.218  14.731  0.1643  0.2440  0.1994
 4072POPC   PO486827  22.219  24.882  14.908  0.0644  0.0195 -0.0736
 4072POPC   GL186828  22.368  24.571  15.141  0.2502 -0.1782  0.1043
 4072POPC   GL286829  22.591  24.535  14.898 -0.2501  0.0764  0.1651
 4072POPC   C1A86830  22.655  24.716  15.476 -0.1057  0.1713 -0.1000
 4072POPC   D2A86831  22.923  24.489  15.822 -0.1349 -0.5338  0.1003
 4072POPC   C3A86832  23.270  24.709  16.026 -0.0473 -0.0079 -0.1247
 4072POPC   C4A86833  23.647  24.990  16.030 -0.2557  0.0499 -0.2051
 4072POPC   C1B86834  22.758  24.261  15.256  0.0887 -0.1617  0.4034
 4072POPC   C2B86835  23.162  24.192  15.474  0.0076 -0.1629 -0.0643
 4072POPC   C3B86836  23.432  24.295  15.842 -0.0092 -0.1818 -0.0019
 4072POPC   C4B86837  23.407  24.169  16.265 -0.0246  0.0992  0.1448
 4073POPC   NC386838  15.926  17.715  15.514  0.0385  0.0011 -0.0192
 4073POPC   PO486839  15.735  18.045  15.597  0.0001 -0.1837 -0.2060
 4073POPC   GL186840  15.722  18.071  16.020  0.3976  0.1717  0.3772
 4073POPC   GL286841  15.836  18.390  16.101 -0.3401 -0.3302  0.1448
 4073POPC   C1A86842  15.484  17.954  16.430 -0.0297  0.0706 -0.3583
 4073POPC   D2A86843  15.465  17.858  16.923  0.0458 -0.0306  0.3050
 4073POPC   C3A86844  15.063  17.855  17.167  0.2867 -0.0025 -0.1099
 4073POPC   C4A86845  14.916  17.495  17.429  0.0264  0.0988  0.1391
 4073POPC   C1B86846  15.700  18.551  16.503 -0.0039  0.0000  0.2003
 4073POPC   C2B86847  15.537  18.354  16.820 -0.0646 -0.0382  0.2379
 4073POPC   C3B86848  15.413  18.178  17.284  0.0830 -0.1261 -0.0409
 4073POPC   C4B86849  15.238  18.095  17.662 -0.1271 -0.0367  0.3490
 4074POPC   NC386850  21.947  24.839  15.385  0.1173  0.1795  0.1758
 4074POPC   PO486851  21.812  25.167  15.531 -0.1681 -0.1370 -0.1797
 4074POPC   GL186852  22.200  25.286  15.666 -0.2180 -0.0446 -0.1624
 4074POPC   GL286853  22.213  25.071  15.809 -0.0971  0.2762 -0.0023
 4074POPC   C1A86854  22.358  25.497  16.033 -0.1351 -0.0168 -0.0943
 4074POPC   D2A86855  22.496  25.414  16.492  0.1831  0.1802  0.3134
 4074POPC   C3A86856  22.389  25.602  16.865  0.3090  0.0300 -0.1430
 4074POPC   C4A86857  22.480  25.711  17.322 -0.3025  0.3393 -0.1642
 4074POPC   C1B86858  22.575  24.880  15.933 -0.0816 -0.0513 -0.0408
 4074POPC   C2B86859  22.787  24.775  16.301  0.1458 -0.0485 -0.3120
 4074POPC   C3B86860  23.115  24.580  16.553 -0.0362  0.1398 -0.1830
 4074POPC   C4B86861  23.364  24.619  16.913  0.1634  0.3646  0.1708
 4075POPC   NC386862  23.580  26.236  14.917 -0.0807 -0.1094  0.1188
 4075POPC   PO486863  23.561  26.460  15.250 -0.1962 -0.2320  0.1670
 4075POPC   GL186864  23.681  26.158  15.344  0.2100 -0.1686 -0.4256
 4075POPC   GL286865  23.479  26.059  15.492  0.2964 -0.1722  0.0512
 4075POPC   C1A86866  24.078  25.931  15.405 -0.1367 -0.1267  0.2398
 4075POPC   D2A86867  24.370  25.651  15.164 -0.0019 -0.3020  0.1976
 4075POPC   C3A86868  24.749  25.421  15.369 -0.1968 -0.3530  0.0374
 4075POPC   C4A86869  25.070  25.022  15.454  0.0502 -0.1007  0.0261
 4075POPC   C1B86870  23.674  25.816  15.752 -0.2365 -0.0487  0.1245
 4075POPC   C2B86871  23.918  25.462  15.973  0.0714 -0.1236  0.0414
 4075POPC   C3B86872  24.229  25.197  16.147  0.0800  0.0992  0.0761
 4075POPC   C4B86873  24.523  24.846  16.206  0.3910 -0.1070 -0.1872
 4076POPC   NC386874  26.222  26.750  11.497  0.0560 -0.0442  0.2305
 4076POPC   PO486875  25.963  26.983  11.270 -0.0587 -0.0235  0.2413
 4076POPC   GL186876  25.988  26.550  11.160  0.1891 -0.2377  0.1677
 4076POPC   GL286877  26.324  26.501  11.035  0.0774  0.1840 -0.1292
 4076POPC   C1A86878  25.891  26.188  10.915  0.2888 -0.0304  0.0324
 4076POPC   D2A86879  25.885  26.009  10.471  0.4703  0.2443  0.2619
 4076POPC   C3A86880  26.129  25.586  10.489  0.1076 -0.3153 -0.0394
 4076POPC   C4A86881  26.170  25.151  10.653  0.0100  0.1422 -0.1646
 4076POPC   C1B86882  26.636  26.532  11.428 -0.0671  0.2340  0.3171
 4076POPC   C2B86883  26.683  26.103  11.596 -0.1504 -0.2521 -0.1358
 4076POPC   C3B86884  26.485  25.692  11.452 -0.0145  0.1937 -0.0632
 4076POPC   C4B86885  26.389  25.242  11.449  0.2983 -0.0226  0.1201
 4077POPC   NC386886  28.886   0.275   8.350  0.0309 -0.1467  0.1684
 4077POPC   PO486887  29.224   0.363   8.485 -0.0255 -0.1758 -0.0686
 4077POPC   GL186888  29.003   0.683   8.207  0.2731 -0.0936  0.4001
 4077POPC   GL286889  28.769   0.614   7.948 -0.0064 -0.3325  0.1243
 4077POPC   C1A86890  28.947   1.131   7.996  0.0553  0.3211  0.0983
 4077POPC   D2A86891  29.013   1.344   7.649  0.1759  0.0840  0.1267
 4077POPC   C3A86892  28.985   1.108   7.288  0.0380  0.0634 -0.3047
 4077POPC   C4A86893  29.023   1.114   6.813  0.3394  0.1906  0.2433
 4077POPC   C1B86894  28.652   0.973   7.672 -0.1632 -0.1258  0.1427
 4077POPC   C2B86895  28.574   1.398   7.485 -0.0585  0.3041 -0.1334
 4077POPC   C3B86896  28.817   1.692   7.242  0.0219 -0.0857 -0.0450
 4077POPC   C4B86897  29.189   1.802   7.527 -0.5477  0.1372  0.1192
 4078POPC   NC386898  28.635  27.726  10.186 -0.0109  0.0852 -0.0676
 4078POPC   PO486899  28.984  27.776  10.043  0.0747 -0.2168  0.3512
 4078POPC   GL186900  29.010  27.425   9.907 -0.2021  0.3232 -0.2163
 4078POPC   GL286901  28.742  27.289   9.960 -0.0805 -0.1389 -0.1276
 4078POPC   C1A86902  29.250  27.109   9.610 -0.5067  0.1660 -0.0699
 4078POPC   D2A86903  29.084  26.785   9.364  0.0139  0.0265  0.0284
 4078POPC   C3A86904  29.089  26.448   9.018  0.1713  0.2501  0.1452
 4078POPC   C4A86905  28.838  26.314   8.638 -0.1692 -0.0428 -0.1990
 4078POPC   C1B86906  28.577  27.177   9.518  0.0067 -0.1980 -0.2623
 4078POPC   C2B86907  28.263  26.971   9.291  0.1332  0.0840  0.1362
 4078POPC   C3B86908  28.153  27.017   8.844 -0.0325 -0.1792  0.3605
 4078POPC   C4B86909  27.923  26.803   8.469 -0.0324  0.1863  0.1103
 4079POPC   NC386910  25.537  27.468  10.138  0.1912 -0.1261 -0.0918
 4079POPC   PO486911  25.788  27.682   9.979  0.1085  0.0670 -0.2114
 4079POPC   GL186912  26.043  27.492   9.753  0.1837 -0.1005  0.1099
 4079POPC   GL286913  25.954  27.500   9.488  0.2029 -0.0510 -0.2522
 4079POPC   C1A86914  26.212  27.050   9.774  0.0037  0.2887 -0.0058
 4079POPC   D2A86915  26.333  26.655   9.691 -0.0213 -0.1207  0.0839
 4079POPC   C3A86916  26.061  26.316   9.464 -0.4238 -0.0596 -0.2473
 4079POPC   C4A86917  26.294  25.927   9.365  0.2955 -0.3660  0.1894
 4079POPC   C1B86918  25.952  27.094   9.261 -0.1462  0.1988 -0.1454
 4079POPC   C2B86919  26.146  26.782   8.918 -0.0351 -0.1314  0.1966
 4079POPC   C3B86920  26.361  26.686   8.480  0.1423 -0.0126 -0.2706
 4079POPC   C4B86921  26.757  26.640   8.218  0.0282  0.3015 -0.1252
 4080POPC   NC386922  28.445  31.533  15.841  0.4079 -0.1808 -0.1169
 4080POPC   PO486923  28.125  31.717  16.068 -0.0928  0.1649  0.0381
 4080POPC   GL186924  28.048  31.830  16.451 -0.0226  0.1071 -0.1096
 4080POPC   GL286925  28.335  31.896  16.556 -0.1630  0.2988  0.0878
 4080POPC   C1A86926  27.642  32.065  16.567  0.1152  0.0096 -0.1255
 4080POPC   D2A86927  27.325  32.375  16.735  0.1195  0.2189 -0.2159
 4080POPC   C3A86928  27.422  32.848  16.783  0.0481  0.0912 -0.1935
 4080POPC   C4A86929  27.751  33.188  16.905 -0.0098 -0.2241  0.2897
 4080POPC   C1B86930  28.422  32.043  17.018  0.0041  0.2899  0.3489
 4080POPC   C2B86931  28.358  32.323  17.373  0.1106 -0.1335  0.0866
 4080POPC   C3B86932  28.551  32.324  17.796 -0.3212 -0.0286  0.0199
 4080POPC   C4B86933  28.937  32.453  17.956 -0.1196  0.1640  0.3395
 4081POPC   NC386934  21.749  25.162  10.541 -0.0851 -0.1150  0.0876
 4081POPC   PO486935  21.496  24.924  10.780 -0.1835 -0.0408 -0.0063
 4081POPC   GL186936  21.828  24.753  10.635 -0.1627 -0.0304 -0.2151
 4081POPC   GL286937  21.932  24.625  10.848 -0.0851 -0.1497  0.0126
 4081POPC   C1A86938  22.000  24.827  10.170 -0.0159 -0.0159 -0.1257
 4081POPC   D2A86939  21.940  24.691   9.709 -0.2978 -0.0619  0.1438
 4081POPC   C3A86940  22.215  24.751   9.400  0.0583 -0.0454 -0.0530
 4081POPC   C4A86941  22.549  24.901   9.126  0.0212  0.0423 -0.1168
 4081POPC   C1B86942  22.035  24.391  10.436  0.0443  0.0766  0.0460
 4081POPC   C2B86943  22.025  24.265   9.999  0.0951 -0.1264  0.0057
 4081POPC   C3B86944  22.157  24.192   9.584 -0.0819 -0.2477  0.0455
 4081POPC   C4B86945  22.492  23.979   9.323  0.0501  0.0172 -0.1401
 4082POPC   NC386946  29.254  27.956  15.789  0.2300  0.0364 -0.1284
 4082POPC   PO486947  29.201  27.616  15.539 -0.1703  0.2507 -0.2625
 4082POPC   GL186948  29.022  27.264  15.851 -0.0287 -0.1221 -0.1696
 4082POPC   GL286949  29.039  27.467  16.054  0.0343  0.0389  0.0066
 4082POPC   C1A86950  28.875  26.983  16.176  0.1157 -0.0119 -0.0368
 4082POPC   D2A86951  28.702  26.583  16.427  0.0741  0.2417  0.1947
 4082POPC   C3A86952  28.815  26.222  16.678 -0.0959 -0.1920  0.1034
 4082POPC   C4A86953  29.125  26.004  16.873  0.0478  0.2656 -0.0265
 4082POPC   C1B86954  28.925  27.410  16.516  0.1585  0.0829 -0.0723
 4082POPC   C2B86955  28.597  27.111  16.685  0.1049  0.1938 -0.2144
 4082POPC   C3B86956  28.568  26.990  17.170  0.1564  0.0174  0.1498
 4082POPC   C4B86957  28.370  26.646  17.423  0.3031 -0.1954 -0.0232
 4083POPC   NC386958  19.570  21.202   9.537 -0.1064  0.0534 -0.0645
 4083POPC   PO486959  19.545  21.592   9.565 -0.4554  0.0023  0.1412
 4083POPC   GL186960  19.844  21.611   9.304  0.2605  0.1413 -0.2458
 4083POPC   GL286961  19.867  21.391   9.156  0.2035  0.1613 -0.0263
 4083POPC   C1A86962  20.000  21.809   8.927  0.1036 -0.2697  0.2078
 4083POPC   D2A86963  20.207  21.956   8.626 -0.1239 -0.0318 -0.1327
 4083POPC   C3A86964  20.306  22.449   8.637 -0.2450 -0.1868  0.2396
 4083POPC   C4A86965  20.484  22.641   8.304  0.2401 -0.3617  0.4416
 4083POPC   C1B86966  20.288  21.555   9.248 -0.0596  0.1232 -0.0521
 4083POPC   C2B86967  20.574  21.706   8.905 -0.0161  0.2733 -0.1853
 4083POPC   C3B86968  20.978  21.855   8.721 -0.0652 -0.0632 -0.2658
 4083POPC   C4B86969  21.208  21.695   8.348  0.0685  0.1598  0.1602
 4084POPC   NC386970  19.391  21.466  15.222  0.0582 -0.1123  0.0422
 4084POPC   PO486971  19.342  21.169  15.433  0.2545  0.0663 -0.1726
 4084POPC   GL186972  19.510  20.931  15.629  0.0468 -0.0435 -0.0135
 4084POPC   GL286973  19.818  21.079  15.698  0.0561  0.0939 -0.1508
 4084POPC   C1A86974  19.494  21.067  16.111  0.1697 -0.1055 -0.1086
 4084POPC   D2A86975  19.496  21.464  16.273  0.1357  0.0469  0.0448
 4084POPC   C3A86976  19.608  21.566  16.743 -0.1080  0.2473 -0.0216
 4084POPC   C4A86977  19.820  21.853  16.966  0.0782  0.1618 -0.0638
 4084POPC   C1B86978  19.989  21.035  16.099  0.1050  0.0804 -0.0183
 4084POPC   C2B86979  19.917  21.190  16.513  0.1191  0.3485 -0.2027
 4084POPC   C3B86980  19.995  21.334  16.887 -0.1145  0.1734  0.0691
 4084POPC   C4B86981  20.008  21.413  17.355 -0.3917 -0.0732 -0.1442
 4085POPC   NC386982  23.825  29.225  16.787 -0.2817 -0.2538 -0.2100
 4085POPC   PO486983  23.743  28.966  16.526 -0.0102  0.0990  0.0204
 4085POPC   GL186984  23.768  28.702  16.743 -0.1367  0.3922  0.2384
 4085POPC   GL286985  23.998  28.806  16.932  0.1798 -0.2701  0.1125
 4085POPC   C1A86986  23.738  28.276  16.958 -0.1088 -0.0509 -0.0662
 4085POPC   D2A86987  23.985  28.160  17.298 -0.4238 -0.1369 -0.1497
 4085POPC   C3A86988  23.971  28.181  17.794 -0.0750 -0.1384  0.3260
 4085POPC   C4A86989  23.995  28.257  18.258  0.0418  0.2755 -0.0353
 4085POPC   C1B86990  23.726  28.750  17.336 -0.0371 -0.2814  0.0777
 4085POPC   C2B86991  23.671  28.542  17.737 -0.0499 -0.0055  0.0858
 4085POPC   C3B86992  23.389  28.231  17.978 -0.2774  0.1474 -0.2118
 4085POPC   C4B86993  22.987  27.912  18.052 -0.1254  0.0198 -0.0746
 4086POPC   NC386994  26.183  29.954  15.775 -0.2747  0.0988  0.1316
 4086POPC   PO486995  25.872  29.797  15.970 -0.0415  0.0190  0.0754
 4086POPC   GL186996  25.977  30.041  16.289 -0.2101  0.5738  0.3187
 4086POPC   GL286997  25.685  30.138  16.394 -0.2496  0.3484 -0.0431
 4086POPC   C1A86998  26.116  30.024  16.699 -0.1546 -0.0818  0.0691
 4086POPC   D2A86999  25.791  29.850  16.965 -0.2699  0.0283 -0.2022
 4086POPC   C3A87000  25.734  30.061  17.375  0.0234 -0.0368 -0.0035
 4086POPC   C4A87001  25.832  30.271  17.764 -0.2595 -0.2113  0.0380
 4086POPC   C1B87002  25.692  30.362  16.812 -0.1319  0.1083  0.1154
 4086POPC   C2B87003  25.757  30.549  17.211 -0.0326 -0.1026 -0.1001
 4086POPC   C3B87004  25.617  30.768  17.594 -0.1169 -0.2978 -0.1200
 4086POPC   C4B87005  25.289  30.681  17.889 -0.1824  0.1279 -0.1577
 4087POPC   NC387006  28.334  26.863  14.908 -0.0297  0.0771  0.0754
 4087POPC   PO487007  28.278  27.174  15.151 -0.1370 -0.0312  0.5191
 4087POPC   GL187008  28.026  26.885  15.206  0.5294 -0.1795 -0.3621
 4087POPC   GL287009  28.070  26.659  15.320  0.1583 -0.1213 -0.4388
 4087POPC   C1A87010  27.785  26.442  15.015 -0.0439  0.1786 -0.0405
 4087POPC   D2A87011  27.973  26.076  14.824 -0.0743  0.0345  0.3523
 4087POPC   C3A87012  28.214  25.748  15.079 -0.0145 -0.2327  0.2149
 4087POPC   C4A87013  28.469  25.451  14.911 -0.4633 -0.0333 -0.0876
 4087POPC   C1B87014  28.075  26.406  15.644 -0.2068  0.1414  0.0750
 4087POPC   C2B87015  27.763  26.188  15.942 -0.1886  0.0917 -0.1803
 4087POPC   C3B87016  27.732  26.247  16.396  0.4741  0.0841 -0.1527
 4087POPC   C4B87017  27.870  26.357  16.838  0.0480 -0.2516 -0.1549
 4088POPC   NC387018  18.861  21.029  15.464  0.0600 -0.3451 -0.1647
 4088POPC   PO487019  18.693  20.733  15.682  0.4206 -0.1835 -0.3284
 4088POPC   GL187020  18.809  20.776  16.091  0.2858 -0.1048  0.1469
 4088POPC   GL287021  18.608  20.800  16.269 -0.5546  0.0310  0.0050
 4088POPC   C1A87022  19.085  20.915  16.405 -0.1334  0.1079  0.0956
 4088POPC   D2A87023  19.429  21.129  16.636 -0.0137  0.1530  0.2084
 4088POPC   C3A87024  19.487  21.089  17.107  0.1970 -0.4308  0.0201
 4088POPC   C4A87025  19.506  21.275  17.521  0.3293  0.0021  0.2582
 4088POPC   C1B87026  18.734  20.534  16.641 -0.2270  0.0633  0.1611
 4088POPC   C2B87027  18.816  20.334  17.094 -0.0922 -0.4068  0.0922
 4088POPC   C3B87028  19.071  20.268  17.525  0.2491  0.1494 -0.1345
 4088POPC   C4B87029  19.065  20.303  17.955 -0.2081  0.0744  0.0053
 4089POPC   NC387030  30.648  28.067  16.650  0.1309  0.0652  0.1502
 4089POPC   PO487031  30.997  27.952  16.657  0.1208  0.0366 -0.3037
 4089POPC   GL187032  31.049  28.001  16.995 -0.1323  0.0420  0.1267
 4089POPC   GL287033  30.998  27.705  17.128 -0.2367  0.0886  0.0400
 4089POPC   C1A87034  31.289  28.070  17.344 -0.5864  0.1913 -0.0605
 4089POPC   D2A87035  31.261  27.696  17.600  0.1955  0.1284 -0.0807
 4089POPC   C3A87036  31.451  27.740  18.045 -0.1151  0.2347 -0.1901
 4089POPC   C4A87037  31.251  27.659  18.451  0.2295  0.1359  0.2328
 4089POPC   C1B87038  30.765  27.281  17.236  0.2849 -0.0870 -0.2440
 4089POPC   C2B87039  30.649  26.828  17.284 -0.0668 -0.0340 -0.2096
 4089POPC   C3B87040  30.258  26.608  17.395  0.4022  0.1586 -0.0874
 4089POPC   C4B87041  29.851  26.451  17.442 -0.0603 -0.1046 -0.2626
 4090POPC   NC387042  25.426  32.316  14.920  0.1355  0.1814  0.0237
 4090POPC   PO487043  25.518  32.661  14.823 -0.1883 -0.2422  0.3566
 4090POPC   GL187044  25.311  32.802  15.066  0.1216  0.1917 -0.6429
 4090POPC   GL287045  25.324  33.085  15.188 -0.1633  0.0575  0.1314
 4090POPC   C1A87046  24.942  32.632  15.361 -0.1387 -0.2914  0.2476
 4090POPC   D2A87047  24.641  32.463  15.724 -0.1819  0.3783  0.0115
 4090POPC   C3A87048  24.567  32.568  16.142  0.0008 -0.0024 -0.2000
 4090POPC   C4A87049  24.462  32.649  16.577 -0.0540  0.1081 -0.2594
 4090POPC   C1B87050  25.520  33.281  15.549 -0.0809 -0.0165 -0.1982
 4090POPC   C2B87051  25.643  33.490  15.912 -0.0899 -0.1100  0.2306
 4090POPC   C3B87052  25.883  33.881  16.030  0.0458 -0.1090  0.0974
 4090POPC   C4B87053  25.808  34.348  16.105 -0.2105  0.1536  0.0456
 4091POPC   NC387054  25.486  26.878  11.415  0.1158 -0.1048  0.0463
 4091POPC   PO487055  25.421  26.948  11.800 -0.0260  0.2822 -0.0739
 4091POPC   GL187056  25.631  26.609  11.835  0.0917 -0.0061  0.0137
 4091POPC   GL287057  25.766  26.517  11.601  0.0112  0.1880  0.2539
 4091POPC   C1A87058  25.316  26.239  11.747  0.0259 -0.1453  0.1514
 4091POPC   D2A87059  24.960  25.989  11.621 -0.1835 -0.1161  0.1566
 4091POPC   C3A87060  24.490  26.087  11.603  0.2340  0.0643  0.1986
 4091POPC   C4A87061  24.131  25.906  11.888  0.1019  0.0960  0.2461
 4091POPC   C1B87062  25.524  26.312  11.271 -0.0784 -0.3119  0.0363
 4091POPC   C2B87063  25.232  25.965  11.143  0.1417 -0.2413 -0.0503
 4091POPC   C3B87064  25.228  25.457  11.139  0.1491 -0.0471 -0.1701
 4091POPC   C4B87065  25.416  25.231  11.476  0.1357  0.3199 -0.0784
 4092POPC   NC387066   1.193  24.257  16.329  0.0715 -0.1464  0.0793
 4092POPC   PO487067   0.876  24.481  16.358  0.0965 -0.2755  0.2849
 4092POPC   GL187068   1.053  24.616  16.640 -0.3387  0.1623 -0.0138
 4092POPC   GL287069   0.822  24.626  16.866 -0.2401 -0.1628 -0.1127
 4092POPC   C1A87070   1.398  24.706  16.969 -0.0893  0.1334  0.1993
 4092POPC   D2A87071   1.737  24.733  17.304 -0.0616  0.0416  0.2814
 4092POPC   C3A87072   1.654  24.912  17.690 -0.0693 -0.2924 -0.1555
 4092POPC   C4A87073   1.242  25.099  17.768 -0.2888 -0.0685  0.2299
 4092POPC   C1B87074   1.041  24.400  17.214  0.1951 -0.2014 -0.0697
 4092POPC   C2B87075   1.209  24.529  17.643  0.2919 -0.0779 -0.1119
 4092POPC   C3B87076   1.415  24.379  18.035 -0.1088 -0.3942  0.2399
 4092POPC   C4B87077   1.372  24.321  18.431  0.1162  0.2375 -0.1570
 4093POPC   NC387078  20.918  27.108   8.686  0.4540  0.0111  0.3474
 4093POPC   PO487079  21.001  27.437   8.907 -0.3104  0.1488 -0.2485
 4093POPC   GL187080  21.307  27.276   8.605 -0.0490  0.2782 -0.3092
 4093POPC   GL287081  21.452  27.067   8.763 -0.0622  0.0269 -0.1534
 4093POPC   C1A87082  21.503  26.972   8.286  0.1487 -0.1985 -0.0641
 4093POPC   D2A87083  21.735  26.694   7.947 -0.0847 -0.3187  0.1352
 4093POPC   C3A87084  21.875  26.409   7.595 -0.2590  0.0272  0.0829
 4093POPC   C4A87085  22.054  26.651   7.218 -0.0368  0.0774 -0.1945
 4093POPC   C1B87086  21.890  26.981   8.657 -0.1768  0.1419  0.2446
 4093POPC   C2B87087  22.223  26.674   8.578  0.1508  0.0825  0.0471
 4093POPC   C3B87088  22.482  26.407   8.359 -0.0808 -0.0970 -0.1155
 4093POPC   C4B87089  22.573  25.966   8.224 -0.4676 -0.0198  0.0837
 4094POPC   NC387090  32.196  21.205  14.918 -0.1191 -0.0339  0.0703
 4094POPC   PO487091  31.966  21.392  15.154 -0.0759  0.3150  0.1801
 4094POPC   GL187092  31.790  21.203  15.520  0.3091 -0.2347  0.1845
 4094POPC   GL287093  31.600  21.465  15.480 -0.1688  0.1376 -0.0046
 4094POPC   C1A87094  31.386  21.062  15.694  0.1546 -0.3374  0.0911
 4094POPC   D2A87095  31.005  21.109  15.944 -0.0594 -0.2131 -0.1548
 4094POPC   C3A87096  30.594  21.247  15.996  0.1610  0.1053 -0.1374
 4094POPC   C4A87097  30.297  21.457  16.296  0.1750  0.2973 -0.0415
 4094POPC   C1B87098  31.562  21.852  15.719  0.1743  0.0401  0.2718
 4094POPC   C2B87099  31.278  21.942  16.073  0.1264  0.1592  0.1841
 4094POPC   C3B87100  30.789  21.933  16.014  0.3826  0.0934  0.0794
 4094POPC   C4B87101  30.397  21.779  15.893 -0.0020  0.0779  0.3745
 4095POPC   NC387102  26.607  26.995  14.062  0.2483  0.2308  0.0954
 4095POPC   PO487103  26.781  26.680  14.256 -0.1547 -0.2462  0.2686
 4095POPC   GL187104  26.935  26.354  14.378  0.0390  0.1681  0.1052
 4095POPC   GL287105  26.838  26.144  14.165  0.1462 -0.0433  0.2636
 4095POPC   C1A87106  27.049  25.927  14.557  0.2411  0.0619 -0.2146
 4095POPC   D2A87107  27.157  25.569  14.820 -0.3287 -0.2539 -0.6454
 4095POPC   C3A87108  27.597  25.391  14.776 -0.1083 -0.0670 -0.1398
 4095POPC   C4A87109  27.836  25.180  15.143  0.1788 -0.0525  0.0900
 4095POPC   C1B87110  26.606  25.765  14.276  0.2832  0.1143 -0.1652
 4095POPC   C2B87111  26.832  25.356  14.448  0.1832  0.3686  0.1789
 4095POPC   C3B87112  27.045  25.082  14.748  0.1026  0.3901 -0.1946
 4095POPC   C4B87113  27.431  24.868  14.800 -0.1504  0.0047 -0.1423
 4096POPC   NC387114  29.267  27.476  10.831  0.0471 -0.0070 -0.0523
 4096POPC   PO487115  29.027  27.207  10.988  0.3570 -0.0687 -0.3551
 4096POPC   GL187116  28.990  26.967  10.855  0.0376 -0.0434  0.0276
 4096POPC   GL287117  28.681  26.880  10.900 -0.0512 -0.1123 -0.1563
 4096POPC   C1A87118  28.863  26.788  10.436  0.2428  0.1481 -0.0644
 4096POPC   D2A87119  29.108  26.935  10.102 -0.0204 -0.0664  0.0567
 4096POPC   C3A87120  28.817  26.787   9.790  0.1231  0.0255 -0.1183
 4096POPC   C4A87121  28.638  26.538   9.488  0.1739  0.1244 -0.1653
 4096POPC   C1B87122  28.427  26.515  10.676  0.3460 -0.0784 -0.2815
 4096POPC   C2B87123  28.179  26.274  10.381  0.0055  0.0085  0.3577
 4096POPC   C3B87124  28.182  25.872  10.100 -0.2687  0.0160  0.2222
 4096POPC   C4B87125  28.506  25.647  10.030 -0.2702  0.1275  0.1648
 4097POPC   NC387126  18.035  19.080  15.655 -0.1273 -0.0808  0.2585
 4097POPC   PO487127  18.218  19.405  15.498  0.0939 -0.5841 -0.0234
 4097POPC   GL187128  18.276  19.396  15.917  0.0752 -0.1873 -0.0086
 4097POPC   GL287129  18.024  19.566  15.924 -0.0478  0.0153 -0.0789
 4097POPC   C1A87130  18.183  19.582  16.356 -0.1828  0.1805  0.0879
 4097POPC   D2A87131  18.181  19.701  16.824  0.1496 -0.3165 -0.0882
 4097POPC   C3A87132  17.756  19.670  17.107 -0.0495  0.1527  0.0013
 4097POPC   C4A87133  17.327  19.775  17.299 -0.1269 -0.4055  0.2445
 4097POPC   C1B87134  17.749  19.335  16.254 -0.2173 -0.1903  0.1882
 4097POPC   C2B87135  17.912  19.318  16.734  0.0576 -0.2732  0.2125
 4097POPC   C3B87136  18.133  19.325  17.132 -0.1677  0.0413 -0.1384
 4097POPC   C4B87137  18.193  19.290  17.572  0.0283 -0.1526 -0.0299
 4098POPC   NC387138  18.214  32.715  16.362  0.2448 -0.1230  0.1601
 4098POPC   PO487139  18.346  32.356  16.392 -0.2360  0.2404  0.0060
 4098POPC   GL187140  18.322  32.346  16.721 -0.3443  0.2929  0.0467
 4098POPC   GL287141  18.623  32.493  16.804 -0.3861  0.2112 -0.1718
 4098POPC   C1A87142  18.209  32.778  16.885 -0.0561  0.0335  0.0528
 4098POPC   D2A87143  17.931  32.968  17.233  0.1849 -0.0410 -0.0438
 4098POPC   C3A87144  17.988  32.803  17.654  0.1471  0.1255  0.3837
 4098POPC   C4A87145  18.204  32.645  18.024 -0.0113 -0.0585 -0.2445
 4098POPC   C1B87146  18.448  32.427  17.202  0.1877  0.2524 -0.1246
 4098POPC   C2B87147  18.568  32.258  17.649  0.1085  0.2441 -0.0710
 4098POPC   C3B87148  18.316  32.154  17.998  0.2380  0.0394 -0.0911
 4098POPC   C4B87149  18.508  32.079  18.418 -0.0611  0.0200  0.0728
 4099POPC   NC387150  30.922  27.572  15.929  0.0759 -0.0081  0.2464
 4099POPC   PO487151  30.552  27.701  15.980  0.0755 -0.2045 -0.0014
 4099POPC   GL187152  30.526  27.633  16.391 -0.2047 -0.0864 -0.0975
 4099POPC   GL287153  30.784  27.532  16.397 -0.1836 -0.3132 -0.4590
 4099POPC   C1A87154  30.569  27.578  16.870  0.0833  0.1427 -0.1156
 4099POPC   D2A87155  30.338  27.534  17.238  0.1745  0.1746 -0.3679
 4099POPC   C3A87156  30.258  27.140  17.500 -0.5330 -0.0248  0.0918
 4099POPC   C4A87157  30.501  26.818  17.761 -0.1753 -0.3544  0.0733
 4099POPC   C1B87158  30.686  27.147  16.696  0.0404  0.1109  0.1082
 4099POPC   C2B87159  30.353  27.058  16.966  0.1605 -0.0569  0.1681
 4099POPC   C3B87160  29.948  26.875  17.174 -0.0018 -0.1036 -0.0021
 4099POPC   C4B87161  29.649  26.908  17.584 -0.0335 -0.2566 -0.1097
 4100POPC   NC387162  21.067  27.308  15.853 -0.0121 -0.1138  0.1378
 4100POPC   PO487163  21.227  27.000  15.985  0.1880 -0.3028 -0.1796
 4100POPC   GL187164  21.324  26.770  16.327 -0.0558 -0.2630 -0.0195
 4100POPC   GL287165  21.141  26.863  16.543  0.0514 -0.0749 -0.1188
 4100POPC   C1A87166  21.554  26.523  16.612 -0.1011  0.0384  0.3606
 4100POPC   D2A87167  21.558  26.445  17.041 -0.2704 -0.0511  0.1064
 4100POPC   C3A87168  21.558  26.694  17.428 -0.4693  0.0547  0.0994
 4100POPC   C4A87169  21.573  26.646  17.910  0.1409  0.0434  0.1271
 4100POPC   C1B87170  21.055  26.757  16.936  0.1658 -0.1018 -0.1685
 4100POPC   C2B87171  20.963  26.731  17.392  0.1292 -0.0799  0.2228
 4100POPC   C3B87172  20.836  26.708  17.827 -0.1894  0.4176  0.0759
 4100POPC   C4B87173  21.075  26.505  18.226 -0.1340 -0.1827 -0.2244
 4101POPC   NC387174  22.735  29.472  16.090  0.1765 -0.0143 -0.1988
 4101POPC   PO487175  22.460  29.552  16.346  0.5185  0.1582  0.0603
 4101POPC   GL187176  22.614  29.725  16.718 -0.2170 -0.0775  0.2924
 4101POPC   GL287177  22.472  29.760  16.951 -0.1829 -0.0521 -0.0272
 4101POPC   C1A87178  22.886  29.642  17.101  0.0217  0.1930  0.2148
 4101POPC   D2A87179  23.014  29.494  17.510  0.1673  0.2718  0.2936
 4101POPC   C3A87180  22.724  29.557  17.817  0.2221  0.1461  0.0648
 4101POPC   C4A87181  22.396  29.660  18.116 -0.0612 -0.1037 -0.1818
 4101POPC   C1B87182  22.357  29.888  17.374  0.0527  0.0551  0.0902
 4101POPC   C2B87183  22.205  29.999  17.782 -0.1491  0.0638  0.1415
 4101POPC   C3B87184  21.831  30.034  18.068  0.0343  0.0384 -0.1071
 4101POPC   C4B87185  21.836  30.206  18.580 -0.1687  0.0193  0.5541
 4102POPC   NC387186  25.360  26.635  12.309  0.0358 -0.2724  0.0075
 4102POPC   PO487187  25.597  26.716  12.597  0.0066 -0.2500  0.3665
 4102POPC   GL187188  25.621  26.257  12.390  0.1225  0.0093  0.2851
 4102POPC   GL287189  25.738  26.292  12.110 -0.0531  0.0013  0.0716
 4102POPC   C1A87190  25.716  25.814  12.293  0.2635  0.1879  0.0256
 4102POPC   D2A87191  25.917  25.485  12.034 -0.2149 -0.3521  0.1985
 4102POPC   C3A87192  25.675  25.096  12.035  0.0235 -0.0684  0.5165
 4102POPC   C4A87193  25.860  24.707  11.943  0.1380  0.5830 -0.2437
 4102POPC   C1B87194  25.782  25.911  11.809  0.0885  0.0845 -0.0439
 4102POPC   C2B87195  25.869  25.540  11.531 -0.2402  0.3701  0.0013
 4102POPC   C3B87196  25.977  25.070  11.615 -0.1991 -0.0023  0.1528
 4102POPC   C4B87197  26.324  24.816  11.733  0.1718 -0.0805 -0.2331
 4103POPC   NC387198  20.801  32.167  16.106  0.1597 -0.0533  0.1610
 4103POPC   PO487199  20.383  32.238  16.191  0.0964 -0.0461 -0.0216
 4103POPC   GL187200  20.275  32.461  16.479  0.3636  0.0336 -0.1246
 4103POPC   GL287201  20.288  32.738  16.604  0.0822  0.1078  0.3032
 4103POPC   C1A87202  20.536  32.348  16.876 -0.0616 -0.0500 -0.1843
 4103POPC   D2A87203  20.865  32.561  17.217 -0.1006  0.2454  0.0125
 4103POPC   C3A87204  21.151  32.859  17.389  0.0167  0.0483 -0.0817
 4103POPC   C4A87205  20.940  33.052  17.710 -0.3103  0.1007  0.1953
 4103POPC   C1B87206  20.437  32.788  17.061 -0.1019  0.2495 -0.0299
 4103POPC   C2B87207  20.553  32.805  17.502 -0.2621  0.1350 -0.2585
 4103POPC   C3B87208  20.589  32.597  17.893  0.1829  0.0488  0.1648
 4103POPC   C4B87209  20.570  32.556  18.372 -0.1329 -0.1342  0.2729
 4104POPC   NC387210  21.120  15.879  16.006 -0.1721 -0.1844  0.0532
 4104POPC   PO487211  20.742  16.006  16.008 -0.0166  0.0379  0.0081
 4104POPC   GL187212  20.845  16.205  16.405  0.1415 -0.2894  0.0788
 4104POPC   GL287213  21.122  16.232  16.511  0.1808 -0.0541 -0.0907
 4104POPC   C1A87214  20.768  16.031  16.825 -0.2817  0.1394 -0.0397
 4104POPC   D2A87215  20.853  16.141  17.243 -0.3085 -0.1797 -0.2794
 4104POPC   C3A87216  20.691  16.553  17.401 -0.0438  0.1952 -0.1370
 4104POPC   C4A87217  20.541  16.843  17.728 -0.0472 -0.1416  0.0320
 4104POPC   C1B87218  21.408  16.239  16.893  0.0381  0.1317  0.1962
 4104POPC   C2B87219  21.695  16.223  17.321  0.1177  0.2680 -0.1883
 4104POPC   C3B87220  21.763  16.112  17.791  0.3886 -0.1716 -0.0992
 4104POPC   C4B87221  22.046  16.267  18.135  0.4101 -0.0673  0.3362
 4105POPC   NC387222  16.898  20.321  15.981 -0.0069  0.3182 -0.2499
 4105POPC   PO487223  17.258  20.405  15.815  0.2418  0.1613 -0.4082
 4105POPC   GL187224  17.270  20.682  16.097 -0.0624 -0.0373 -0.1400
 4105POPC   GL287225  17.468  20.909  16.093 -0.3123 -0.1887  0.0985
 4105POPC   C1A87226  17.355  20.622  16.586  0.0431 -0.0456 -0.0734
 4105POPC   D2A87227  17.615  20.568  16.944  0.1648 -0.0681 -0.0975
 4105POPC   C3A87228  17.945  20.886  17.146 -0.0256 -0.2502  0.1475
 4105POPC   C4A87229  18.177  21.247  16.949 -0.0182 -0.0440 -0.1385
 4105POPC   C1B87230  17.235  21.121  16.421  0.3853 -0.0497 -0.0029
 4105POPC   C2B87231  16.894  21.144  16.803  0.3328  0.0974 -0.0724
 4105POPC   C3B87232  16.569  21.366  16.992  0.0329 -0.0865  0.0264
 4105POPC   C4B87233  16.195  21.468  16.771  0.1580  0.0375 -0.0890
 4106POPC   NC387234  17.938  26.943  16.509 -0.0552  0.0923 -0.1178
 4106POPC   PO487235  18.329  26.929  16.464  0.1207  0.0637 -0.0184
 4106POPC   GL187236  18.346  27.065  16.849 -0.0200 -0.0747 -0.3487
 4106POPC   GL287237  18.314  26.858  16.980  0.1492  0.0562  0.2067
 4106POPC   C1A87238  17.962  27.186  17.134 -0.0429  0.1496  0.0004
 4106POPC   D2A87239  17.570  27.107  17.375  0.4549  0.1200 -0.0557
 4106POPC   C3A87240  17.301  27.143  17.702  0.1177 -0.2824  0.0680
 4106POPC   C4A87241  17.386  27.127  18.184 -0.1183  0.2796  0.2185
 4106POPC   C1B87242  18.103  26.775  17.398  0.1895 -0.0305 -0.4119
 4106POPC   C2B87243  18.244  26.704  17.784  0.0413  0.1075  0.2675
 4106POPC   C3B87244  18.309  26.754  18.214 -0.2581  0.0461  0.2624
 4106POPC   C4B87245  18.597  26.628  18.608 -0.2883 -0.2581  0.2178
 4107POPC   NC387246  24.896  28.283   9.881  0.2053  0.2454  0.2073
 4107POPC   PO487247  24.612  28.358   9.648  0.1410 -0.1408  0.2249
 4107POPC   GL187248  24.653  28.056   9.466  0.3405  0.1233 -0.0021
 4107POPC   GL287249  24.941  27.897   9.491  0.1991  0.0625 -0.0414
 4107POPC   C1A87250  24.454  27.765   9.199 -0.1680 -0.1433 -0.3384
 4107POPC   D2A87251  24.449  27.548   8.804 -0.1296  0.2587  0.0311
 4107POPC   C3A87252  24.487  27.146   8.550 -0.2085  0.1436 -0.1487
 4107POPC   C4A87253  24.688  26.815   8.315 -0.5133  0.0487  0.2264
 4107POPC   C1B87254  24.900  27.525   9.213 -0.1034 -0.0296 -0.3932
 4107POPC   C2B87255  24.924  27.518   8.783 -0.0297 -0.2551  0.0665
 4107POPC   C3B87256  24.920  27.483   8.286  0.3705  0.1225  0.0219
 4107POPC   C4B87257  24.663  27.411   7.881 -0.2260 -0.0481  0.1295
 4108POPC   NC387258  26.383  26.675  13.683 -0.0614 -0.1145 -0.0226
 4108POPC   PO487259  26.130  26.885  13.818 -0.0922  0.4562 -0.1534
 4108POPC   GL187260  26.249  26.675  14.138  0.1164 -0.0425 -0.2214
 4108POPC   GL287261  26.300  26.376  14.095 -0.2196  0.1168  0.1248
 4108POPC   C1A87262  26.214  26.510  14.599 -0.3297 -0.0892  0.2043
 4108POPC   D2A87263  26.109  26.181  14.892  0.3560 -0.0038  0.2704
 4108POPC   C3A87264  26.242  25.943  15.233 -0.0949 -0.1446  0.1860
 4108POPC   C4A87265  26.292  25.631  15.539  0.2479 -0.0168 -0.0535
 4108POPC   C1B87266  26.203  26.005  14.289  0.0372 -0.1695  0.0040
 4108POPC   C2B87267  26.177  25.739  14.657  0.1144  0.2744  0.0343
 4108POPC   C3B87268  26.278  25.350  14.913  0.1078 -0.0925  0.0090
 4108POPC   C4B87269  26.049  25.197  15.289  0.0122  0.0470 -0.1710
 4109POPC   NC387270  28.989  29.869  16.331 -0.0094 -0.2331  0.0325
 4109POPC   PO487271  29.118  29.524  16.398  0.0379 -0.0038  0.1620
 4109POPC   GL187272  29.170  29.577  16.772 -0.1657  0.0082 -0.2003
 4109POPC   GL287273  29.120  29.876  16.866  0.6441 -0.0822  0.5799
 4109POPC   C1A87274  29.291  29.542  17.249  0.2641 -0.0845  0.1648
 4109POPC   D2A87275  29.144  29.382  17.614  0.0538 -0.0933 -0.0760
 4109POPC   C3A87276  28.810  29.596  17.776  0.0566 -0.1303  0.1239
 4109POPC   C4A87277  28.382  29.622  17.636 -0.0301  0.1204  0.1082
 4109POPC   C1B87278  29.154  30.052  17.304  0.0252 -0.1269  0.1563
 4109POPC   C2B87279  29.211  29.851  17.724  0.2513  0.0112 -0.2301
 4109POPC   C3B87280  28.975  29.933  18.153 -0.0656 -0.2213  0.2305
 4109POPC   C4B87281  28.750  30.286  18.347 -0.4232  0.1170  0.1010
 4110POPC   NC387282  31.107  17.967  14.638  0.1891 -0.0323 -0.0139
 4110POPC   PO487283  31.251  18.209  14.911  0.1202  0.0435  0.0344
 4110POPC   GL187284  31.160  18.371  15.204  0.0352 -0.2221 -0.2897
 4110POPC   GL287285  31.173  18.329  15.528 -0.2016 -0.1652  0.0918
 4110POPC   C1A87286  31.064  18.792  15.301 -0.1553 -0.1354 -0.0198
 4110POPC   D2A87287  30.998  19.200  15.487 -0.0802 -0.0736 -0.0457
 4110POPC   C3A87288  30.754  19.544  15.309 -0.0998  0.1909 -0.1633
 4110POPC   C4A87289  30.391  19.798  15.381 -0.0919  0.1059 -0.0930
 4110POPC   C1B87290  31.047  18.751  15.761 -0.2188  0.2245 -0.2092
 4110POPC   C2B87291  30.739  18.972  15.981 -0.1354 -0.0660  0.0409
 4110POPC   C3B87292  30.516  19.182  16.365  0.2605 -0.0775  0.1415
 4110POPC   C4B87293  30.341  19.575  16.566  0.0432  0.0098 -0.0421
 4111POPC   NC387294  18.130  25.960   8.844 -0.0659  0.0159  0.2403
 4111POPC   PO487295  18.021  26.293   8.727 -0.0327  0.1437  0.2538
 4111POPC   GL187296  18.133  26.090   8.412 -0.0072 -0.2035 -0.2409
 4111POPC   GL287297  18.436  26.023   8.423  0.2003  0.1318 -0.1962
 4111POPC   C1A87298  18.203  26.056   7.917 -0.4282  0.3194 -0.2918
 4111POPC   D2A87299  17.990  26.067   7.512  0.1517 -0.1362 -0.0477
 4111POPC   C3A87300  17.998  26.307   7.192 -0.0942  0.0339  0.3176
 4111POPC   C4A87301  17.969  26.593   6.822  0.0081 -0.3667  0.0366
 4111POPC   C1B87302  18.603  25.749   8.069  0.0880  0.1710 -0.2573
 4111POPC   C2B87303  18.518  25.650   7.617 -0.0388  0.2069  0.1812
 4111POPC   C3B87304  18.471  25.558   7.125  0.0712  0.3055 -0.1339
 4111POPC   C4B87305  18.200  25.761   6.864 -0.3638 -0.0206  0.2930
 4112POPC   NC387306  20.325  24.120  15.755  0.2352 -0.0254  0.0393
 4112POPC   PO487307  20.511  23.956  15.451 -0.1107 -0.3301 -0.2030
 4112POPC   GL187308  20.690  23.691  15.664 -0.1303  0.0984  0.5773
 4112POPC   GL287309  20.667  23.388  15.711  0.0185  0.0408 -0.0093
 4112POPC   C1A87310  21.041  23.822  15.961 -0.1878 -0.1459 -0.1227
 4112POPC   D2A87311  21.262  23.668  16.384 -0.1357 -0.1955 -0.0337
 4112POPC   C3A87312  21.629  23.812  16.678  0.3408  0.1502  0.2796
 4112POPC   C4A87313  21.947  23.644  16.925 -0.1564  0.2825 -0.2813
 4112POPC   C1B87314  20.811  23.406  16.229  0.1280 -0.1016 -0.0708
 4112POPC   C2B87315  20.764  23.400  16.669 -0.0680  0.0148 -0.1369
 4112POPC   C3B87316  20.809  23.070  16.988 -0.0822  0.2433  0.2947
 4112POPC   C4B87317  20.719  22.800  17.385  0.0685  0.2592  0.1005
 4113POPC   NC387318  23.429  18.527  11.988 -0.0120  0.1809  0.2168
 4113POPC   PO487319  23.724  18.713  11.830  0.2026 -0.1501  0.0219
 4113POPC   GL187320  24.035  18.815  12.118 -0.0894  0.1739  0.1359
 4113POPC   GL287321  24.314  18.913  12.120  0.1859 -0.2245 -0.1064
 4113POPC   C1A87322  24.093  19.245  12.379  0.0201 -0.2404  0.1047
 4113POPC   D2A87323  24.089  19.543  12.716 -0.0220  0.0765  0.0816
 4113POPC   C3A87324  24.287  19.930  12.640 -0.4888 -0.2647  0.0302
 4113POPC   C4A87325  24.502  20.283  12.431 -0.2078  0.0193  0.1262
 4113POPC   C1B87326  24.561  19.146  12.439 -0.0367  0.3000  0.1123
 4113POPC   C2B87327  24.668  19.587  12.575 -0.0300  0.1475 -0.2305
 4113POPC   C3B87328  24.894  19.908  12.781 -0.1009  0.3849  0.1263
 4113POPC   C4B87329  24.794  20.290  12.983  0.0497  0.3122  0.0822
 4114POPC   NC387330  23.120  31.256  15.001  0.1305  0.1306 -0.0608
 4114POPC   PO487331  22.983  31.164  15.396 -0.2092  0.2002  0.3576
 4114POPC   GL187332  23.028  31.370  15.700  0.0626 -0.1708  0.1701
 4114POPC   GL287333  22.866  31.521  15.886  0.0222 -0.1663 -0.1594
 4114POPC   C1A87334  23.391  31.435  15.987  0.0441 -0.0021  0.0862
 4114POPC   D2A87335  23.505  31.789  16.352 -0.0420 -0.3243  0.0445
 4114POPC   C3A87336  23.418  32.038  16.736  0.0430  0.1478  0.0004
 4114POPC   C4A87337  23.497  32.425  17.013  0.2488 -0.1963  0.1223
 4114POPC   C1B87338  22.968  31.728  16.232  0.2586 -0.1184 -0.0954
 4114POPC   C2B87339  22.899  32.148  16.529 -0.0354  0.2479 -0.0795
 4114POPC   C3B87340  23.021  32.294  16.971  0.1070 -0.0039  0.1759
 4114POPC   C4B87341  23.206  32.353  17.418 -0.2387 -0.0793 -0.1812
 4115POPC   NC387342  31.391  23.659  11.337 -0.0225  0.0056 -0.1650
 4115POPC   PO487343  31.113  23.909  11.385  0.0193 -0.0282  0.0391
 4115POPC   GL187344  30.729  23.791  11.206  0.2459 -0.0959  0.1920
 4115POPC   GL287345  30.464  23.537  11.304 -0.1725  0.0446  0.0755
 4115POPC   C1A87346  30.502  23.873  10.800 -0.0293  0.0646  0.1414
 4115POPC   D2A87347  30.354  23.983  10.350 -0.0438 -0.0466 -0.1769
 4115POPC   C3A87348  29.953  24.028  10.148  0.1994 -0.0647 -0.1462
 4115POPC   C4A87349  29.857  24.199   9.725 -0.0526  0.1953  0.2958
 4115POPC   C1B87350  30.016  23.445  11.113 -0.0508  0.0260  0.0683
 4115POPC   C2B87351  29.575  23.543  10.964 -0.1963  0.3972 -0.1675
 4115POPC   C3B87352  29.255  23.887  10.848 -0.0169 -0.0923 -0.3180
 4115POPC   C4B87353  28.810  23.993  10.904 -0.0267 -0.2899 -0.1896
 4116POPC   NC387354  21.268  22.626  14.910 -0.5411 -0.2955 -0.2563
 4116POPC   PO487355  21.080  22.332  14.765 -0.2877  0.1669  0.1913
 4116POPC   GL187356  21.118  22.320  15.218  0.0351  0.6487  0.2167
 4116POPC   GL287357  20.793  22.382  15.231 -0.2206 -0.0683  0.1969
 4116POPC   C1A87358  21.438  22.147  15.492  0.0388 -0.0892  0.1333
 4116POPC   D2A87359  21.512  22.517  15.784  0.1255  0.2548  0.0570
 4116POPC   C3A87360  21.712  22.270  16.153  0.1078 -0.0357  0.0137
 4116POPC   C4A87361  21.825  22.177  16.552 -0.0739  0.1962  0.0001
 4116POPC   C1B87362  20.954  22.548  15.633  0.0019  0.1253 -0.0707
 4116POPC   C2B87363  21.111  22.631  16.041 -0.1745  0.0634 -0.1407
 4116POPC   C3B87364  21.192  22.375  16.450 -0.0287 -0.0730  0.1757
 4116POPC   C4B87365  21.116  22.155  16.800  0.1601 -0.2823 -0.0938
 4117POPC   NC387366  26.146  28.153  15.744 -0.0607 -0.0933 -0.0930
 4117POPC   PO487367  26.427  27.984  15.975 -0.0975 -0.0405 -0.2704
 4117POPC   GL187368  26.521  27.728  16.336 -0.0335  0.1271  0.0032
 4117POPC   GL287369  26.244  27.640  16.403 -0.0794 -0.2824  0.2196
 4117POPC   C1A87370  26.823  27.831  16.694  0.4659  0.0383 -0.1449
 4117POPC   D2A87371  26.970  27.862  17.151  0.0250  0.1758  0.4649
 4117POPC   C3A87372  27.364  27.971  17.399 -0.0206 -0.0359  0.0523
 4117POPC   C4A87373  27.671  27.822  17.706 -0.0329  0.1196 -0.3897
 4117POPC   C1B87374  26.134  27.312  16.623 -0.0671  0.0412  0.1070
 4117POPC   C2B87375  25.757  26.983  16.632 -0.2618  0.2325 -0.1720
 4117POPC   C3B87376  25.653  26.598  16.922 -0.2044 -0.2875 -0.2644
 4117POPC   C4B87377  25.528  26.228  17.123 -0.0186  0.0202 -0.2549
 4118POPC   NC387378  18.938  22.957  16.000  0.1825  0.2275  0.4307
 4118POPC   PO487379  19.055  22.655  15.772 -0.1742 -0.1168  0.1272
 4118POPC   GL187380  19.269  22.657  16.090 -0.2212  0.1747 -0.2056
 4118POPC   GL287381  19.459  22.405  16.294  0.2704 -0.1982 -0.4070
 4118POPC   C1A87382  19.574  22.890  16.305  0.0512  0.1823 -0.0470
 4118POPC   D2A87383  19.895  22.714  16.630 -0.0921  0.1536 -0.0295
 4118POPC   C3A87384  19.850  22.756  17.075  0.0189 -0.0359 -0.1124
 4118POPC   C4A87385  19.942  22.667  17.502  0.0161 -0.3873  0.0586
 4118POPC   C1B87386  19.268  22.705  16.629 -0.1765 -0.1162  0.1658
 4118POPC   C2B87387  19.259  22.826  17.073 -0.0001 -0.0858  0.1124
 4118POPC   C3B87388  19.331  22.741  17.509  0.0859 -0.2905 -0.0528
 4118POPC   C4B87389  19.592  22.741  17.901  0.0584 -0.3651  0.1831
 4119POPC   NC387390  25.270  17.552  12.323  0.0105  0.0486  0.1848
 4119POPC   PO487391  25.336  17.435  12.676  0.2549  0.1312  0.0536
 4119POPC   GL187392  25.560  17.650  13.039  0.2219  0.0447 -0.1169
 4119POPC   GL287393  25.322  17.566  13.208 -0.1001 -0.2176 -0.0048
 4119POPC   C1A87394  25.870  17.703  13.375 -0.1896 -0.1942 -0.2135
 4119POPC   D2A87395  26.286  17.906  13.497 -0.4161  0.1760  0.3862
 4119POPC   C3A87396  26.620  17.953  13.147  0.1798 -0.2683  0.4277
 4119POPC   C4A87397  26.982  18.264  12.963  0.1189 -0.2535  0.2361
 4119POPC   C1B87398  25.457  17.980  13.369 -0.1862  0.3551  0.0620
 4119POPC   C2B87399  25.700  18.292  13.500  0.2396 -0.1444  0.0688
 4119POPC   C3B87400  25.614  18.723  13.549  0.0320 -0.1502  0.0734
 4119POPC   C4B87401  25.643  19.147  13.782 -0.2452  0.0611 -0.0419
 4120POPC   NC387402  19.456  21.867  15.546 -0.1484 -0.2106  0.1764
 4120POPC   PO487403  19.133  21.645  15.581  0.1425 -0.1195 -0.1763
 4120POPC   GL187404  19.229  21.829  15.915  0.0069 -0.0878 -0.2336
 4120POPC   GL287405  19.110  21.629  16.078 -0.2160 -0.0352  0.0587
 4120POPC   C1A87406  19.333  21.933  16.373 -0.0051  0.0213  0.1372
 4120POPC   D2A87407  19.266  22.102  16.795 -0.0876 -0.1158 -0.0200
 4120POPC   C3A87408  19.135  22.369  17.191 -0.0656 -0.1440  0.0496
 4120POPC   C4A87409  19.161  22.300  17.592  0.2307  0.1860 -0.0444
 4120POPC   C1B87410  19.134  21.522  16.587  0.0093 -0.0687  0.1311
 4120POPC   C2B87411  19.111  21.634  17.068 -0.1291  0.0974  0.4590
 4120POPC   C3B87412  18.865  21.854  17.370 -0.4174  0.0999  0.1953
 4120POPC   C4B87413  18.663  22.212  17.391 -0.1465  0.0546 -0.2750
 4121POPC   NC387414  24.157  26.224  12.283  0.3290 -0.3017  0.0109
 4121POPC   PO487415  24.058  26.484  12.580  0.1353  0.0848  0.2667
 4121POPC   GL187416  24.545  26.350  12.465 -0.0389  0.0385 -0.1486
 4121POPC   GL287417  24.578  26.465  12.745  0.1869 -0.1152  0.0287
 4121POPC   C1A87418  24.699  25.927  12.480 -0.2085  0.1395  0.0342
 4121POPC   D2A87419  25.019  25.642  12.312 -0.0121 -0.1103  0.0051
 4121POPC   C3A87420  24.858  25.263  12.102 -0.2360 -0.0016 -0.1915
 4121POPC   C4A87421  24.757  24.928  11.793 -0.0249 -0.0124  0.0699
 4121POPC   C1B87422  24.698  26.120  12.994  0.2378  0.1112 -0.2017
 4121POPC   C2B87423  24.712  25.992  13.432  0.3117  0.1596 -0.3129
 4121POPC   C3B87424  24.818  25.858  13.848 -0.0240  0.1044 -0.5993
 4121POPC   C4B87425  24.907  25.416  14.066  0.0644 -0.0402 -0.1575
 4122POPC   NC387426  31.112  29.972  20.796  0.0547  0.0332  0.1935
 4122POPC   PO487427  30.723  29.856  20.685  0.4759 -0.0771 -0.0989
 4122POPC   GL187428  30.652  29.606  20.327  0.2199 -0.0407 -0.2563
 4122POPC   GL287429  30.750  29.853  20.186 -0.2165  0.0181 -0.0304
 4122POPC   C1A87430  30.853  29.256  20.118 -0.0800  0.0943  0.2861
 4122POPC   D2A87431  31.099  28.893  19.958 -0.1206  0.1104  0.0375
 4122POPC   C3A87432  31.592  28.967  19.823  0.2423 -0.3776 -0.2655
 4122POPC   C4A87433  31.946  29.279  19.756  0.3880  0.0130 -0.0339
 4122POPC   C1B87434  30.544  29.821  19.777 -0.1667 -0.0387  0.0130
 4122POPC   C2B87435  30.568  29.916  19.364  0.0415  0.3370 -0.0015
 4122POPC   C3B87436  30.408  30.076  18.951  0.1289  0.0529  0.3175
 4122POPC   C4B87437  30.050  30.290  18.849  0.0016 -0.0810 -0.1171
 4123POPC   NC387438  31.632  27.335  20.554 -0.1065  0.3520  0.1169
 4123POPC   PO487439  31.365  27.651  20.544  0.2760 -0.1525 -0.1853
 4123POPC   GL187440  31.345  27.640  20.150  0.2194 -0.1511 -0.1868
 4123POPC   GL287441  31.244  27.521  19.911  0.2134 -0.0379  0.0329
 4123POPC   C1A87442  31.518  27.975  19.921 -0.3724 -0.2439  0.2410
 4123POPC   D2A87443  31.568  28.063  19.453 -0.1379  0.1113  0.0270
 4123POPC   C3A87444  31.353  27.746  19.258 -0.2852 -0.0833 -0.0627
 4123POPC   C4A87445  30.989  27.708  18.887  0.0325  0.1952 -0.1557
 4123POPC   C1B87446  30.918  27.547  19.516 -0.0474 -0.0633 -0.2643
 4123POPC   C2B87447  30.799  27.313  19.087 -0.1111  0.1917 -0.1346
 4123POPC   C3B87448  31.008  27.217  18.671  0.3136  0.0090 -0.2804
 4123POPC   C4B87449  30.796  27.407  18.304 -0.0010 -0.1608  0.1210
 4124POPC   NC387450  22.742  25.337  19.766 -0.3495 -0.1442  0.0552
 4124POPC   PO487451  22.786  25.607  20.072  0.0363  0.0798  0.0045
 4124POPC   GL187452  22.780  25.886  19.765  0.0462 -0.0818 -0.0440
 4124POPC   GL287453  22.980  26.004  19.625 -0.3687  0.2776 -0.3418
 4124POPC   C1A87454  22.649  25.633  19.377 -0.1210  0.2699  0.0435
 4124POPC   D2A87455  22.313  25.652  19.127  0.0108  0.2903  0.0077
 4124POPC   C3A87456  21.906  25.560  19.286  0.3461  0.0643  0.0783
 4124POPC   C4A87457  21.455  25.290  19.231  0.0885 -0.0142 -0.1885
 4124POPC   C1B87458  22.830  26.060  19.187  0.3985  0.2541  0.2790
 4124POPC   C2B87459  22.635  26.290  18.803 -0.2268 -0.1052 -0.0591
 4124POPC   C3B87460  22.388  26.507  18.458  0.0009  0.0817  0.0572
 4124POPC   C4B87461  22.039  26.568  18.153  0.3455  0.2857  0.1535
 4125POPC   NC387462  24.759  29.889  20.255 -0.3923  0.1236 -0.2712
 4125POPC   PO487463  24.532  30.183  20.243  0.1749 -0.0422  0.2015
 4125POPC   GL187464  24.290  30.197  19.964 -0.0922  0.2231  0.1181
 4125POPC   GL287465  24.291  29.894  19.883 -0.0230  0.0851  0.0586
 4125POPC   C1A87466  24.303  30.352  19.569 -0.1838  0.0559 -0.0635
 4125POPC   D2A87467  24.174  30.428  19.087 -0.1010  0.0975  0.0764
 4125POPC   C3A87468  24.372  30.353  18.694 -0.0862 -0.1952 -0.1013
 4125POPC   C4A87469  24.520  30.128  18.346  0.2207  0.0931  0.0249
 4125POPC   C1B87470  24.000  29.806  19.569  0.0084 -0.0268  0.2177
 4125POPC   C2B87471  23.687  29.879  19.270  0.0620 -0.0763  0.1334
 4125POPC   C3B87472  23.576  29.725  18.827  0.2801  0.5816  0.0481
 4125POPC   C4B87473  23.598  30.007  18.464 -0.5621 -0.0822 -0.0203
 4126POPC   NC387474  29.710  29.191  19.941 -0.2856  0.2836  0.1248
 4126POPC   PO487475  29.903  29.069  20.263  0.4160  0.0262 -0.2766
 4126POPC   GL187476  30.200  29.109  19.966  0.0999  0.0223 -0.0195
 4126POPC   GL287477  30.311  29.399  20.011 -0.1288 -0.0815 -0.1249
 4126POPC   C1A87478  30.007  29.039  19.538  0.1455  0.1118 -0.1306
 4126POPC   D2A87479  29.567  29.073  19.385  0.0821 -0.0431  0.1488
 4126POPC   C3A87480  29.429  28.717  19.044  0.0361 -0.3326 -0.3425
 4126POPC   C4A87481  29.588  28.381  18.827  0.0604 -0.0898 -0.0142
 4126POPC   C1B87482  30.373  29.402  19.559  0.0330 -0.1282 -0.0868
 4126POPC   C2B87483  30.428  29.134  19.210  0.4634 -0.0285  0.0449
 4126POPC   C3B87484  30.331  28.831  18.946  0.0941 -0.2329  0.5305
 4126POPC   C4B87485  30.532  28.617  18.580 -0.1449 -0.0359 -0.1759
 4127POPC   NC387486  31.150  23.580  19.178  0.4116  0.1574 -0.1079
 4127POPC   PO487487  31.383  23.787  19.462 -0.0838  0.0221  0.1352
 4127POPC   GL187488  31.465  23.967  19.151  0.2944  0.2642 -0.2534
 4127POPC   GL287489  31.566  23.811  18.977  0.2627  0.2245  0.0295
 4127POPC   C1A87490  31.284  24.228  18.818  0.0272  0.2995  0.1271
 4127POPC   D2A87491  31.385  24.302  18.377 -0.0592 -0.1703  0.0110
 4127POPC   C3A87492  31.377  23.976  18.001 -0.1778  0.0817 -0.0007
 4127POPC   C4A87493  31.038  23.740  17.869 -0.1976 -0.2212 -0.3143
 4127POPC   C1B87494  31.362  23.499  18.679  0.0593  0.0623  0.0533
 4127POPC   C2B87495  31.443  23.254  18.294  0.0596  0.1737 -0.0348
 4127POPC   C3B87496  31.567  23.256  17.826  0.2133  0.0112 -0.3380
 4127POPC   C4B87497  31.852  23.121  17.492 -0.0288 -0.1158  0.1391
 4128POPC   NC387498  17.123  16.561  20.112  0.1244  0.1459  0.2194
 4128POPC   PO487499  17.362  16.341  20.378  0.1230 -0.1659  0.0400
 4128POPC   GL187500  17.362  16.045  20.147  0.2968  0.0444 -0.3134
 4128POPC   GL287501  17.587  15.852  20.140  0.1249  0.0520 -0.0331
 4128POPC   C1A87502  17.278  16.179  19.703  0.1373  0.1434 -0.1265
 4128POPC   D2A87503  17.388  15.937  19.317 -0.1279 -0.0904  0.0595
 4128POPC   C3A87504  17.697  16.180  19.137 -0.1476 -0.4308 -0.1370
 4128POPC   C4A87505  18.144  16.318  19.192 -0.2359  0.0599 -0.1703
 4128POPC   C1B87506  17.695  15.680  19.718 -0.2105 -0.0150 -0.1000
 4128POPC   C2B87507  17.644  15.540  19.284  0.1728  0.2643  0.0430
 4128POPC   C3B87508  17.521  15.677  18.891  0.0151 -0.0444  0.0431
 4128POPC   C4B87509  17.737  15.770  18.531 -0.0595 -0.0663 -0.0378
 4129POPC   NC387510  16.545  29.686  21.215 -0.0398 -0.0089  0.2929
 4129POPC   PO487511  16.457  29.869  20.849  0.0655 -0.3441 -0.1474
 4129POPC   GL187512  16.252  30.014  20.548 -0.1238 -0.1805  0.1761
 4129POPC   GL287513  16.383  30.051  20.319 -0.1225 -0.1825 -0.1071
 4129POPC   C1A87514  15.885  30.034  20.302 -0.3035 -0.0248  0.0344
 4129POPC   D2A87515  15.907  30.359  19.955  0.4122  0.2678 -0.0375
 4129POPC   C3A87516  16.254  30.488  19.644 -0.0134  0.1886 -0.3182
 4129POPC   C4A87517  16.575  30.566  19.253 -0.2666  0.2492  0.0581
 4129POPC   C1B87518  16.428  30.041  19.932 -0.1288 -0.2603  0.2370
 4129POPC   C2B87519  16.582  30.078  19.446  0.3385  0.1592 -0.0706
 4129POPC   C3B87520  16.555  30.149  18.939 -0.0757  0.0426 -0.2449
 4129POPC   C4B87521  16.747  30.247  18.514  0.0385 -0.1337  0.1041
 4130POPC   NC387522  24.325  20.989  17.020 -0.0636 -0.0780 -0.1982
 4130POPC   PO487523  24.006  20.840  17.211  0.3736  0.2247  0.3692
 4130POPC   GL187524  23.822  21.100  16.989  0.0095 -0.0497 -0.0950
 4130POPC   GL287525  23.906  21.424  16.988 -0.1045  0.2786  0.1453
 4130POPC   C1A87526  23.375  21.263  16.916 -0.0545 -0.1005 -0.0066
 4130POPC   D2A87527  22.959  21.247  16.647  0.2781  0.3114 -0.0315
 4130POPC   C3A87528  22.650  21.589  16.584  0.0905 -0.2610 -0.1660
 4130POPC   C4A87529  22.334  21.872  16.594  0.0054 -0.0389 -0.2195
 4130POPC   C1B87530  23.731  21.568  16.586  0.0108 -0.1027  0.2277
 4130POPC   C2B87531  23.353  21.563  16.308 -0.2853  0.2953  0.0890
 4130POPC   C3B87532  22.916  21.560  16.090 -0.2652  0.0328  0.1151
 4130POPC   C4B87533  22.629  21.954  16.090 -0.0094  0.0553 -0.0964
 4131POPC   NC387534  19.963  23.824  20.458 -0.1771 -0.4261 -0.0477
 4131POPC   PO487535  19.677  24.071  20.370  0.1751  0.2521  0.3012
 4131POPC   GL187536  19.508  24.058  19.947 -0.0672  0.2925  0.3117
 4131POPC   GL287537  19.304  24.281  20.095  0.1985  0.2830 -0.2927
 4131POPC   C1A87538  19.646  24.185  19.535 -0.0866 -0.0866  0.0446
 4131POPC   D2A87539  19.631  23.978  19.129  0.1632  0.0422  0.1007
 4131POPC   C3A87540  19.323  24.200  18.848  0.0098 -0.2062 -0.1031
 4131POPC   C4A87541  19.113  24.040  18.491 -0.2428  0.0159  0.1119
 4131POPC   C1B87542  19.196  24.392  19.692 -0.0063  0.1445 -0.0137
 4131POPC   C2B87543  19.052  24.277  19.252  0.3028 -0.3029 -0.1587
 4131POPC   C3B87544  18.592  24.271  19.061 -0.2162 -0.5329  0.2792
 4131POPC   C4B87545  18.368  24.371  18.645  0.2740  0.1597  0.1129
 4132POPC   NC387546  27.655  26.619  20.057  0.1503  0.0294  0.0187
 4132POPC   PO487547  27.890  26.900  19.845 -0.0668  0.1427 -0.0696
 4132POPC   GL187548  28.161  26.889  19.544 -0.2139  0.1489 -0.2227
 4132POPC   GL287549  28.373  27.050  19.426  0.1532  0.0084 -0.1008
 4132POPC   C1A87550  28.045  26.674  19.149  0.0337 -0.2026 -0.4441
 4132POPC   D2A87551  27.859  26.816  18.725  0.0045 -0.0416 -0.3404
 4132POPC   C3A87552  27.628  27.226  18.778  0.0573 -0.0314  0.0924
 4132POPC   C4A87553  27.478  27.539  18.487 -0.2738  0.2961  0.1206
 4132POPC   C1B87554  28.089  27.219  19.033 -0.1759  0.4095  0.0298
 4132POPC   C2B87555  28.158  27.332  18.576  0.1342 -0.0727  0.1751
 4132POPC   C3B87556  28.318  27.281  18.116 -0.0811 -0.2199  0.0872
 4132POPC   C4B87557  28.722  27.222  17.829 -0.0498  0.1389  0.0662
 4133POPC   NC387558  26.093  25.760  19.442 -0.0487  0.0460  0.3013
 4133POPC   PO487559  26.315  26.080  19.630  0.3441  0.0496  0.1607
 4133POPC   GL187560  26.244  26.305  19.293  0.2443 -0.2666 -0.2897
 4133POPC   GL287561  26.122  26.465  19.144  0.0555 -0.0913 -0.3410
 4133POPC   C1A87562  26.475  26.212  18.913  0.1355  0.0522  0.0793
 4133POPC   D2A87563  26.737  25.979  18.642 -0.2456  0.0380  0.1002
 4133POPC   C3A87564  26.629  26.014  18.192  0.1302 -0.1236  0.3293
 4133POPC   C4A87565  26.408  26.332  17.955 -0.0131 -0.0670 -0.0010
 4133POPC   C1B87566  25.990  26.449  18.698 -0.0860 -0.1480 -0.0596
 4133POPC   C2B87567  26.068  26.522  18.283 -0.2688 -0.0299  0.0846
 4133POPC   C3B87568  26.058  26.848  17.972  0.1611  0.0508  0.0300
 4133POPC   C4B87569  26.056  27.223  17.695 -0.0054  0.0147 -0.3085
 4134POPC   NC387570  19.220  21.366  19.357  0.0826 -0.0956  0.0836
 4134POPC   PO487571  19.091  21.708  19.490 -0.0223 -0.0446  0.1357
 4134POPC   GL187572  19.015  21.689  19.027 -0.3485 -0.2164 -0.3421
 4134POPC   GL287573  18.827  21.457  19.019  0.2190 -0.2223  0.0244
 4134POPC   C1A87574  18.729  21.944  18.763  0.1859  0.1401 -0.2452
 4134POPC   D2A87575  18.614  22.051  18.298 -0.2114  0.0406  0.1600
 4134POPC   C3A87576  18.740  21.927  17.852 -0.1983 -0.1411 -0.2751
 4134POPC   C4A87577  18.471  21.621  17.634 -0.1580  0.1503 -0.2617
 4134POPC   C1B87578  18.708  21.383  18.545  0.3753 -0.1275  0.1958
 4134POPC   C2B87579  18.599  21.421  18.122 -0.2721  0.1096  0.0306
 4134POPC   C3B87580  18.415  21.126  17.813  0.0020 -0.1043  0.2830
 4134POPC   C4B87581  18.262  20.745  17.662  0.4724 -0.0591  0.0081
 4135POPC   NC387582  24.890  18.638  18.102 -0.1011 -0.1025 -0.0019
 4135POPC   PO487583  24.940  18.278  18.286 -0.1457  0.0048  0.0326
 4135POPC   GL187584  24.729  18.287  17.924  0.2968 -0.0564 -0.0737
 4135POPC   GL287585  24.692  17.998  17.831 -0.0217  0.0421 -0.2154
 4135POPC   C1A87586  24.699  18.517  17.502  0.2019  0.2315 -0.0002
 4135POPC   D2A87587  24.728  18.836  17.169 -0.0019 -0.1075 -0.0294
 4135POPC   C3A87588  24.567  18.713  16.773  0.1719  0.2339  0.1685
 4135POPC   C4A87589  24.371  18.513  16.423  0.0793 -0.1977  0.1059
 4135POPC   C1B87590  24.707  17.729  17.448  0.1056  0.1166 -0.2029
 4135POPC   C2B87591  25.006  17.738  17.111 -0.0105 -0.0150 -0.0360
 4135POPC   C3B87592  25.258  17.729  16.723  0.2210  0.1872 -0.2973
 4135POPC   C4B87593  25.432  17.919  16.418 -0.0199 -0.1099  0.1646
 4136POPC   NC387594  30.037  22.754  18.628  0.0421  0.4241 -0.0387
 4136POPC   PO487595  30.125  22.366  18.675  0.2911  0.0781  0.0204
 4136POPC   GL187596  30.259  22.134  18.457  0.0065 -0.1314 -0.2964
 4136POPC   GL287597  30.002  22.059  18.267  0.2475  0.1755 -0.0133
 4136POPC   C1A87598  30.293  22.270  17.968 -0.2875  0.1021 -0.1551
 4136POPC   D2A87599  30.483  22.429  17.567 -0.0611  0.1299 -0.1573
 4136POPC   C3A87600  30.874  22.332  17.255 -0.3080 -0.0124  0.0673
 4136POPC   C4A87601  31.194  22.079  17.086  0.2135 -0.0065 -0.0317
 4136POPC   C1B87602  30.023  21.747  17.877  0.1667 -0.0106  0.2040
 4136POPC   C2B87603  30.399  21.701  17.594  0.1512 -0.0123 -0.0375
 4136POPC   C3B87604  30.541  21.964  17.279  0.0267  0.2789  0.1717
 4136POPC   C4B87605  30.838  21.803  17.005  0.0848  0.1232  0.1149
 4137POPC   NC387606  22.303  32.441  20.237 -0.0613 -0.3295  0.1596
 4137POPC   PO487607  22.627  32.245  20.170  0.2282  0.2023 -0.2798
 4137POPC   GL187608  22.612  32.035  19.903 -0.3475  0.1600 -0.2585
 4137POPC   GL287609  22.956  31.929  19.864  0.1102  0.0441  0.1677
 4137POPC   C1A87610  22.358  31.798  19.536 -0.1392 -0.2921 -0.4185
 4137POPC   D2A87611  22.187  31.721  19.131 -0.3138 -0.0747 -0.0925
 4137POPC   C3A87612  21.922  31.468  18.891 -0.1826 -0.2148  0.0569
 4137POPC   C4A87613  21.625  31.096  18.853  0.2768  0.0747 -0.1119
 4137POPC   C1B87614  23.109  31.903  19.379 -0.2382  0.1570  0.1335
 4137POPC   C2B87615  23.127  31.794  18.957  0.0611  0.2672  0.0344
 4137POPC   C3B87616  23.047  31.424  18.670 -0.0711  0.3092  0.0278
 4137POPC   C4B87617  23.255  31.109  18.496 -0.0675  0.3813  0.2344
 4138POPC   NC387618  27.846  21.366  15.610  0.1976 -0.0686 -0.0170
 4138POPC   PO487619  27.868  21.735  15.740  0.0578  0.2838 -0.0432
 4138POPC   GL187620  28.172  21.793  15.497  0.3866 -0.0880 -0.2275
 4138POPC   GL287621  28.279  21.507  15.401  0.1091  0.0756  0.0343
 4138POPC   C1A87622  28.528  22.019  15.358 -0.0313 -0.0685  0.2320
 4138POPC   D2A87623  28.848  22.295  15.190 -0.0627  0.1007  0.0663
 4138POPC   C3A87624  29.290  22.242  14.983  0.0452  0.1440 -0.1301
 4138POPC   C4A87625  29.695  22.451  14.813 -0.0251 -0.3603 -0.4628
 4138POPC   C1B87626  28.682  21.585  15.525 -0.1165  0.2103  0.0243
 4138POPC   C2B87627  29.142  21.505  15.592  0.3611 -0.0282  0.0421
 4138POPC   C3B87628  29.544  21.363  15.333  0.0565  0.0520 -0.0156
 4138POPC   C4B87629  29.912  21.167  15.377 -0.1723  0.2480 -0.0740
 4139POPC   NC387630  21.373  27.002  20.425 -0.1515 -0.1273 -0.1387
 4139POPC   PO487631  21.137  27.226  20.641  0.1306 -0.1270  0.0767
 4139POPC   GL187632  21.033  27.261  20.322  0.1236 -0.0315 -0.0535
 4139POPC   GL287633  20.958  27.409  20.055 -0.0482  0.1381 -0.0727
 4139POPC   C1A87634  20.798  26.914  20.086  0.0540 -0.1453 -0.1667
 4139POPC   D2A87635  20.889  26.675  19.759 -0.1734 -0.0296 -0.4576
 4139POPC   C3A87636  21.009  26.975  19.395 -0.3020 -0.0725  0.5222
 4139POPC   C4A87637  20.960  27.155  18.981  0.2891 -0.0445 -0.1224
 4139POPC   C1B87638  20.680  27.194  19.720  0.1291  0.1354  0.0130
 4139POPC   C2B87639  20.562  27.112  19.350  0.1746  0.0003  0.1062
 4139POPC   C3B87640  20.396  27.297  18.916  0.0308 -0.0299  0.1860
 4139POPC   C4B87641  20.350  27.713  18.760 -0.1622 -0.0239  0.0364
 4140POPC   NC387642  31.180  16.155  20.522 -0.2341  0.0003  0.1125
 4140POPC   PO487643  31.001  16.234  20.177 -0.1848 -0.3018 -0.0440
 4140POPC   GL187644  30.822  16.306  19.840 -0.1742 -0.1004  0.3703
 4140POPC   GL287645  31.049  16.495  19.717  0.1107 -0.2695 -0.0077
 4140POPC   C1A87646  30.920  16.088  19.424 -0.1212 -0.0318  0.3202
 4140POPC   D2A87647  30.837  16.085  18.979 -0.1152 -0.1827  0.0904
 4140POPC   C3A87648  31.142  16.294  18.622  0.1368  0.0781 -0.1609
 4140POPC   C4A87649  31.460  16.620  18.783  0.3618  0.3898  0.1207
 4140POPC   C1B87650  31.366  16.511  19.398 -0.0927 -0.1844 -0.2201
 4140POPC   C2B87651  31.669  16.806  19.273 -0.1304 -0.1021  0.0372
 4140POPC   C3B87652  31.782  17.051  18.890  0.1493  0.0501  0.0453
 4140POPC   C4B87653  31.812  16.862  18.441  0.0567 -0.3190  0.0363
 4141POPC   NC387654  18.960  24.608  20.192 -0.0867  0.3172  0.1394
 4141POPC   PO487655  19.102  24.839  20.480  0.0085  0.2037 -0.0483
 4141POPC   GL187656  19.170  25.097  20.209  0.2756  0.1846  0.5273
 4141POPC   GL287657  18.853  25.202  20.104 -0.1234  0.0013  0.2785
 4141POPC   C1A87658  19.215  24.984  19.746  0.2544  0.0578 -0.2995
 4141POPC   D2A87659  19.254  24.784  19.256  0.2793  0.1865  0.0047
 4141POPC   C3A87660  18.977  24.649  18.941 -0.1297 -0.1252  0.0807
 4141POPC   C4A87661  18.696  24.686  18.576  0.0141 -0.1278 -0.1317
 4141POPC   C1B87662  18.832  25.581  19.784 -0.0995  0.2686 -0.1050
 4141POPC   C2B87663  19.036  25.804  19.413 -0.0558  0.0561  0.1970
 4141POPC   C3B87664  19.252  25.722  19.057 -0.0034  0.3576  0.0527
 4141POPC   C4B87665  19.147  25.470  18.690  0.2321 -0.0129 -0.0650
 4142POPC   NC387666  27.557  22.899  11.358  0.3481  0.0549 -0.1462
 4142POPC   PO487667  27.552  23.006  11.734 -0.1325 -0.0573  0.1393
 4142POPC   GL187668  27.706  23.305  11.568  0.2741 -0.4136 -0.3045
 4142POPC   GL287669  27.978  23.290  11.445  0.0665 -0.0448 -0.1882
 4142POPC   C1A87670  27.831  23.637  11.878  0.1024  0.0381  0.0442
 4142POPC   D2A87671  27.687  24.090  11.871  0.1846  0.3633  0.2399
 4142POPC   C3A87672  27.985  24.440  11.991 -0.0732  0.2169  0.0485
 4142POPC   C4A87673  28.327  24.800  11.692 -0.4662 -0.0344 -0.0645
 4142POPC   C1B87674  28.286  23.390  11.751  0.0430  0.1300  0.1195
 4142POPC   C2B87675  28.386  23.572  12.179 -0.1445 -0.1787  0.0394
 4142POPC   C3B87676  28.353  24.011  12.157  0.1078  0.0529 -0.0462
 4142POPC   C4B87677  28.408  24.372  12.407 -0.1484 -0.1656  0.1078
 4143POPC   NC387678  26.922  21.797  12.991  0.1992 -0.1806 -0.0507
 4143POPC   PO487679  27.214  21.686  13.185  0.0604  0.0320  0.0093
 4143POPC   GL187680  27.282  21.373  13.137 -0.0789 -0.0696 -0.0630
 4143POPC   GL287681  27.538  21.280  13.018 -0.0474  0.0504  0.1829
 4143POPC   C1A87682  27.369  20.933  13.286 -0.0206  0.1400  0.1729
 4143POPC   D2A87683  27.793  20.698  13.369  0.0724 -0.1032 -0.1484
 4143POPC   C3A87684  28.269  20.840  13.409 -0.0143  0.0218  0.0221
 4143POPC   C4A87685  28.704  20.875  13.518 -0.1221  0.0348 -0.2128
 4143POPC   C1B87686  27.794  21.184  12.600 -0.1463 -0.1046  0.0928
 4143POPC   C2B87687  27.832  21.027  12.176  0.2260 -0.1273 -0.0058
 4143POPC   C3B87688  27.756  20.727  11.836  0.0133  0.0750 -0.1789
 4143POPC   C4B87689  28.040  20.404  11.889 -0.0925  0.2055 -0.0174
 4144POPC   NC387690  32.270  20.541  19.345 -0.1732 -0.1898 -0.1928
 4144POPC   PO487691  31.929  20.600  19.593 -0.1848 -0.3423  0.1245
 4144POPC   GL187692  31.870  20.851  19.244 -0.5001  0.3880 -0.3385
 4144POPC   GL287693  31.847  21.177  19.135 -0.2533 -0.0329 -0.1032
 4144POPC   C1A87694  32.099  20.806  18.860 -0.1765 -0.1551  0.3687
 4144POPC   D2A87695  31.946  20.743  18.458 -0.0330  0.0114 -0.0535
 4144POPC   C3A87696  32.158  20.793  18.033 -0.0521  0.2996 -0.0649
 4144POPC   C4A87697  32.394  20.468  17.783  0.2744 -0.0507  0.0684
 4144POPC   C1B87698  32.010  21.257  18.740  0.1509  0.1738  0.5506
 4144POPC   C2B87699  32.483  21.291  18.585  0.0958 -0.1584 -0.2037
 4144POPC   C3B87700  32.860  21.222  18.446 -0.2428  0.1759  0.1892
 4144POPC   C4B87701  33.076  21.049  18.103 -0.2673 -0.0911  0.1135
 4145POPC   NC387702  19.864  19.165  19.749  0.0950  0.1479 -0.2621
 4145POPC   PO487703  20.030  19.523  19.738  0.0481 -0.0066  0.2151
 4145POPC   GL187704  19.740  19.541  19.394  0.1083 -0.1178 -0.0747
 4145POPC   GL287705  19.997  19.493  19.248  0.1363  0.0084 -0.0242
 4145POPC   C1A87706  19.465  19.818  19.148 -0.2192 -0.1636  0.3085
 4145POPC   D2A87707  19.312  19.643  18.729  0.2047 -0.0067  0.1607
 4145POPC   C3A87708  19.528  19.445  18.384 -0.1987  0.1561  0.1071
 4145POPC   C4A87709  19.297  19.306  17.994 -0.1171  0.4157 -0.3476
 4145POPC   C1B87710  19.737  19.461  18.896  0.0841  0.2265  0.0750
 4145POPC   C2B87711  19.841  19.159  18.546 -0.1214 -0.2983  0.0724
 4145POPC   C3B87712  19.817  18.959  18.105 -0.0780  0.0954 -0.0485
 4145POPC   C4B87713  19.788  19.099  17.610  0.1603 -0.1936 -0.3563
 4146POPC   NC387714  24.449  19.399  17.350  0.0350 -0.0369  0.1420
 4146POPC   PO487715  24.529  19.256  17.683 -0.3947  0.1304  0.0243
 4146POPC   GL187716  24.348  18.960  17.441 -0.1494 -0.1405  0.2294
 4146POPC   GL287717  24.277  18.693  17.623 -0.0412  0.0569  0.1174
 4146POPC   C1A87718  24.264  19.022  17.005 -0.1029 -0.1520 -0.0981
 4146POPC   D2A87719  24.082  19.156  16.635  0.0796  0.1990 -0.0990
 4146POPC   C3A87720  24.146  18.924  16.240  0.0572  0.0589  0.2530
 4146POPC   C4A87721  24.353  18.729  15.859  0.0341  0.0524 -0.1799
 4146POPC   C1B87722  23.863  18.581  17.605  0.0209 -0.1075 -0.0009
 4146POPC   C2B87723  23.735  18.146  17.489  0.2764 -0.0020  0.0152
 4146POPC   C3B87724  23.939  17.786  17.302  0.0860  0.0706  0.1140
 4146POPC   C4B87725  24.319  17.775  17.108 -0.1184 -0.4979 -0.1790
 4147POPC   NC387726  26.127  20.432  15.620  0.2627  0.2972  0.1499
 4147POPC   PO487727  26.225  20.352  16.030  0.2006  0.2113  0.1923
 4147POPC   GL187728  26.424  20.061  15.895  0.0552 -0.2050  0.1049
 4147POPC   GL287729  26.444  20.024  15.624 -0.0120  0.1344 -0.0295
 4147POPC   C1A87730  26.059  19.789  15.705 -0.2814  0.1085 -0.0817
 4147POPC   D2A87731  25.836  19.515  15.364  0.1466 -0.2573 -0.1263
 4147POPC   C3A87732  25.776  19.074  15.382 -0.0619  0.0068 -0.0872
 4147POPC   C4A87733  25.814  18.649  15.288  0.3283 -0.0579  0.1005
 4147POPC   C1B87734  26.330  19.744  15.275  0.0849 -0.1555  0.0574
 4147POPC   C2B87735  26.225  19.361  15.050  0.3177  0.1807  0.2700
 4147POPC   C3B87736  26.061  19.438  14.643 -0.0445 -0.2049  0.4129
 4147POPC   C4B87737  25.706  19.760  14.530 -0.1347  0.2580  0.0272
 4148POPC   NC387738  20.469  21.833  19.517 -0.0772 -0.1158  0.2043
 4148POPC   PO487739  20.642  22.190  19.406 -0.4444 -0.1595 -0.4525
 4148POPC   GL187740  20.678  22.314  19.099 -0.0340 -0.1731 -0.0718
 4148POPC   GL287741  20.510  22.614  19.106  0.0482  0.0355  0.0402
 4148POPC   C1A87742  20.363  22.294  18.782  0.2342  0.2668  0.3224
 4148POPC   D2A87743  20.084  22.179  18.443  0.0012 -0.0529 -0.2623
 4148POPC   C3A87744  20.160  21.950  18.002 -0.1204 -0.2177 -0.1487
 4148POPC   C4A87745  20.263  21.689  17.669  0.2760 -0.0888 -0.1470
 4148POPC   C1B87746  20.351  22.841  18.700 -0.2880 -0.3763  0.0250
 4148POPC   C2B87747  20.268  22.733  18.280 -0.1731 -0.0621  0.0503
 4148POPC   C3B87748  20.005  22.518  18.038  0.0704 -0.2181  0.4791
 4148POPC   C4B87749  19.688  22.273  17.808 -0.1690  0.0438 -0.2135
 4149POPC   NC387750  21.214  25.551  20.511 -0.0606 -0.2928 -0.0408
 4149POPC   PO487751  21.496  25.338  20.378 -0.0357  0.4385 -0.1585
 4149POPC   GL187752  21.346  25.447  20.007  0.3815  0.1054  0.2317
 4149POPC   GL287753  21.240  25.697  20.040  0.1042  0.2314 -0.3276
 4149POPC   C1A87754  21.477  25.116  19.681  0.0995 -0.0220 -0.0992
 4149POPC   D2A87755  21.708  24.691  19.658 -0.1476 -0.4106  0.1275
 4149POPC   C3A87756  21.823  24.461  19.311 -0.0478  0.0822  0.1637
 4149POPC   C4A87757  21.896  24.122  18.934 -0.0306 -0.1556 -0.2205
 4149POPC   C1B87758  20.952  25.459  19.770 -0.0568  0.0629 -0.0541
 4149POPC   C2B87759  20.925  25.118  19.536  0.0379  0.2023  0.0398
 4149POPC   C3B87760  20.819  24.726  19.250 -0.0193 -0.2538  0.3108
 4149POPC   C4B87761  21.016  24.404  18.991 -0.2954 -0.0971  0.2652
 4150POPC   NC387762  25.928  21.402  13.814  0.1893  0.3443 -0.3059
 4150POPC   PO487763  25.678  21.672  13.585  0.1051 -0.1895 -0.1862
 4150POPC   GL187764  25.284  21.565  13.662 -0.5110 -0.0298 -0.1181
 4150POPC   GL287765  25.178  21.486  13.415  0.1825 -0.0756  0.2121
 4150POPC   C1A87766  24.956  21.208  13.798  0.1962 -0.0878  0.0328
 4150POPC   D2A87767  24.840  20.936  14.111  0.1715  0.2225 -0.1583
 4150POPC   C3A87768  24.516  20.633  14.133 -0.2335  0.0754  0.0549
 4150POPC   C4A87769  24.412  20.344  13.809 -0.2030  0.0973 -0.1710
 4150POPC   C1B87770  24.904  21.402  13.089 -0.0024 -0.1199  0.3227
 4150POPC   C2B87771  24.640  21.178  12.758 -0.0742  0.1752 -0.0405
 4150POPC   C3B87772  24.472  21.383  12.377  0.0901 -0.3889 -0.1728
 4150POPC   C4B87773  24.333  21.609  11.939  0.1232 -0.5251 -0.2785
 4151POPC   NC387774  25.071  30.611  20.488 -0.2237  0.1212 -0.5471
 4151POPC   PO487775  24.986  30.253  20.457  0.1372  0.0861  0.1053
 4151POPC   GL187776  25.049  30.439  20.054 -0.2963 -0.0085 -0.2229
 4151POPC   GL287777  24.835  30.325  19.855  0.1437 -0.1515 -0.4365
 4151POPC   C1A87778  25.365  30.539  19.821 -0.0820  0.2998 -0.1289
 4151POPC   D2A87779  25.490  30.309  19.470  0.0469 -0.0211 -0.0830
 4151POPC   C3A87780  25.927  30.167  19.335  0.2484 -0.1499 -0.0435
 4151POPC   C4A87781  26.356  30.275  19.493 -0.4303 -0.2166 -0.0769
 4151POPC   C1B87782  24.866  30.236  19.344 -0.0398 -0.3931  0.0323
 4151POPC   C2B87783  24.702  30.045  18.937  0.1355 -0.0722 -0.1004
 4151POPC   C3B87784  24.472  29.759  18.624  0.0136 -0.1381 -0.0403
 4151POPC   C4B87785  24.085  29.812  18.349 -0.2519  0.1285  0.1148
 4152POPC   NC387786  23.298  23.072  18.035  0.1136  0.0005 -0.2133
 4152POPC   PO487787  23.707  23.219  18.007 -0.0302  0.0451  0.0823
 4152POPC   GL187788  23.661  23.410  17.680  0.1611 -0.3640  0.0308
 4152POPC   GL287789  23.901  23.664  17.720 -0.1667 -0.0387  0.0896
 4152POPC   C1A87790  23.771  23.360  17.205  0.0471 -0.1571 -0.0994
 4152POPC   D2A87791  23.987  23.462  16.824 -0.2201  0.2811 -0.0642
 4152POPC   C3A87792  23.716  23.588  16.466  0.0096 -0.1197  0.1692
 4152POPC   C4A87793  23.848  23.593  16.034 -0.2759 -0.1961  0.0422
 4152POPC   C1B87794  23.531  23.823  17.531 -0.0707 -0.1142  0.0988
 4152POPC   C2B87795  23.334  24.218  17.388 -0.1596  0.2607  0.1258
 4152POPC   C3B87796  23.167  24.628  17.333 -0.1810  0.0754  0.1880
 4152POPC   C4B87797  23.160  25.009  17.098  0.1841  0.1800  0.2396
 4153POPC   NC387798  29.501  31.455  20.989 -0.2291 -0.3044 -0.1099
 4153POPC   PO487799  29.439  31.384  20.537  0.1480  0.0575 -0.1629
 4153POPC   GL187800  29.602  31.523  20.114 -0.0182  0.0803 -0.2098
 4153POPC   GL287801  29.569  31.261  20.056  0.2242 -0.1868  0.2069
 4153POPC   C1A87802  29.841  31.637  19.702 -0.1827 -0.1157  0.0111
 4153POPC   D2A87803  30.221  31.638  19.487  0.1744  0.1963  0.0746
 4153POPC   C3A87804  30.164  31.453  19.097  0.0600  0.0197  0.2763
 4153POPC   C4A87805  30.207  31.477  18.615 -0.1392  0.1862  0.1813
 4153POPC   C1B87806  29.334  31.217  19.699  0.2339 -0.0617  0.0249
 4153POPC   C2B87807  29.224  31.006  19.318  0.0457 -0.0252  0.1745
 4153POPC   C3B87808  29.405  30.971  18.915 -0.1065 -0.1320 -0.0232
 4153POPC   C4B87809  29.226  31.210  18.520 -0.0178  0.0793 -0.0465
 4154POPC   NC387810  28.470  24.870  18.375  0.1417 -0.1549 -0.1759
 4154POPC   PO487811  28.209  25.007  18.648 -0.3962 -0.0521  0.1824
 4154POPC   GL187812  28.018  25.315  18.428  0.2291  0.1900  0.3766
 4154POPC   GL287813  27.881  25.169  18.181 -0.0334  0.1543  0.0076
 4154POPC   C1A87814  28.301  25.530  18.084 -0.3736 -0.3368 -0.1743
 4154POPC   D2A87815  28.244  25.841  17.705  0.1028  0.2113 -0.0667
 4154POPC   C3A87816  28.477  25.839  17.267  0.2345 -0.0536 -0.0973
 4154POPC   C4A87817  28.419  25.758  16.802 -0.1631 -0.1332  0.0193
 4154POPC   C1B87818  27.788  25.615  18.063 -0.2658  0.2439 -0.2769
 4154POPC   C2B87819  27.748  25.831  17.674  0.3575  0.0224 -0.1556
 4154POPC   C3B87820  27.752  25.963  17.247 -0.3670 -0.0610  0.1222
 4154POPC   C4B87821  27.903  25.834  16.791 -0.2583  0.0864 -0.2627
 4155POPC   NC387822  30.271  21.084  18.594 -0.1523 -0.0832 -0.1619
 4155POPC   PO487823  29.894  21.144  18.544  0.1625 -0.1438 -0.2222
 4155POPC   GL187824  29.778  21.031  18.222  0.4098 -0.1682 -0.1344
 4155POPC   GL287825  30.077  20.942  18.130  0.2217 -0.0629 -0.2467
 4155POPC   C1A87826  29.884  21.220  17.753 -0.0507  0.1446  0.0214
 4155POPC   D2A87827  30.163  21.261  17.422  0.3065 -0.0983 -0.0089
 4155POPC   C3A87828  30.483  20.952  17.263  0.4153  0.3578 -0.0256
 4155POPC   C4A87829  30.500  20.580  17.439 -0.0141  0.0909  0.0365
 4155POPC   C1B87830  30.126  20.778  17.720  0.0755  0.2154  0.1696
 4155POPC   C2B87831  29.961  20.576  17.361  0.2734 -0.0200 -0.2681
 4155POPC   C3B87832  30.124  20.223  17.111  0.1999 -0.2560 -0.2185
 4155POPC   C4B87833  29.983  19.839  16.963  0.1829 -0.1400 -0.1239
 4156POPC   NC387834  20.505  29.057  20.293  0.0200 -0.5282  0.2973
 4156POPC   PO487835  20.825  28.985  20.500 -0.3552 -0.0450 -0.0477
 4156POPC   GL187836  20.918  29.109  20.123  0.2536  0.3222  0.1283
 4156POPC   GL287837  21.130  29.088  19.901  0.2789 -0.1625  0.0827
 4156POPC   C1A87838  20.589  29.227  19.809  0.1883 -0.1003  0.2802
 4156POPC   D2A87839  20.442  29.260  19.364  0.0983  0.0406  0.1132
 4156POPC   C3A87840  20.298  28.989  19.036  0.2798 -0.0352 -0.0164
 4156POPC   C4A87841  19.990  28.921  18.691 -0.0143  0.2347 -0.0190
 4156POPC   C1B87842  21.099  28.941  19.500 -0.2720  0.2343  0.1241
 4156POPC   C2B87843  20.866  29.071  19.094  0.1039  0.0809 -0.0140
 4156POPC   C3B87844  20.681  29.080  18.736  0.1725  0.1658 -0.0747
 4156POPC   C4B87845  20.818  29.065  18.271 -0.1696  0.0810  0.1513
 4157POPC   NC387846  21.842  32.056  20.452 -0.0804  0.3149  0.1160
 4157POPC   PO487847  21.687  32.345  20.202  0.0594 -0.0327 -0.2513
 4157POPC   GL187848  21.648  32.024  20.022 -0.0564 -0.1754 -0.0040
 4157POPC   GL287849  21.548  31.783  20.076 -0.0182 -0.1326 -0.1637
 4157POPC   C1A87850  21.715  31.814  19.576  0.1027 -0.0150 -0.3457
 4157POPC   D2A87851  21.523  31.588  19.235  0.1338  0.0120 -0.1561
 4157POPC   C3A87852  21.191  31.787  18.975  0.1636  0.0831  0.0654
 4157POPC   C4A87853  20.875  31.871  18.670 -0.2659  0.3043 -0.3551
 4157POPC   C1B87854  21.244  31.613  19.839  0.1740 -0.0404 -0.1351
 4157POPC   C2B87855  21.109  31.367  19.459  0.2738  0.1442 -0.0505
 4157POPC   C3B87856  20.786  31.184  19.209  0.2359  0.2144 -0.1401
 4157POPC   C4B87857  20.482  31.043  18.861  0.3153  0.1187  0.0165
 4158POPC   NC387858  23.955  17.466  18.953  0.1766  0.2343 -0.1924
 4158POPC   PO487859  23.705  17.253  19.152  0.0483  0.2287 -0.0787
 4158POPC   GL187860  23.650  17.137  18.813 -0.0955  0.0323 -0.2701
 4158POPC   GL287861  23.555  17.337  18.620  0.1389  0.0007 -0.2422
 4158POPC   C1A87862  23.758  16.784  18.551 -0.1346  0.0051 -0.1269
 4158POPC   D2A87863  23.704  16.584  18.178  0.0583 -0.0874  0.1688
 4158POPC   C3A87864  23.821  16.122  18.119 -0.1256  0.0947 -0.0137
 4158POPC   C4A87865  24.009  15.877  17.767 -0.4045 -0.0525  0.0483
 4158POPC   C1B87866  23.342  17.455  18.233 -0.0124 -0.0597  0.0856
 4158POPC   C2B87867  23.306  17.360  17.807 -0.2870 -0.0495  0.1824
 4158POPC   C3B87868  23.052  17.459  17.433 -0.1573  0.0382 -0.0747
 4158POPC   C4B87869  23.007  17.803  17.098  0.3207 -0.1265 -0.3570
 4159POPC   NC387870  25.491  28.514  20.053 -0.1001 -0.0243 -0.1775
 4159POPC   PO487871  25.150  28.374  20.223 -0.0377 -0.0089  0.1772
 4159POPC   GL187872  25.164  28.286  19.813 -0.2433 -0.0724  0.1087
 4159POPC   GL287873  24.960  28.248  19.680  0.1603 -0.2747  0.0322
 4159POPC   C1A87874  25.280  28.608  19.522  0.0363 -0.1002  0.0053
 4159POPC   D2A87875  25.357  28.803  19.088  0.0701  0.1129  0.1196
 4159POPC   C3A87876  25.373  28.494  18.788  0.1301 -0.0041 -0.0564
 4159POPC   C4A87877  25.168  28.464  18.364 -0.1017 -0.4934  0.0551
 4159POPC   C1B87878  25.050  28.317  19.233  0.2421  0.1421  0.0106
 4159POPC   C2B87879  24.909  28.230  18.786  0.1563  0.0682  0.6304
 4159POPC   C3B87880  24.607  28.185  18.494 -0.1956  0.2133  0.1295
 4159POPC   C4B87881  24.529  28.202  18.036  0.0116 -0.1656  0.2866
 4160POPC   NC387882  26.366  24.034  17.262 -0.2205 -0.2661  0.0989
 4160POPC   PO487883  26.435  23.769  16.912 -0.0327  0.4795  0.0532
 4160POPC   GL187884  26.554  24.087  16.804 -0.0313  0.3673 -0.1022
 4160POPC   GL287885  26.409  24.207  16.577  0.1757 -0.0094  0.0313
 4160POPC   C1A87886  26.905  24.244  16.600  0.1736 -0.0442 -0.3911
 4160POPC   D2A87887  27.250  24.225  16.275 -0.1340 -0.1017 -0.1279
 4160POPC   C3A87888  27.094  24.286  15.813  0.2440  0.1092 -0.1214
 4160POPC   C4A87889  26.873  23.992  15.497  0.1099 -0.0490  0.1413
 4160POPC   C1B87890  26.263  24.356  16.202  0.0902  0.1400  0.0556
 4160POPC   C2B87891  26.150  24.546  15.800  0.0698 -0.2671  0.0386
 4160POPC   C3B87892  26.354  24.752  15.367 -0.1586 -0.2259  0.4154
 4160POPC   C4B87893  26.457  24.871  14.916 -0.0104  0.1233 -0.3252
 4161POPC   NC387894  27.526  17.635  19.001  0.0719  0.0025  0.0005
 4161POPC   PO487895  27.151  17.642  19.183  0.2605 -0.1039  0.0664
 4161POPC   GL187896  27.180  17.309  18.921  0.0729 -0.1133  0.3903
 4161POPC   GL287897  27.375  17.126  18.891 -0.0120 -0.1041 -0.4062
 4161POPC   C1A87898  27.174  17.201  18.469 -0.1895  0.0662  0.2481
 4161POPC   D2A87899  27.128  17.078  18.053 -0.1215  0.1718  0.2352
 4161POPC   C3A87900  27.422  16.863  17.773  0.2044  0.2844 -0.1998
 4161POPC   C4A87901  27.619  16.607  17.478  0.2373 -0.0456 -0.2725
 4161POPC   C1B87902  27.418  16.789  18.616  0.1758  0.4031  0.1988
 4161POPC   C2B87903  27.612  16.729  18.193  0.0788  0.0591 -0.0023
 4161POPC   C3B87904  27.899  16.674  17.875 -0.0473  0.0188  0.0173
 4161POPC   C4B87905  28.245  16.406  17.673 -0.2726 -0.2774  0.0621
 4162POPC   NC387906  28.127  19.768  18.966  0.2481  0.3057  0.0198
 4162POPC   PO487907  28.403  19.499  18.870 -0.2252 -0.1479 -0.2066
 4162POPC   GL187908  28.550  19.308  18.601 -0.0928  0.1023  0.2448
 4162POPC   GL287909  28.434  19.349  18.379  0.1800  0.0183 -0.1572
 4162POPC   C1A87910  28.736  18.884  18.456 -0.0641  0.2035 -0.1081
 4162POPC   D2A87911  28.824  18.471  18.301 -0.0856 -0.0182 -0.3175
 4162POPC   C3A87912  29.224  18.503  18.104 -0.0796  0.0415  0.0021
 4162POPC   C4A87913  29.526  18.705  17.863  0.2138  0.0224 -0.0116
 4162POPC   C1B87914  28.600  19.159  18.003  0.2926  0.3662  0.0783
 4162POPC   C2B87915  28.723  18.726  17.814 -0.0636 -0.2233  0.0264
 4162POPC   C3B87916  28.850  18.260  17.807 -0.1339 -0.4274 -0.0003
 4162POPC   C4B87917  28.874  17.831  17.666 -0.3381  0.0446 -0.0420
 4163POPC   NC387918  31.395  19.979  19.143  0.1964 -0.4437  0.3183
 4163POPC   PO487919  31.368  20.366  19.150 -0.0616  0.0787  0.1674
 4163POPC   GL187920  31.386  20.231  18.700 -0.2530 -0.0054 -0.5026
 4163POPC   GL287921  31.161  20.370  18.643 -0.1938 -0.0485  0.0805
 4163POPC   C1A87922  31.441  19.961  18.368 -0.3131 -0.1049 -0.1059
 4163POPC   D2A87923  31.352  19.826  17.903  0.1228  0.0017 -0.1205
 4163POPC   C3A87924  31.773  19.861  17.613  0.2076 -0.1288 -0.1486
 4163POPC   C4A87925  31.883  20.185  17.304 -0.0550 -0.2887 -0.1691
 4163POPC   C1B87926  31.406  20.652  18.429 -0.0360 -0.0631 -0.0780
 4163POPC   C2B87927  31.519  20.760  18.048  0.0423 -0.2451 -0.2693
 4163POPC   C3B87928  31.497  20.949  17.581  0.3083 -0.0259  0.3913
 4163POPC   C4B87929  31.505  21.283  17.294 -0.1118  0.1453 -0.1563
 4164POPC   NC387930  25.728  17.842  18.396  0.2295 -0.0719  0.0406
 4164POPC   PO487931  25.508  18.052  18.590  0.1727 -0.0055 -0.1759
 4164POPC   GL187932  25.278  17.970  18.225  0.1797 -0.2067 -0.0059
 4164POPC   GL287933  25.332  18.132  18.016  0.1718 -0.1207  0.2710
 4164POPC   C1A87934  25.111  17.657  17.896  0.0155 -0.1232  0.3098
 4164POPC   D2A87935  25.247  17.305  17.653  0.2336  0.2675  0.0904
 4164POPC   C3A87936  25.131  17.269  17.183 -0.0590 -0.1387  0.1314
 4164POPC   C4A87937  24.952  17.214  16.732 -0.1435 -0.2736 -0.0242
 4164POPC   C1B87938  25.419  17.960  17.589  0.0828  0.3530 -0.2274
 4164POPC   C2B87939  25.458  17.620  17.235  0.1382  0.1758  0.0920
 4164POPC   C3B87940  25.594  17.346  16.891  0.1396  0.0466 -0.1574
 4164POPC   C4B87941  25.547  17.297  16.414 -0.3906  0.1976 -0.1650
 4165POPC   NC387942  18.757  21.866  19.856 -0.0783  0.0217 -0.1125
 4165POPC   PO487943  19.066  22.079  19.844  0.1313 -0.1731 -0.2115
 4165POPC   GL187944  19.157  22.188  19.436  0.0915 -0.0768 -0.0087
 4165POPC   GL287945  18.871  22.082  19.335  0.0201  0.0533 -0.0141
 4165POPC   C1A87946  19.485  22.353  19.169 -0.1525 -0.0940  0.0512
 4165POPC   D2A87947  19.832  22.211  18.877 -0.0210  0.2158 -0.1203
 4165POPC   C3A87948  19.734  21.824  18.664 -0.0016 -0.1177 -0.2371
 4165POPC   C4A87949  19.670  21.426  18.475 -0.0023 -0.0676  0.3547
 4165POPC   C1B87950  19.040  22.206  18.975 -0.0506  0.3116 -0.2106
 4165POPC   C2B87951  19.296  22.448  18.675 -0.1856  0.1413  0.0854
 4165POPC   C3B87952  19.591  22.326  18.326 -0.2458  0.2305 -0.0947
 4165POPC   C4B87953  19.657  21.890  18.129 -0.1488  0.0174 -0.2210
 4166POPC   NC387954  18.039  27.091  20.606 -0.0622 -0.1506 -0.3267
 4166POPC   PO487955  18.045  26.721  20.613 -0.2747 -0.0301  0.1767
 4166POPC   GL187956  18.078  26.864  20.171 -0.0748  0.2795  0.1446
 4166POPC   GL287957  18.327  26.754  20.181  0.0545  0.3351 -0.3333
 4166POPC   C1A87958  17.859  27.193  19.901  0.0541 -0.1431 -0.1616
 4166POPC   D2A87959  17.745  27.384  19.497  0.0731 -0.2723  0.0860
 4166POPC   C3A87960  17.350  27.379  19.228 -0.3301 -0.1004 -0.1047
 4166POPC   C4A87961  16.941  27.562  19.031 -0.1606  0.2574  0.0637
 4166POPC   C1B87962  18.381  26.921  19.755 -0.0310 -0.0407  0.0910
 4166POPC   C2B87963  18.681  26.814  19.389  0.0465 -0.0225 -0.1621
 4166POPC   C3B87964  18.948  27.037  18.948 -0.0755 -0.2921 -0.0228
 4166POPC   C4B87965  19.187  27.402  18.874 -0.1640  0.1824 -0.1913
 4167POPC   NC387966  21.152  18.768  19.642 -0.1930  0.1013 -0.2696
 4167POPC   PO487967  21.147  18.373  19.613 -0.3208  0.0122  0.0132
 4167POPC   GL187968  21.060  18.103  19.293 -0.1526 -0.0639 -0.1782
 4167POPC   GL287969  21.195  18.148  19.079 -0.3080 -0.0264  0.2411
 4167POPC   C1A87970  21.105  17.699  19.190 -0.2335 -0.2972  0.2273
 4167POPC   D2A87971  21.385  17.367  19.295  0.0778 -0.1402  0.1305
 4167POPC   C3A87972  21.784  17.312  19.023 -0.1766 -0.3208  0.1410
 4167POPC   C4A87973  21.960  17.318  18.634  0.0888  0.2702 -0.1033
 4167POPC   C1B87974  21.104  17.924  18.707  0.3827  0.0572  0.1422
 4167POPC   C2B87975  21.034  17.585  18.416  0.1511 -0.3207 -0.1917
 4167POPC   C3B87976  21.307  17.287  18.234 -0.0646  0.0624 -0.2470
 4167POPC   C4B87977  21.446  17.042  17.834  0.1807 -0.0516 -0.0163
 4168POPC   NC387978  27.377   0.127  20.250 -0.1731 -0.0518 -0.1209
 4168POPC   PO487979  27.207  -0.148  19.995  0.0409 -0.0789  0.1612
 4168POPC   GL187980  27.269  -0.360  19.698  0.0697 -0.1589  0.0695
 4168POPC   GL287981  27.184  -0.196  19.463 -0.0712  0.0103  0.0249
 4168POPC   C1A87982  27.603  -0.468  19.433  0.0177 -0.1434 -0.0167
 4168POPC   D2A87983  27.793  -0.791  19.143 -0.0175 -0.0406 -0.0769
 4168POPC   C3A87984  28.132  -0.751  18.807 -0.1108  0.0426  0.4107
 4168POPC   C4A87985  28.600  -0.804  18.722  0.5008  0.1018 -0.1021
 4168POPC   C1B87986  27.485  -0.039  19.206  0.0190  0.3796  0.2843
 4168POPC   C2B87987  27.763   0.201  18.905  0.0216 -0.2343  0.0315
 4168POPC   C3B87988  27.877   0.277  18.464  0.1128 -0.1715 -0.2853
 4168POPC   C4B87989  28.044   0.278  18.009  0.0292  0.3162 -0.1314
 4169POPC   NC387990  25.324  22.019  13.671  0.0133 -0.1309 -0.3844
 4169POPC   PO487991  25.474  22.379  13.680 -0.0395 -0.4272  0.0705
 4169POPC   GL187992  25.114  22.457  13.678 -0.0132  0.0130 -0.2928
 4169POPC   GL287993  24.989  22.315  13.483 -0.1043 -0.0887 -0.1348
 4169POPC   C1A87994  24.731  22.603  13.854  0.2139 -0.3678 -0.0016
 4169POPC   D2A87995  24.531  23.080  13.963 -0.0495  0.1838  0.2002
 4169POPC   C3A87996  24.358  23.292  13.536  0.0254  0.0168  0.2050
 4169POPC   C4A87997  24.213  23.261  13.135 -0.5679  0.0509  0.3304
 4169POPC   C1B87998  24.832  21.920  13.419 -0.1796  0.3774  0.0129
 4169POPC   C2B87999  24.510  21.629  13.356 -0.2472 -0.1698  0.0104
 4169POPC   C3B88000  24.418  21.150  13.325 -0.3748  0.1437 -0.0818
 4169POPC   C4B88001  24.630  20.818  13.598 -0.1513  0.0981  0.0762
 4170POPC   NC388002  27.078  19.036  18.006  0.3101  0.1927 -0.3276
 4170POPC   PO488003  27.451  19.008  18.200  0.0018 -0.0200  0.1776
 4170POPC   GL188004  27.426  18.785  17.828 -0.1991  0.3638 -0.1720
 4170POPC   GL288005  27.529  18.491  17.860 -0.1385  0.0275  0.3220
 4170POPC   C1A88006  27.769  18.780  17.509 -0.0314 -0.0580 -0.0605
 4170POPC   D2A88007  27.845  18.957  17.164  0.0126  0.0830 -0.1520
 4170POPC   C3A88008  27.566  18.936  16.772  0.1876  0.1621  0.0452
 4170POPC   C4A88009  27.227  18.905  16.395  0.1296 -0.0821 -0.0730
 4170POPC   C1B88010  27.753  18.264  17.564 -0.0500 -0.0870  0.1573
 4170POPC   C2B88011  27.971  17.948  17.333  0.2005  0.1762  0.1296
 4170POPC   C3B88012  28.032  17.723  17.012  0.2055 -0.0382 -0.0658
 4170POPC   C4B88013  28.406  17.511  16.803  0.0484 -0.1930  0.0057
 4171POPC   NC388014  30.251  19.444  19.082  0.1818 -0.2226  0.0170
 4171POPC   PO488015  30.529  19.147  19.097 -0.0672  0.2856  0.1780
 4171POPC   GL188016  30.418  19.205  18.681  0.1431  0.0922 -0.2476
 4171POPC   GL288017  30.692  19.322  18.685 -0.1266  0.0352  0.3499
 4171POPC   C1A88018  30.263  19.195  18.206  0.1701  0.1078  0.0590
 4171POPC   D2A88019  30.146  19.240  17.752 -0.0368 -0.0223  0.1636
 4171POPC   C3A88020  30.186  19.003  17.366  0.0361  0.2024  0.1009
 4171POPC   C4A88021  30.499  19.007  17.032 -0.1868  0.2768  0.1465
 4171POPC   C1B88022  31.062  19.335  18.345  0.3935  0.0910 -0.2300
 4171POPC   C2B88023  31.290  19.346  17.918 -0.0651 -0.1441 -0.2509
 4171POPC   C3B88024  31.459  19.402  17.537 -0.0972  0.0225  0.0058
 4171POPC   C4B88025  31.378  19.550  17.091  0.0032 -0.1297  0.1500
 4172POPC   NC388026  31.359  30.685  20.127 -0.0139  0.0834 -0.0520
 4172POPC   PO488027  31.559  31.006  20.287 -0.0055  0.0040 -0.4749
 4172POPC   GL188028  31.553  31.197  19.971 -0.1818  0.7605  0.1774
 4172POPC   GL288029  31.329  31.099  19.756  0.0865  0.0132  0.3109
 4172POPC   C1A88030  31.815  31.374  19.596  0.1856 -0.0822 -0.2501
 4172POPC   D2A88031  31.730  31.815  19.455  0.0538  0.3032 -0.0544
 4172POPC   C3A88032  31.353  31.916  19.214 -0.1813  0.0063  0.0473
 4172POPC   C4A88033  31.117  31.783  18.857 -0.2202 -0.2105 -0.0295
 4172POPC   C1B88034  31.504  30.978  19.314 -0.0349 -0.0729 -0.0243
 4172POPC   C2B88035  31.329  30.923  18.858 -0.2553 -0.2189 -0.0263
 4172POPC   C3B88036  31.009  31.160  18.684  0.0980 -0.2368 -0.0844
 4172POPC   C4B88037  30.632  31.283  18.494 -0.1425 -0.1005 -0.2695
 4173POPC   NC388038  22.235  29.860  20.595  0.2234  0.0398 -0.3974
 4173POPC   PO488039  22.653  29.850  20.629 -0.0184  0.0510 -0.2082
 4173POPC   GL188040  22.755  29.785  20.302  0.0850 -0.2519  0.0560
 4173POPC   GL288041  22.527  29.939  20.147  0.0335 -0.1115  0.3893
 4173POPC   C1A88042  22.617  29.461  20.003  0.1026  0.1697 -0.0368
 4173POPC   D2A88043  22.840  29.171  19.708  0.0888 -0.3899 -0.2084
 4173POPC   C3A88044  22.953  29.406  19.320  0.1373  0.2269  0.1022
 4173POPC   C4A88045  23.158  29.769  19.088 -0.1827 -0.0706  0.1253
 4173POPC   C1B88046  22.300  29.766  19.793  0.0717  0.2367  0.2674
 4173POPC   C2B88047  22.210  29.882  19.327 -0.1733  0.0879 -0.1677
 4173POPC   C3B88048  21.913  29.827  18.916 -0.1566 -0.2647  0.3609
 4173POPC   C4B88049  22.102  29.784  18.506  0.0368  0.2186  0.2147
 4174POPC   NC388050  26.984  20.369  16.391  0.4077  0.2670  0.4499
 4174POPC   PO488051  26.715  20.377  16.096  0.1602 -0.2214 -0.3205
 4174POPC   GL188052  26.831  20.029  16.030  0.1135 -0.0057 -0.0543
 4174POPC   GL288053  26.875  19.759  16.234  0.4821 -0.0799  0.0651
 4174POPC   C1A88054  26.876  19.724  15.659 -0.2631 -0.2083 -0.2297
 4174POPC   D2A88055  26.799  19.448  15.272  0.2065  0.2563 -0.1671
 4174POPC   C3A88056  26.595  19.175  15.551 -0.0871  0.1608  0.2554
 4174POPC   C4A88057  26.171  19.225  15.651 -0.4421  0.0804 -0.0598
 4174POPC   C1B88058  26.886  19.366  16.477 -0.0060  0.1086 -0.2229
 4174POPC   C2B88059  26.728  18.909  16.447  0.2112 -0.0483 -0.3798
 4174POPC   C3B88060  26.735  18.537  16.199  0.1736 -0.0973  0.0969
 4174POPC   C4B88061  26.593  18.280  15.900  0.0423 -0.1115  0.1295
 4175POPC   NC388062  27.157  21.081  14.490  0.0746  0.3391 -0.0988
 4175POPC   PO488063  26.926  20.916  14.793 -0.1361  0.1775  0.1285
 4175POPC   GL188064  26.808  20.796  14.475 -0.2596 -0.1692  0.0978
 4175POPC   GL288065  26.530  20.626  14.585 -0.0287  0.0946  0.1241
 4175POPC   C1A88066  26.758  20.530  14.147  0.0258  0.1582  0.0460
 4175POPC   D2A88067  26.712  20.443  13.734 -0.2010  0.1879  0.1049
 4175POPC   C3A88068  26.869  20.005  13.568  0.0797  0.1933 -0.2551
 4175POPC   C4A88069  26.660  19.571  13.672 -0.0066 -0.2979  0.1514
 4175POPC   C1B88070  26.412  20.198  14.716  0.3141  0.0826 -0.1995
 4175POPC   C2B88071  26.324  19.830  14.373 -0.1342 -0.0523 -0.1543
 4175POPC   C3B88072  25.971  19.605  14.139 -0.1502  0.0584  0.1470
 4175POPC   C4B88073  25.554  19.692  14.010  0.1837 -0.1844 -0.2165
 4176POPC   NC388074   0.318  23.689  20.573  0.0174  0.0413  0.0303
 4176POPC   PO488075   0.208  23.607  20.154 -0.1089 -0.3065 -0.1883
 4176POPC   GL188076   0.431  23.501  19.736  0.1426  0.3577 -0.3560
 4176POPC   GL288077   0.461  23.784  19.757 -0.2206  0.0435  0.0119
 4176POPC   C1A88078   0.312  23.166  19.410  0.2736 -0.3386 -0.1504
 4176POPC   D2A88079   0.161  22.744  19.343  0.0168 -0.3209 -0.1682
 4176POPC   C3A88080   0.051  22.556  18.948  0.0729 -0.1062  0.1134
 4176POPC   C4A88081   0.224  22.454  18.538  0.1567  0.1304  0.2059
 4176POPC   C1B88082   0.555  23.717  19.234  0.2089 -0.3842  0.1325
 4176POPC   C2B88083   0.577  23.705  18.775  0.0601  0.0239  0.1623
 4176POPC   C3B88084   0.768  23.561  18.373 -0.0652 -0.0957  0.1232
 4176POPC   C4B88085   0.891  23.623  17.930  0.1341 -0.0209 -0.2306
 4177POPC   NC388086  28.644  21.862  16.467 -0.2241  0.0517  0.0151
 4177POPC   PO488087  28.332  21.620  16.469  0.2176  0.2795 -0.0220
 4177POPC   GL188088  28.344  21.770  16.122 -0.1964 -0.1871  0.1609
 4177POPC   GL288089  28.326  21.588  15.893 -0.0845 -0.0121 -0.3969
 4177POPC   C1A88090  28.793  21.847  15.930 -0.2301 -0.3120  0.1379
 4177POPC   D2A88091  29.083  22.022  15.566 -0.2166  0.1627  0.0339
 4177POPC   C3A88092  29.178  21.802  15.132  0.1559 -0.0090 -0.3632
 4177POPC   C4A88093  29.442  21.574  14.852 -0.1155 -0.1946 -0.2111
 4177POPC   C1B88094  28.705  21.308  15.976 -0.0292  0.0884  0.2297
 4177POPC   C2B88095  29.184  21.190  15.963  0.2412 -0.1877 -0.0528
 4177POPC   C3B88096  29.541  20.942  15.739 -0.0570 -0.0272 -0.0250
 4177POPC   C4B88097  29.887  20.701  15.602 -0.4952  0.0027 -0.0066
 4178POPC   NC388098  15.544  19.997  19.531  0.1350  0.1662  0.2426
 4178POPC   PO488099  15.768  20.294  19.426  0.2985 -0.2109 -0.0188
 4178POPC   GL188100  15.516  20.330  19.107 -0.0197 -0.0445  0.0160
 4178POPC   GL288101  15.574  20.091  18.963 -0.1975  0.4298 -0.0558
 4178POPC   C1A88102  15.398  20.413  18.634  0.3053  0.0867 -0.1981
 4178POPC   D2A88103  15.384  20.326  18.211  0.3469 -0.1168 -0.0051
 4178POPC   C3A88104  15.721  20.329  17.924  0.0258 -0.1709  0.2376
 4178POPC   C4A88105  16.046  20.625  17.874 -0.1061 -0.2479  0.2351
 4178POPC   C1B88106  15.616  19.887  18.537  0.1784  0.0988  0.1426
 4178POPC   C2B88107  15.669  19.871  18.029 -0.2248  0.1500 -0.1918
 4178POPC   C3B88108  15.574  19.559  17.718  0.1661 -0.0965  0.0091
 4178POPC   C4B88109  15.426  19.660  17.277 -0.1082  0.0397 -0.0906
 4179POPC   NC388110  24.630  31.425  20.265 -0.2359  0.0916  0.1052
 4179POPC   PO488111  24.955  31.576  20.133  0.1944 -0.1443 -0.4884
 4179POPC   GL188112  24.719  31.398  19.816  0.2187 -0.2283  0.1099
 4179POPC   GL288113  24.953  31.310  19.722 -0.1803 -0.3020 -0.3160
 4179POPC   C1A88114  24.500  31.259  19.400  0.0970 -0.4764  0.0268
 4179POPC   D2A88115  24.526  31.184  18.915  0.0097 -0.1728 -0.3069
 4179POPC   C3A88116  24.252  31.221  18.558  0.1056 -0.0871  0.0014
 4179POPC   C4A88117  23.943  31.354  18.291  0.1345 -0.0911 -0.0005
 4179POPC   C1B88118  25.039  31.207  19.280 -0.0849 -0.1023  0.2790
 4179POPC   C2B88119  25.148  30.941  18.889  0.1282  0.0193 -0.0614
 4179POPC   C3B88120  25.244  30.768  18.459  0.1860  0.1372 -0.0232
 4179POPC   C4B88121  25.623  30.568  18.225 -0.0159 -0.2718  0.0161
 4180POPC   NC388122  26.458  21.132  14.414 -0.3256  0.0701  0.3408
 4180POPC   PO488123  26.805  21.195  14.206 -0.0206 -0.0021  0.1098
 4180POPC   GL188124  27.047  20.903  14.075 -0.2165  0.0031 -0.2392
 4180POPC   GL288125  27.220  20.653  14.161 -0.0995  0.3660 -0.1235
 4180POPC   C1A88126  27.090  20.708  13.664  0.0881 -0.1847  0.1293
 4180POPC   D2A88127  27.020  20.432  13.318 -0.2607 -0.0667 -0.1992
 4180POPC   C3A88128  26.661  20.480  12.999  0.0485 -0.1364  0.2069
 4180POPC   C4A88129  26.323  20.347  12.764  0.1809  0.0451 -0.3848
 4180POPC   C1B88130  27.155  20.269  13.898  0.0604 -0.0039 -0.1135
 4180POPC   C2B88131  27.395  20.185  13.504 -0.4741  0.0216 -0.0522
 4180POPC   C3B88132  27.533  20.341  13.107 -0.1004  0.1041 -0.4246
 4180POPC   C4B88133  27.612  20.712  12.793 -0.2474  0.1238  0.1144
 4181POPC   NC388134  24.707  17.857  19.184 -0.1119 -0.1363  0.1637
 4181POPC   PO488135  24.419  17.686  18.955 -0.3056 -0.1024 -0.3320
 4181POPC   GL188136  24.196  17.748  18.580 -0.5094  0.3198 -0.3659
 4181POPC   GL288137  23.964  17.855  18.411  0.0480 -0.3360  0.0793
 4181POPC   C1A88138  24.339  17.629  18.121  0.0045  0.1141 -0.4735
 4181POPC   D2A88139  24.326  17.212  17.868  0.0572 -0.1469  0.1360
 4181POPC   C3A88140  24.015  16.996  17.632 -0.4992 -0.0552  0.2123
 4181POPC   C4A88141  23.762  16.712  17.364 -0.1912  0.0501  0.2394
 4181POPC   C1B88142  23.838  17.577  18.121  0.1613  0.0396  0.1606
 4181POPC   C2B88143  23.761  17.492  17.650 -0.0552  0.2118 -0.0821
 4181POPC   C3B88144  23.670  17.229  17.326 -0.2214 -0.0794 -0.0869
 4181POPC   C4B88145  23.263  17.184  17.052 -0.2393 -0.0388 -0.3062
 4182POPC   NC388146  20.056  26.387  20.690  0.0211 -0.2149 -0.2581
 4182POPC   PO488147  19.681  26.311  20.625  0.2556 -0.0741 -0.2025
 4182POPC   GL188148  19.751  26.118  20.400 -0.1699 -0.1805 -0.1304
 4182POPC   GL288149  19.562  26.092  20.166  0.2335  0.1461  0.3335
 4182POPC   C1A88150  20.120  26.166  20.115  0.0176  0.1499 -0.1698
 4182POPC   D2A88151  20.249  26.373  19.728  0.1868 -0.1661 -0.0922
 4182POPC   C3A88152  20.423  26.595  19.345  0.0786 -0.1303  0.0182
 4182POPC   C4A88153  20.637  26.834  18.955 -0.0901 -0.0051 -0.2273
 4182POPC   C1B88154  19.461  26.002  19.711  0.1682 -0.0052 -0.2476
 4182POPC   C2B88155  19.459  26.093  19.270 -0.2398 -0.0032 -0.1027
 4182POPC   C3B88156  19.229  26.187  18.883  0.3168  0.0198  0.2306
 4182POPC   C4B88157  18.930  26.202  18.599 -0.1986 -0.0231  0.0557
 4183POPC   NC388158  21.813  21.662  19.180  0.1474 -0.0039 -0.0338
 4183POPC   PO488159  21.660  22.012  19.106  0.0621 -0.2484 -0.0958
 4183POPC   GL188160  21.369  22.015  18.833 -0.0571 -0.1431  0.0557
 4183POPC   GL288161  21.521  22.106  18.631  0.0358 -0.2553 -0.0787
 4183POPC   C1A88162  21.028  22.294  18.645  0.0201  0.0440  0.1846
 4183POPC   D2A88163  20.719  22.532  18.502 -0.2079  0.1116 -0.0320
 4183POPC   C3A88164  20.524  22.309  18.123  0.1712  0.2939 -0.1554
 4183POPC   C4A88165  20.501  22.420  17.692  0.0123  0.2324 -0.1395
 4183POPC   C1B88166  21.523  22.476  18.321 -0.1751  0.0530 -0.3191
 4183POPC   C2B88167  21.404  22.691  17.926  0.2087 -0.1261 -0.0024
 4183POPC   C3B88168  21.385  23.039  17.623 -0.0712  0.1461 -0.2278
 4183POPC   C4B88169  21.255  23.076  17.159  0.1209  0.1110 -0.1024
 4184POPC   NC388170  21.619  23.245  19.527  0.2304 -0.0667  0.1363
 4184POPC   PO488171  21.745  22.885  19.452  0.0942 -0.6103 -0.0562
 4184POPC   GL188172  21.572  23.063  19.121 -0.1225 -0.8085 -0.0426
 4184POPC   GL288173  21.581  23.009  18.876 -0.1068  0.2136  0.0321
 4184POPC   C1A88174  21.465  23.465  18.801  0.0352  0.0391 -0.2332
 4184POPC   D2A88175  21.160  23.506  18.449 -0.0645  0.0222 -0.1419
 4184POPC   C3A88176  21.038  23.915  18.364  0.0608 -0.0828 -0.1521
 4184POPC   C4A88177  20.645  24.080  18.184  0.4025  0.3276  0.0633
 4184POPC   C1B88178  21.442  22.976  18.457 -0.0890  0.3009 -0.4449
 4184POPC   C2B88179  21.191  23.112  18.114 -0.0047  0.1742 -0.3053
 4184POPC   C3B88180  21.167  23.466  17.896 -0.1960 -0.0330 -0.3323
 4184POPC   C4B88181  21.347  23.614  17.501 -0.1069 -0.0842 -0.0707
 4185POPC   NC388182  25.821  21.081  15.466 -0.0346 -0.1122  0.0188
 4185POPC   PO488183  25.442  21.118  15.411 -0.2313 -0.2349  0.1668
 4185POPC   GL188184  25.269  20.936  15.124 -0.1518  0.2366  0.0938
 4185POPC   GL288185  25.332  20.703  15.057  0.1328  0.0186 -0.0264
 4185POPC   C1A88186  24.858  20.798  15.084  0.4359  0.0653  0.1712
 4185POPC   D2A88187  24.446  21.002  15.284 -0.2664  0.1289 -0.0592
 4185POPC   C3A88188  24.083  20.834  15.044  0.3705 -0.1725  0.3323
 4185POPC   C4A88189  23.670  20.695  14.830  0.2443 -0.2915  0.1278
 4185POPC   C1B88190  25.100  20.465  14.811  0.1847 -0.1193  0.2096
 4185POPC   C2B88191  24.855  20.181  14.523  0.0740 -0.2476 -0.4162
 4185POPC   C3B88192  24.714  20.008  14.143  0.2195  0.0726  0.0932
 4185POPC   C4B88193  24.536  19.850  13.733  0.2900  0.2749  0.0672
 4186POPC   NC388194  27.332  26.058  19.010  0.1612 -0.0833 -0.0435
 4186POPC   PO488195  27.602  26.008  19.291  0.2366  0.1409  0.0468
 4186POPC   GL188196  27.830  26.053  18.942  0.4063 -0.1710 -0.0194
 4186POPC   GL288197  27.781  25.763  18.876  0.0344  0.3367 -0.2344
 4186POPC   C1A88198  27.820  26.352  18.591  0.3220  0.1351  0.1302
 4186POPC   D2A88199  27.640  26.678  18.301 -0.1736 -0.3169  0.1170
 4186POPC   C3A88200  27.791  27.102  18.296  0.2657  0.1773 -0.1404
 4186POPC   C4A88201  27.900  27.571  18.251 -0.0357 -0.0063  0.2140
 4186POPC   C1B88202  28.021  25.902  18.525 -0.0309 -0.4996 -0.0116
 4186POPC   C2B88203  27.916  26.079  18.056  0.1061 -0.1324  0.0276
 4186POPC   C3B88204  27.979  26.318  17.647  0.0324  0.1608 -0.0679
 4186POPC   C4B88205  28.167  26.230  17.248  0.0740 -0.1747  0.0955
 4187POPC   NC388206  18.387  28.437  20.502 -0.0641  0.0994  0.0429
 4187POPC   PO488207  18.074  28.679  20.486  0.0627  0.0430  0.0495
 4187POPC   GL188208  18.103  28.638  19.978  0.3372 -0.1762  0.0606
 4187POPC   GL288209  18.366  28.548  20.012 -0.0479 -0.2441 -0.0829
 4187POPC   C1A88210  18.075  28.889  19.575  0.2461  0.0471 -0.1539
 4187POPC   D2A88211  18.105  29.074  19.178  0.0706  0.1158 -0.1098
 4187POPC   C3A88212  18.180  29.498  18.948 -0.0488  0.0089 -0.0889
 4187POPC   C4A88213  18.346  29.658  18.553 -0.0334  0.0043 -0.0145
 4187POPC   C1B88214  18.267  28.436  19.567 -0.0393  0.0473 -0.5844
 4187POPC   C2B88215  18.425  28.455  19.147  0.1186 -0.2079 -0.4073
 4187POPC   C3B88216  18.326  28.686  18.710 -0.0504 -0.1821 -0.0034
 4187POPC   C4B88217  18.239  28.775  18.247 -0.0041 -0.1224  0.0398
 4188POPC   NC388218  27.597  18.440  19.341 -0.0261  0.0819 -0.0262
 4188POPC   PO488219  27.526  18.470  18.929 -0.0630  0.0822 -0.2251
 4188POPC   GL188220  27.475  18.133  18.713  0.1406 -0.2623  0.1347
 4188POPC   GL288221  27.295  18.114  18.446 -0.0674 -0.0408 -0.1045
 4188POPC   C1A88222  27.854  17.861  18.600 -0.2291  0.2698  0.4681
 4188POPC   D2A88223  28.288  17.951  18.488 -0.0361  0.2162 -0.2182
 4188POPC   C3A88224  28.297  18.390  18.376 -0.0023  0.0074 -0.0802
 4188POPC   C4A88225  28.343  18.782  18.159  0.1844  0.0941  0.0056
 4188POPC   C1B88226  27.441  17.750  18.269  0.0114  0.1741  0.1238
 4188POPC   C2B88227  27.848  17.728  18.016  0.3013  0.1585  0.0858
 4188POPC   C3B88228  28.164  17.563  17.718  0.1655 -0.1355 -0.2136
 4188POPC   C4B88229  28.416  17.453  17.326  0.2472  0.1553  0.1302
 4189POPC   NC388230  24.710  17.309  19.163 -0.2149  0.0296 -0.2991
 4189POPC   PO488231  24.865  17.412  18.807  0.1950  0.1991 -0.0014
 4189POPC   GL188232  24.926  17.355  18.489  0.0229 -0.4251  0.0279
 4189POPC   GL288233  25.215  17.548  18.378 -0.0798  0.2197  0.0238
 4189POPC   C1A88234  24.816  17.289  17.988  0.0699  0.1417 -0.0998
 4189POPC   D2A88235  24.702  17.181  17.564  0.0891 -0.1195  0.0285
 4189POPC   C3A88236  24.571  17.097  17.069 -0.2462  0.1739  0.1050
 4189POPC   C4A88237  24.413  16.885  16.646 -0.0697  0.0173 -0.3001
 4189POPC   C1B88238  25.337  17.218  18.136 -0.0994  0.0975 -0.2161
 4189POPC   C2B88239  25.655  16.902  17.959 -0.2281 -0.0317  0.2199
 4189POPC   C3B88240  25.903  16.801  17.578  0.2154  0.0436  0.0246
 4189POPC   C4B88241  26.080  16.690  17.127  0.0464  0.2056  0.1220
 4190POPC   NC388242  27.702  21.751  13.199  0.0960 -0.0157 -0.1318
 4190POPC   PO488243  27.846  22.103  13.319  0.4309 -0.0585  0.0418
 4190POPC   GL188244  28.226  22.145  13.385  0.0175 -0.0464  0.1730
 4190POPC   GL288245  28.439  21.872  13.374 -0.0697 -0.1161  0.2599
 4190POPC   C1A88246  28.479  22.506  13.569 -0.2239 -0.0496  0.1849
 4190POPC   D2A88247  28.941  22.594  13.632  0.4786 -0.1910  0.0223
 4190POPC   C3A88248  29.111  22.696  14.117  0.3760 -0.1794  0.0974
 4190POPC   C4A88249  29.336  22.885  14.486  0.2353 -0.0064  0.1874
 4190POPC   C1B88250  28.627  22.149  13.012  0.3190  0.2605 -0.0252
 4190POPC   C2B88251  28.621  22.632  13.033 -0.0720 -0.3287 -0.2206
 4190POPC   C3B88252  28.539  23.007  12.740  0.1039  0.0121 -0.1348
 4190POPC   C4B88253  28.731  23.388  12.499 -0.1126 -0.0108  0.1610
 4191POPC   NC388254  24.866  22.493  15.144 -0.1268 -0.0466 -0.3317
 4191POPC   PO488255  25.138  22.668  14.936  0.1804 -0.1390  0.0668
 4191POPC   GL188256  24.880  22.520  14.720 -0.1190 -0.0082 -0.0292
 4191POPC   GL288257  24.698  22.720  14.646 -0.1719  0.1268 -0.1733
 4191POPC   C1A88258  24.425  22.346  14.788 -0.0828  0.0044 -0.0783
 4191POPC   D2A88259  24.032  22.275  14.986  0.1405  0.1331  0.0809
 4191POPC   C3A88260  23.713  22.486  14.728 -0.0400 -0.3248  0.1400
 4191POPC   C4A88261  23.531  22.570  14.341  0.1482 -0.2725 -0.1783
 4191POPC   C1B88262  24.470  23.089  14.504 -0.0215 -0.0367  0.3117
 4191POPC   C2B88263  24.193  23.446  14.562 -0.1393 -0.2179 -0.0291
 4191POPC   C3B88264  23.779  23.491  14.527 -0.0726 -0.0852 -0.1089
 4191POPC   C4B88265  23.386  23.576  14.776  0.0250  0.4702  0.2585
 4192POPC   NC388266  20.925  20.339  19.058 -0.0243  0.1110  0.0662
 4192POPC   PO488267  21.009  20.730  19.095 -0.0259 -0.0897  0.3001
 4192POPC   GL188268  21.062  20.800  18.813  0.1500  0.2745  0.0980
 4192POPC   GL288269  21.135  20.702  18.579  0.0176  0.0880  0.0696
 4192POPC   C1A88270  21.009  21.235  18.657  0.1232 -0.2056  0.3069
 4192POPC   D2A88271  21.114  21.668  18.548  0.0832 -0.2369  0.2381
 4192POPC   C3A88272  21.566  21.711  18.387 -0.0205  0.0266 -0.4548
 4192POPC   C4A88273  22.022  21.830  18.231 -0.2627  0.1875 -0.2417
 4192POPC   C1B88274  20.940  20.949  18.280 -0.1681  0.1301  0.0664
 4192POPC   C2B88275  20.753  20.906  17.862  0.1323 -0.0847  0.2380
 4192POPC   C3B88276  20.350  21.020  17.575  0.1622 -0.0542 -0.1269
 4192POPC   C4B88277  19.985  20.925  17.274 -0.1980 -0.0192 -0.0053
 4193POPC   NC388278  29.058  22.064  17.343  0.1274 -0.1189 -0.1514
 4193POPC   PO488279  29.028  22.225  17.702  0.4398  0.3091 -0.0269
 4193POPC   GL188280  29.329  22.290  17.644 -0.2857  0.0397  0.0491
 4193POPC   GL288281  29.462  22.413  17.392  0.1790  0.3108  0.2364
 4193POPC   C1A88282  29.655  21.980  17.506 -0.5360 -0.2327 -0.1270
 4193POPC   D2A88283  29.981  21.755  17.254  0.2035  0.0459  0.1286
 4193POPC   C3A88284  30.204  21.850  16.820 -0.2040 -0.3127 -0.4027
 4193POPC   C4A88285  30.572  21.804  16.601  0.1421 -0.0751 -0.1614
 4193POPC   C1B88286  29.665  22.180  17.035  0.1560 -0.2369 -0.0999
 4193POPC   C2B88287  29.721  21.895  16.690 -0.0840  0.0418 -0.3618
 4193POPC   C3B88288  29.803  21.686  16.290  0.2364  0.0921 -0.5620
 4193POPC   C4B88289  29.601  21.482  15.864  0.0531 -0.2213  0.0891
 4194POPC   NC388290  20.654  24.693  20.683  0.3544  0.1587  0.0546
 4194POPC   PO488291  20.722  24.771  20.303 -0.2148  0.1048  0.3103
 4194POPC   GL188292  20.651  24.895  19.961 -0.4499 -0.0034  0.0751
 4194POPC   GL288293  20.707  24.701  19.771 -0.5988  0.0359 -0.1353
 4194POPC   C1A88294  20.434  25.247  19.751  0.1141  0.1679  0.1305
 4194POPC   D2A88295  20.263  25.274  19.257 -0.2622  0.1918 -0.1934
 4194POPC   C3A88296  20.667  25.238  19.007 -0.2169  0.1054 -0.0556
 4194POPC   C4A88297  21.026  25.488  19.094 -0.1914 -0.2721  0.2413
 4194POPC   C1B88298  20.415  24.857  19.481  0.0097 -0.2416 -0.0614
 4194POPC   C2B88299  20.095  24.682  19.195 -0.0198 -0.2983 -0.0165
 4194POPC   C3B88300  19.945  24.416  18.796 -0.1906 -0.2034 -0.2876
 4194POPC   C4B88301  19.754  24.023  18.577  0.3789 -0.0403 -0.0928
 4195POPC   NC388302  22.601  24.957  20.269  0.0477  0.2363 -0.2395
 4195POPC   PO488303  22.436  25.273  20.122  0.2236  0.1922 -0.0860
 4195POPC   GL188304  22.152  25.385  19.816  0.0036  0.0349 -0.1006
 4195POPC   GL288305  22.300  25.585  19.692 -0.3967 -0.2187 -0.2669
 4195POPC   C1A88306  21.977  25.076  19.489 -0.0483 -0.3492 -0.1718
 4195POPC   D2A88307  21.793  24.945  19.087 -0.0193 -0.0130  0.0545
 4195POPC   C3A88308  21.674  25.329  18.827 -0.1126  0.2460  0.1983
 4195POPC   C4A88309  21.242  25.446  18.606  0.1592  0.2186 -0.0257
 4195POPC   C1B88310  22.204  25.984  19.534 -0.1383  0.2105 -0.1435
 4195POPC   C2B88311  22.148  26.144  19.076 -0.1525  0.1125  0.1037
 4195POPC   C3B88312  22.222  26.095  18.597 -0.0053 -0.1291 -0.0025
 4195POPC   C4B88313  22.127  25.798  18.197  0.0755  0.2596  0.0057
 4196POPC   NC388314  28.810  25.637  19.181 -0.1761 -0.2806 -0.1069
 4196POPC   PO488315  29.155  25.661  19.373  0.2865 -0.0300  0.0905
 4196POPC   GL188316  29.220  25.902  19.133 -0.1777 -0.1034  0.5650
 4196POPC   GL288317  29.400  26.104  19.207  0.0624  0.2027 -0.3833
 4196POPC   C1A88318  29.549  25.771  18.847 -0.0749 -0.3075  0.1492
 4196POPC   D2A88319  29.976  25.886  18.734 -0.1163 -0.0495  0.2828
 4196POPC   C3A88320  30.025  26.039  18.288 -0.2118  0.2569 -0.1805
 4196POPC   C4A88321  30.024  26.076  17.792 -0.1659  0.0103 -0.0455
 4196POPC   C1B88322  29.250  26.191  18.782  0.0722  0.1911 -0.0006
 4196POPC   C2B88323  29.382  26.420  18.432 -0.1667 -0.0075  0.0836
 4196POPC   C3B88324  29.207  26.819  18.321  0.0394 -0.3187  0.0060
 4196POPC   C4B88325  29.208  27.082  18.685  0.1900 -0.0279  0.0355
 4197POPC   NC388326  30.230  29.786  20.789 -0.0199  0.2832 -0.1596
 4197POPC   PO488327  30.234  29.840  20.404  0.0979 -0.2651  0.2485
 4197POPC   GL188328  30.202  30.001  20.034  0.2010 -0.1014  0.0009
 4197POPC   GL288329  30.225  30.227  19.897 -0.0353 -0.0182  0.1155
 4197POPC   C1A88330  30.058  29.871  19.627 -0.3300  0.1167 -0.1288
 4197POPC   D2A88331  29.794  29.488  19.542 -0.1310 -0.1428  0.2998
 4197POPC   C3A88332  29.961  29.379  19.071 -0.1259  0.2290  0.1229
 4197POPC   C4A88333  30.271  29.284  18.751 -0.0704  0.0134 -0.2946
 4197POPC   C1B88334  30.506  30.366  19.543  0.2811  0.0252  0.0350
 4197POPC   C2B88335  30.754  30.610  19.298 -0.2332  0.1148 -0.1657
 4197POPC   C3B88336  30.988  30.986  19.265 -0.3528 -0.2622  0.1318
 4197POPC   C4B88337  31.171  31.390  19.121 -0.1159  0.0648 -0.1035
 4198POPC   NC388338  22.383  24.096  19.741 -0.0683 -0.0128 -0.1358
 4198POPC   PO488339  22.105  23.902  19.807  0.1722  0.1057 -0.2449
 4198POPC   GL188340  21.845  23.978  19.532  0.0050 -0.0692 -0.3790
 4198POPC   GL288341  21.639  24.078  19.626 -0.0004 -0.0008  0.2550
 4198POPC   C1A88342  21.760  23.723  19.203 -0.4005  0.2999  0.1789
 4198POPC   D2A88343  22.064  23.650  18.774 -0.0818  0.1517  0.0840
 4198POPC   C3A88344  21.839  23.776  18.401 -0.1546  0.1998 -0.4228
 4198POPC   C4A88345  21.441  23.837  18.159 -0.2927  0.0339 -0.4312
 4198POPC   C1B88346  21.425  24.234  19.198  0.0570 -0.0884 -0.0027
 4198POPC   C2B88347  21.535  24.534  18.858  0.0544 -0.1909 -0.1258
 4198POPC   C3B88348  21.477  24.782  18.494 -0.0212  0.2158  0.0582
 4198POPC   C4B88349  21.589  25.196  18.280 -0.0728  0.2227 -0.1015
 4199POPC   NC388350  23.254  16.844  19.716  0.1806  0.0653 -0.1030
 4199POPC   PO488351  22.986  17.039  19.574  0.1652  0.0926  0.2223
 4199POPC   GL188352  22.936  16.992  19.101  0.0115 -0.2974  0.2073
 4199POPC   GL288353  23.213  17.148  19.092  0.0022 -0.0102 -0.1714
 4199POPC   C1A88354  22.946  16.584  18.866 -0.3201 -0.0558 -0.2226
 4199POPC   D2A88355  22.935  16.209  18.577 -0.2019  0.2743  0.3592
 4199POPC   C3A88356  22.730  16.155  18.204  0.1494 -0.0392 -0.0142
 4199POPC   C4A88357  22.391  16.094  17.864 -0.3455  0.0047  0.1624
 4199POPC   C1B88358  23.268  16.912  18.715 -0.1482  0.0071 -0.4041
 4199POPC   C2B88359  23.307  16.950  18.258 -0.1427  0.2121  0.2626
 4199POPC   C3B88360  22.966  16.847  17.880 -0.0633 -0.0433 -0.5698
 4199POPC   C4B88361  22.616  16.577  17.727 -0.1887 -0.2111 -0.0374
 4200POPC   NC388362  29.523  20.900  17.875  0.0818  0.2355  0.1368
 4200POPC   PO488363  29.300  20.545  17.942  0.0192  0.3738  0.1099
 4200POPC   GL188364  29.289  20.351  17.470  0.0971  0.0024  0.0190
 4200POPC   GL288365  29.433  20.539  17.310 -0.0285 -0.1053  0.1474
 4200POPC   C1A88366  29.558  19.976  17.376 -0.2649  0.0215  0.1608
 4200POPC   D2A88367  29.676  19.511  17.234  0.2031 -0.2063 -0.2801
 4200POPC   C3A88368  30.019  19.313  16.913 -0.0616  0.0350  0.0479
 4200POPC   C4A88369  30.182  18.895  16.652  0.0121 -0.0310  0.1534
 4200POPC   C1B88370  29.700  20.430  16.924 -0.1158 -0.0837 -0.3147
 4200POPC   C2B88371  29.811  20.144  16.564 -0.0372  0.0853 -0.0728
 4200POPC   C3B88372  29.982  19.970  16.141  0.0732  0.0601 -0.4079
 4200POPC   C4B88373  30.291  19.652  16.134 -0.3914 -0.0531  0.0893
 4201POPC   NC388374  24.741  23.275  18.126  0.1253  0.1359  0.0429
 4201POPC   PO488375  24.904  23.452  17.804  0.1250  0.1108 -0.2398
 4201POPC   GL188376  24.887  23.785  17.654 -0.0354 -0.1092  0.0162
 4201POPC   GL288377  24.627  23.872  17.587  0.1305 -0.0656  0.1574
 4201POPC   C1A88378  25.089  23.961  17.332  0.1235 -0.2283  0.1633
 4201POPC   D2A88379  25.033  24.381  17.038  0.0274 -0.3972 -0.0297
 4201POPC   C3A88380  24.692  24.638  17.019 -0.0487  0.1156 -0.0405
 4201POPC   C4A88381  24.563  25.081  17.005 -0.0664  0.0461  0.2665
 4201POPC   C1B88382  24.208  23.983  17.632 -0.1739 -0.1538  0.1373
 4201POPC   C2B88383  23.843  24.229  17.555  0.0665  0.1203 -0.1420
 4201POPC   C3B88384  23.713  24.619  17.406  0.2922  0.0925 -0.0003
 4201POPC   C4B88385  23.672  25.073  17.363  0.2584 -0.0363 -0.1078
 4202POPC   NC388386  28.388  22.479  17.131  0.4873 -0.1076  0.0711
 4202POPC   PO488387  28.460  22.833  17.258 -0.2444  0.0427  0.0589
 4202POPC   GL188388  28.784  23.170  17.191  0.2298  0.2273 -0.2048
 4202POPC   GL288389  28.666  23.388  17.032 -0.0708 -0.2936  0.1271
 4202POPC   C1A88390  29.006  23.067  16.802 -0.2283 -0.0305 -0.0505
 4202POPC   D2A88391  29.154  23.197  16.346 -0.1353 -0.1609  0.1391
 4202POPC   C3A88392  28.916  23.566  16.206  0.1418  0.1560  0.0101
 4202POPC   C4A88393  28.625  23.443  15.903 -0.1163  0.0072  0.3764
 4202POPC   C1B88394  28.915  23.603  16.721  0.1662  0.3230 -0.0339
 4202POPC   C2B88395  28.950  23.985  16.510 -0.0112 -0.1060 -0.0766
 4202POPC   C3B88396  28.813  24.394  16.354 -0.2064 -0.1371 -0.1328
 4202POPC   C4B88397  28.769  24.671  16.016 -0.0668  0.3168  0.0248
 4203POPC   NC388398  26.066  19.581  17.149  0.1573 -0.0433 -0.3153
 4203POPC   PO488399  25.968  19.227  17.310  0.0360  0.1497 -0.1846
 4203POPC   GL188400  25.853  18.811  17.135  0.0250  0.2413 -0.0759
 4203POPC   GL288401  25.665  18.632  17.255 -0.2042 -0.1190 -0.0099
 4203POPC   C1A88402  25.984  18.421  16.843 -0.3421 -0.0626 -0.1415
 4203POPC   D2A88403  26.296  18.042  16.887  0.1595 -0.0302 -0.0924
 4203POPC   C3A88404  26.140  17.658  17.045  0.0827 -0.2854  0.0774
 4203POPC   C4A88405  26.131  17.183  16.856 -0.0733  0.2583 -0.2540
 4203POPC   C1B88406  25.497  18.176  17.096  0.1275  0.0899 -0.0284
 4203POPC   C2B88407  25.750  17.905  16.807  0.2467  0.0795  0.0350
 4203POPC   C3B88408  26.040  17.782  16.451  0.0506 -0.1656  0.4778
 4203POPC   C4B88409  26.100  17.562  16.011  0.0734 -0.1708 -0.0114
 4204POPC   NC388410   0.461  25.492  20.280 -0.0835  0.0512  0.0445
 4204POPC   PO488411   0.593  25.830  20.373 -0.0098  0.0529  0.3393
 4204POPC   GL188412   0.804  25.789  20.078  0.4934  0.0107  0.0909
 4204POPC   GL288413   0.934  25.522  20.056  0.3149 -0.1083  0.1693
 4204POPC   C1A88414   0.681  25.971  19.681 -0.2371 -0.1665  0.1858
 4204POPC   D2A88415   0.848  26.382  19.488 -0.1574 -0.0159  0.1643
 4204POPC   C3A88416   1.150  26.489  19.106 -0.1629 -0.1867 -0.1502
 4204POPC   C4A88417   1.236  26.772  18.754 -0.0798 -0.0972  0.4470
 4204POPC   C1B88418   1.212  25.795  19.695  0.1900  0.0160 -0.2915
 4204POPC   C2B88419   1.248  25.989  19.288 -0.1384  0.4034 -0.0249
 4204POPC   C3B88420   1.362  26.108  18.849  0.2943 -0.0441  0.3053
 4204POPC   C4B88421   1.149  26.348  18.490  0.2158 -0.1134 -0.1864
 4205POPC   NC388422  22.666  25.901  20.516 -0.2748  0.0720  0.0175
 4205POPC   PO488423  22.903  26.098  20.247  0.1025 -0.2779 -0.1778
 4205POPC   GL188424  22.796  26.352  20.024 -0.0178  0.0396 -0.1189
 4205POPC   GL288425  22.568  26.249  19.801 -0.1531  0.0176  0.0662
 4205POPC   C1A88426  22.853  26.608  19.600  0.0363  0.0999 -0.0995
 4205POPC   D2A88427  22.582  26.975  19.415 -0.0166  0.0866 -0.1774
 4205POPC   C3A88428  22.720  27.170  19.041 -0.1158  0.0211 -0.0027
 4205POPC   C4A88429  22.798  27.256  18.609 -0.0925 -0.0801 -0.2333
 4205POPC   C1B88430  22.478  26.385  19.370  0.0849 -0.2442  0.0035
 4205POPC   C2B88431  22.326  26.611  18.961  0.5940 -0.2762  0.2692
 4205POPC   C3B88432  21.926  26.466  18.728  0.2559 -0.0664  0.1851
 4205POPC   C4B88433  21.590  26.584  18.399 -0.1842  0.3330 -0.2216
 4206POPC   NC388434  22.483  21.471  18.987  0.0308  0.1395 -0.1646
 4206POPC   PO488435  22.167  21.328  19.154  0.0232 -0.0813 -0.0257
 4206POPC   GL188436  21.967  21.274  18.790  0.1295  0.4382 -0.1514
 4206POPC   GL288437  21.783  21.421  18.722  0.2268  0.1660  0.2227
 4206POPC   C1A88438  21.765  20.875  18.695 -0.1734 -0.0440  0.1222
 4206POPC   D2A88439  21.567  20.840  18.250  0.1677 -0.1858  0.3213
 4206POPC   C3A88440  21.259  20.943  17.859 -0.0023  0.0800 -0.1002
 4206POPC   C4A88441  21.051  21.004  17.395 -0.2976 -0.0116  0.0014
 4206POPC   C1B88442  21.452  21.229  18.495 -0.1399  0.1156  0.1384
 4206POPC   C2B88443  21.165  21.363  18.167  0.1325 -0.2658  0.1617
 4206POPC   C3B88444  21.181  21.807  18.064 -0.1202 -0.0836  0.1489
 4206POPC   C4B88445  20.996  22.247  18.025  0.0545 -0.1062  0.1594
 4207POPC   NC388446  27.926  23.644  16.936  0.0097  0.1283  0.2893
 4207POPC   PO488447  28.204  23.592  17.202 -0.2743 -0.1820 -0.1034
 4207POPC   GL188448  28.388  23.761  16.844  0.3835  0.0129 -0.0254
 4207POPC   GL288449  28.524  23.986  16.954 -0.1091  0.0884  0.0847
 4207POPC   C1A88450  28.349  24.096  16.508 -0.0519 -0.1169  0.1432
 4207POPC   D2A88451  28.277  24.496  16.232  0.1014  0.1235  0.2646
 4207POPC   C3A88452  28.096  24.813  15.983 -0.0903 -0.1244 -0.0885
 4207POPC   C4A88453  28.097  25.246  16.060 -0.0289  0.0418  0.2571
 4207POPC   C1B88454  28.808  24.332  16.860  0.2911 -0.2859  0.0218
 4207POPC   C2B88455  29.160  24.599  16.846  0.1032 -0.1390 -0.0189
 4207POPC   C3B88456  29.594  24.633  16.677  0.1813  0.1178  0.3716
 4207POPC   C4B88457  29.973  24.896  16.557  0.1541 -0.1359 -0.2042
 4208POPC   NC388458   0.128  32.470  20.021  0.1310 -0.2103  0.1492
 4208POPC   PO488459  -0.003  32.850  19.857 -0.1776 -0.1077  0.2932
 4208POPC   GL188460   0.036  32.905  19.508  0.1804 -0.3914  0.1781
 4208POPC   GL288461   0.068  32.676  19.347 -0.0070  0.1406 -0.1413
 4208POPC   C1A88462   0.255  33.044  19.128  0.0969 -0.3088 -0.0768
 4208POPC   D2A88463   0.386  32.955  18.709  0.0342 -0.1995 -0.0488
 4208POPC   C3A88464   0.819  32.819  18.528 -0.0852 -0.3004 -0.2435
 4208POPC   C4A88465   1.066  33.003  18.193 -0.0171  0.1053 -0.3398
 4208POPC   C1B88466  -0.034  32.694  18.952  0.0679  0.1316  0.0605
 4208POPC   C2B88467  -0.154  33.026  18.705  0.0556  0.0200 -0.0299
 4208POPC   C3B88468  -0.352  33.384  18.434  0.2421  0.0235 -0.2786
 4208POPC   C4B88469  -0.058  33.531  18.077  0.0073  0.1640 -0.0023
 4209POPC   NC388470  21.549  19.715  19.280 -0.1882 -0.3626 -0.3887
 4209POPC   PO488471  21.178  19.808  19.136  0.0857  0.1528 -0.1914
 4209POPC   GL188472  21.034  19.933  18.716  0.0229 -0.2334  0.0881
 4209POPC   GL288473  21.287  19.863  18.611  0.0314  0.1728 -0.1040
 4209POPC   C1A88474  20.831  20.213  18.426 -0.3364  0.2188  0.0513
 4209POPC   D2A88475  21.010  20.474  18.102 -0.1788  0.0172  0.0134
 4209POPC   C3A88476  21.003  20.514  17.658  0.0174  0.2270 -0.2883
 4209POPC   C4A88477  21.025  20.397  17.194  0.0559  0.3908  0.2777
 4209POPC   C1B88478  21.140  19.847  18.181  0.2248 -0.1114 -0.1604
 4209POPC   C2B88479  20.842  20.097  17.859  0.0509 -0.1157  0.2523
 4209POPC   C3B88480  20.550  20.411  17.738 -0.2261 -0.1061  0.1279
 4209POPC   C4B88481  20.097  20.491  17.553 -0.0415  0.1751 -0.3313
 4210POPC   NC388482  17.978  17.214  20.021 -0.2002  0.1839  0.1881
 4210POPC   PO488483  17.837  16.937  19.798 -0.0201  0.1350  0.0358
 4210POPC   GL188484  17.766  17.137  19.450 -0.0677 -0.0320  0.1347
 4210POPC   GL288485  17.761  17.392  19.578  0.1325  0.1649 -0.1255
 4210POPC   C1A88486  17.576  17.252  19.036 -0.0310  0.4938 -0.1006
 4210POPC   D2A88487  17.550  17.023  18.674  0.0795 -0.1770  0.2676
 4210POPC   C3A88488  17.522  17.310  18.306  0.2476  0.2533  0.0565
 4210POPC   C4A88489  17.709  17.688  18.177  0.1957  0.0268 -0.3260
 4210POPC   C1B88490  17.987  17.527  19.207  0.2154  0.0379 -0.1657
 4210POPC   C2B88491  18.090  17.790  18.852  0.5061  0.1804  0.2065
 4210POPC   C3B88492  18.402  17.768  18.505  0.0515  0.2008  0.0499
 4210POPC   C4B88493  18.723  17.796  18.144  0.2008  0.2447 -0.0648
 4211POPC   NC388494  28.350  17.899  19.277 -0.1467  0.1211 -0.3295
 4211POPC   PO488495  28.055  17.667  19.305  0.1058  0.2752  0.0265
 4211POPC   GL188496  28.184  17.738  18.886  0.0354  0.1234 -0.1114
 4211POPC   GL288497  28.513  17.738  18.864  0.1624  0.1860  0.1939
 4211POPC   C1A88498  28.115  17.481  18.523 -0.6472  0.0492 -0.0297
 4211POPC   D2A88499  27.668  17.383  18.451 -0.0215  0.0532  0.2000
 4211POPC   C3A88500  27.578  17.246  18.058 -0.2808  0.1302 -0.0671
 4211POPC   C4A88501  27.752  17.213  17.626 -0.2712  0.0801 -0.1268
 4211POPC   C1B88502  28.683  17.429  18.519 -0.0229 -0.1201 -0.2321
 4211POPC   C2B88503  28.999  17.389  18.129  0.1848 -0.0474 -0.1615
 4211POPC   C3B88504  29.095  17.237  17.711  0.1357  0.3658  0.0490
 4211POPC   C4B88505  29.329  17.035  17.421 -0.0560  0.1127  0.0878
 4212POPC   NC388506  18.705  29.607  21.016  0.1374  0.0936  0.0627
 4212POPC   PO488507  18.543  29.267  20.889  0.0196 -0.2143  0.2171
 4212POPC   GL188508  18.749  28.902  20.641 -0.2260  0.3288 -0.3423
 4212POPC   GL288509  18.556  29.088  20.418  0.1519 -0.0033  0.1780
 4212POPC   C1A88510  18.762  28.702  20.238  0.1019  0.1019 -0.1113
 4212POPC   D2A88511  19.001  28.838  19.864  0.3802 -0.2248 -0.1246
 4212POPC   C3A88512  19.330  29.125  19.936 -0.2885 -0.3317 -0.2315
 4212POPC   C4A88513  19.573  29.314  19.638 -0.0116 -0.5054 -0.0757
 4212POPC   C1B88514  18.289  29.175  20.055  0.0355 -0.2848 -0.0677
 4212POPC   C2B88515  18.277  29.391  19.637  0.0655 -0.1285  0.0918
 4212POPC   C3B88516  18.522  29.643  19.362 -0.0102 -0.0115 -0.0051
 4212POPC   C4B88517  18.817  29.938  19.228  0.2066 -0.5018 -0.0203
 4213POPC   NC388518  20.751  19.511  19.284  0.1128 -0.2008 -0.2802
 4213POPC   PO488519  20.904  19.182  19.417  0.0366 -0.0982  0.0225
 4213POPC   GL188520  21.075  18.874  19.045  0.0203 -0.0509  0.3407
 4213POPC   GL288521  20.965  18.617  19.131  0.0378 -0.0946  0.0271
 4213POPC   C1A88522  21.263  18.971  18.635 -0.4471  0.1786  0.1493
 4213POPC   D2A88523  21.438  18.965  18.188  0.1620  0.1247  0.1856
 4213POPC   C3A88524  21.216  18.690  17.892 -0.3894 -0.0062  0.3320
 4213POPC   C4A88525  20.885  18.549  17.669 -0.1220  0.0255  0.1749
 4213POPC   C1B88526  21.257  18.475  18.744 -0.1765 -0.0508  0.0356
 4213POPC   C2B88527  21.238  18.316  18.274 -0.0044  0.2040  0.1123
 4213POPC   C3B88528  20.864  18.179  18.040 -0.0650  0.3036  0.1483
 4213POPC   C4B88529  20.472  18.109  17.835  0.3110  0.0809  0.1095
 4214POPC   NC388530  23.158  29.759  20.422 -0.0916  0.1197 -0.0431
 4214POPC   PO488531  23.103  30.103  20.531  0.1765  0.0450  0.4928
 4214POPC   GL188532  23.119  30.030  20.098 -0.2205 -0.0269  0.0054
 4214POPC   GL288533  22.919  30.266  20.062  0.1864  0.1280  0.0578
 4214POPC   C1A88534  23.390  29.978  19.697  0.4018  0.2766  0.2209
 4214POPC   D2A88535  23.252  30.246  19.347  0.1904  0.2844  0.2503
 4214POPC   C3A88536  23.407  30.218  18.892  0.1769 -0.1064 -0.1059
 4214POPC   C4A88537  23.647  30.608  18.778 -0.0213  0.2664 -0.1301
 4214POPC   C1B88538  22.533  30.333  19.864 -0.0222  0.0087  0.2579
 4214POPC   C2B88539  22.160  30.251  19.627 -0.0224  0.0854  0.1732
 4214POPC   C3B88540  21.985  30.342  19.171  0.0489 -0.2168  0.0460
 4214POPC   C4B88541  21.801  30.643  18.854 -0.3408  0.0977  0.0152
 4215POPC   NC388542  19.696  25.857  20.847 -0.2188  0.5374 -0.0774
 4215POPC   PO488543  19.704  25.682  20.464 -0.4332  0.1130 -0.0307
 4215POPC   GL188544  19.956  25.686  20.148  0.3104  0.1939  0.3546
 4215POPC   GL288545  19.822  25.725  19.899  0.1967  0.0135  0.2056
 4215POPC   C1A88546  20.261  25.734  19.771 -0.1630  0.0324 -0.0368
 4215POPC   D2A88547  20.613  25.632  19.466  0.0874 -0.1960 -0.1018
 4215POPC   C3A88548  20.597  25.730  19.040  0.0529 -0.3367  0.2372
 4215POPC   C4A88549  20.749  25.567  18.594  0.0051 -0.2583 -0.1643
 4215POPC   C1B88550  19.911  26.053  19.602 -0.1882  0.1307  0.0620
 4215POPC   C2B88551  19.893  26.445  19.301 -0.0445  0.1138  0.1342
 4215POPC   C3B88552  20.059  26.530  18.910 -0.1914 -0.0627 -0.2406
 4215POPC   C4B88553  19.832  26.546  18.526 -0.0081  0.0799  0.0140
 4216POPC   NC388554  27.073  21.158  15.707  0.2383 -0.1276 -0.0534
 4216POPC   PO488555  27.459  21.111  15.745  0.2834  0.0981 -0.0720
 4216POPC   GL188556  27.707  20.854  15.616 -0.2149 -0.2180  0.1362
 4216POPC   GL288557  27.881  20.677  15.706  0.2430 -0.0945 -0.0181
 4216POPC   C1A88558  27.807  20.727  15.187  0.2241 -0.1997  0.3998
 4216POPC   D2A88559  27.754  20.375  14.885 -0.0332  0.0490  0.1554
 4216POPC   C3A88560  27.982  19.956  14.757 -0.3763 -0.2246  0.2117
 4216POPC   C4A88561  27.836  19.523  14.616  0.0644  0.1260 -0.0410
 4216POPC   C1B88562  28.346  20.553  15.647 -0.1882  0.0840 -0.1717
 4216POPC   C2B88563  28.771  20.323  15.699  0.2978  0.2833  0.0904
 4216POPC   C3B88564  29.140  20.022  15.796  0.1877 -0.2716 -0.3053
 4216POPC   C4B88565  29.219  19.577  15.769  0.1867 -0.3296 -0.0688
 4217POPC   NC388566  23.127  20.897  18.607  0.0329  0.0604 -0.0553
 4217POPC   PO488567  22.789  21.156  18.716  0.1684 -0.1874  0.1897
 4217POPC   GL188568  22.586  20.999  18.400  0.3058  0.0074  0.0061
 4217POPC   GL288569  22.339  20.942  18.539 -0.1362 -0.0275 -0.0110
 4217POPC   C1A88570  22.454  21.055  18.015 -0.0436  0.0736 -0.2714
 4217POPC   D2A88571  22.158  20.862  17.694  0.0127  0.0781  0.0837
 4217POPC   C3A88572  22.027  21.083  17.310 -0.2348 -0.1124 -0.3127
 4217POPC   C4A88573  21.702  21.232  17.023 -0.2377 -0.2408  0.0817
 4217POPC   C1B88574  21.990  21.217  18.293  0.0281  0.0593 -0.1111
 4217POPC   C2B88575  21.715  21.438  18.043  0.1916  0.1984 -0.1370
 4217POPC   C3B88576  21.667  21.762  17.828 -0.0571  0.1372  0.0572
 4217POPC   C4B88577  21.512  22.192  17.865  0.2854 -0.6492  0.3182
 4218POPC   NC388578  25.734  17.420  19.035 -0.1677 -0.0380  0.1152
 4218POPC   PO488579  25.544  17.529  18.729 -0.0197  0.1446 -0.1874
 4218POPC   GL188580  25.924  17.433  18.605  0.6622  0.4747  0.3751
 4218POPC   GL288581  25.822  17.272  18.338 -0.1453 -0.2300  0.0103
 4218POPC   C1A88582  26.313  17.208  18.516  0.0674  0.0730 -0.1539
 4218POPC   D2A88583  26.704  17.001  18.404  0.0622 -0.1885  0.1329
 4218POPC   C3A88584  26.924  16.667  18.189 -0.2095 -0.1639 -0.1090
 4218POPC   C4A88585  27.213  16.320  17.928  0.1755 -0.0331  0.1229
 4218POPC   C1B88586  26.184  16.944  18.151 -0.0700 -0.0840 -0.0617
 4218POPC   C2B88587  26.440  16.924  17.786 -0.2301  0.3274 -0.2377
 4218POPC   C3B88588  26.846  16.903  17.624  0.1095 -0.0882  0.0598
 4218POPC   C4B88589  27.126  16.713  17.333 -0.0656 -0.0954 -0.1317
 4219POPC   NC388590  29.710  21.510  18.208  0.0906 -0.1973 -0.0566
 4219POPC   PO488591  29.345  21.421  18.052  0.0302 -0.0257  0.3390
 4219POPC   GL188592  29.493  21.353  17.589  0.1546 -0.1992 -0.0797
 4219POPC   GL288593  29.364  21.590  17.571  0.0374 -0.2507  0.0533
 4219POPC   C1A88594  29.710  21.026  17.319  0.2269  0.2748 -0.1375
 4219POPC   D2A88595  29.957  20.890  16.931  0.2414 -0.0777 -0.1717
 4219POPC   C3A88596  29.826  20.772  16.540  0.1749  0.0652  0.3200
 4219POPC   C4A88597  29.704  20.543  16.169 -0.0758  0.1481 -0.0903
 4219POPC   C1B88598  29.566  21.474  17.140  0.1366  0.2672  0.1430
 4219POPC   C2B88599  29.960  21.360  16.950  0.0688  0.0659 -0.0477
 4219POPC   C3B88600  30.381  21.264  16.710  0.0304  0.3347  0.2403
 4219POPC   C4B88601  30.787  21.065  16.510  0.2248 -0.1531 -0.0986
 4220POPC   NC388602  32.362  19.886  19.806 -0.1711 -0.0197 -0.0058
 4220POPC   PO488603  32.086  20.121  19.630 -0.0524  0.1244 -0.2893
 4220POPC   GL188604  32.316  20.016  19.284 -0.2423  0.2211  0.0868
 4220POPC   GL288605  32.561  19.763  19.331  0.1170 -0.1574  0.1947
 4220POPC   C1A88606  32.173  20.053  18.849  0.3441 -0.1883  0.0529
 4220POPC   D2A88607  31.850  20.174  18.588  0.2358  0.1541 -0.0207
 4220POPC   C3A88608  31.746  20.341  18.211  0.3807  0.1099  0.0236
 4220POPC   C4A88609  31.588  20.316  17.816 -0.0284  0.2650 -0.1481
 4220POPC   C1B88610  32.655  19.669  18.909 -0.0999 -0.1888 -0.2051
 4220POPC   C2B88611  32.934  19.592  18.570  0.0281 -0.0902 -0.1626
 4220POPC   C3B88612  33.281  19.502  18.346  0.2393  0.0076  0.2196
 4220POPC   C4B88613  33.389  19.298  17.945  0.1311  0.0611  0.1383
 4221POPC   NC388614  22.901  20.073  18.938 -0.1791  0.2352  0.0544
 4221POPC   PO488615  22.583  20.282  19.036  0.1187 -0.0201  0.0692
 4221POPC   GL188616  22.286  20.407  18.727  0.0327  0.2172 -0.0500
 4221POPC   GL288617  22.334  20.207  18.499 -0.1174  0.0815  0.0727
 4221POPC   C1A88618  21.872  20.378  18.524 -0.2102 -0.1475 -0.0866
 4221POPC   D2A88619  21.476  20.228  18.273  0.1084 -0.1222 -0.0002
 4221POPC   C3A88620  21.385  20.036  17.862 -0.1413  0.1215 -0.2198
 4221POPC   C4A88621  21.339  20.052  17.377  0.0988 -0.0382 -0.0934
 4221POPC   C1B88622  22.008  20.170  18.109 -0.1642 -0.0899  0.0671
 4221POPC   C2B88623  21.858  19.828  17.823  0.1791 -0.4474  0.0444
 4221POPC   C3B88624  21.724  19.779  17.399 -0.0413 -0.0039 -0.1111
 4221POPC   C4B88625  21.856  19.739  16.954 -0.3249 -0.2196 -0.0049
 4222POPC   NC388626  25.242  21.505  15.122  0.2085  0.1137 -0.1962
 4222POPC   PO488627  25.304  21.252  14.820 -0.1721  0.2352 -0.2439
 4222POPC   GL188628  25.258  21.099  14.632  0.1817 -0.0123 -0.0841
 4222POPC   GL288629  25.469  20.972  14.478  0.2436 -0.0674 -0.1320
 4222POPC   C1A88630  24.892  20.893  14.580  0.0981  0.0289  0.0556
 4222POPC   D2A88631  24.425  20.751  14.658 -0.1690  0.0539  0.0749
 4222POPC   C3A88632  23.988  20.991  14.586  0.2966  0.2072 -0.1239
 4222POPC   C4A88633  23.569  20.935  14.373 -0.0370 -0.1485  0.0709
 4222POPC   C1B88634  25.323  20.569  14.347 -0.3732  0.1729 -0.0420
 4222POPC   C2B88635  25.373  20.129  14.465 -0.0156 -0.0154  0.2333
 4222POPC   C3B88636  25.211  19.726  14.651 -0.2027  0.1782 -0.0970
 4222POPC   C4B88637  25.087  19.338  14.918 -0.2211 -0.0761 -0.4672
 4223POPC   NC388638  27.370  28.231  19.992 -0.2550  0.0161  0.2116
 4223POPC   PO488639  27.379  28.565  20.198  0.2751 -0.0190 -0.0318
 4223POPC   GL188640  27.390  28.780  19.903 -0.1347 -0.2437  0.3733
 4223POPC   GL288641  27.352  29.100  19.826 -0.1475 -0.1698 -0.4373
 4223POPC   C1A88642  27.785  28.924  19.609  0.1991  0.0218  0.5738
 4223POPC   D2A88643  28.229  28.991  19.436 -0.0954  0.2118  0.1265
 4223POPC   C3A88644  28.162  28.675  19.119  0.1207 -0.1786  0.2061
 4223POPC   C4A88645  27.866  28.422  18.845 -0.5344  0.0524 -0.0460
 4223POPC   C1B88646  27.349  28.998  19.385 -0.1008  0.1978 -0.0765
 4223POPC   C2B88647  27.699  28.962  19.045  0.1085 -0.1236 -0.1239
 4223POPC   C3B88648  27.814  28.838  18.595 -0.0470  0.0158 -0.0560
 4223POPC   C4B88649  27.868  28.582  18.224  0.0601  0.0265  0.1183
 4224POPC   NC388650  26.009  14.820  20.328  0.2266  0.0695  0.0239
 4224POPC   PO488651  25.745  14.580  20.193 -0.1718  0.0067  0.1610
 4224POPC   GL188652  25.537  14.609  19.841 -0.3036  0.0765 -0.1855
 4224POPC   GL288653  25.594  14.926  19.846  0.2615 -0.1704  0.1173
 4224POPC   C1A88654  25.772  14.348  19.565  0.3374 -0.2867 -0.0162
 4224POPC   D2A88655  25.805  14.231  19.094  0.0538  0.2127 -0.1754
 4224POPC   C3A88656  26.204  14.104  18.886 -0.0553  0.0143 -0.0905
 4224POPC   C4A88657  26.376  14.068  18.453  0.0380  0.1841 -0.0375
 4224POPC   C1B88658  25.489  14.811  19.444  0.0555  0.0302 -0.0410
 4224POPC   C2B88659  25.574  14.737  19.017  0.1551  0.3258  0.2283
 4224POPC   C3B88660  25.957  14.555  18.727  0.1461  0.0320  0.0288
 4224POPC   C4B88661  26.192  14.584  18.326  0.0586  0.2127 -0.1351
 4225POPC   NC388662  29.821  25.248  19.496 -0.0006  0.1980  0.0880
 4225POPC   PO488663  29.477  25.110  19.392 -0.1161  0.2236  0.1318
 4225POPC   GL188664  29.459  25.265  19.027 -0.1201  0.1011  0.1835
 4225POPC   GL288665  29.231  25.366  18.942  0.0409 -0.0004 -0.1314
 4225POPC   C1A88666  29.861  25.387  18.854 -0.3776 -0.1726 -0.0269
 4225POPC   D2A88667  30.283  25.442  18.698  0.1805  0.2320 -0.2529
 4225POPC   C3A88668  30.334  25.473  18.237  0.1582  0.0565 -0.0184
 4225POPC   C4A88669  30.486  25.828  18.018 -0.2725  0.0170 -0.0018
 4225POPC   C1B88670  29.033  25.718  18.699  0.4612  0.1176  0.0134
 4225POPC   C2B88671  29.080  25.997  18.315  0.0102  0.2207  0.0343
 4225POPC   C3B88672  29.165  26.226  17.873  0.0333 -0.1537 -0.1638
 4225POPC   C4B88673  29.299  26.497  17.548  0.1220  0.1635 -0.1230
 4226POPC   NC388674  32.322  31.533  20.395 -0.1269  0.0753  0.1754
 4226POPC   PO488675  32.063  31.831  20.489 -0.0947 -0.1682 -0.2123
 4226POPC   GL188676  31.908  31.897  20.083 -0.2315  0.3047 -0.2901
 4226POPC   GL288677  31.967  31.547  20.012 -0.1782 -0.1093  0.0186
 4226POPC   C1A88678  32.028  32.189  19.750  0.0177  0.0667  0.2380
 4226POPC   D2A88679  32.039  32.431  19.342  0.3234  0.2616 -0.0631
 4226POPC   C3A88680  31.790  32.182  19.054  0.2481 -0.0340  0.2254
 4226POPC   C4A88681  31.632  31.859  18.821  0.0220  0.0778 -0.1583
 4226POPC   C1B88682  32.255  31.180  20.006 -0.0269 -0.0382  0.0286
 4226POPC   C2B88683  32.717  31.051  20.030  0.1014  0.2727  0.3018
 4226POPC   C3B88684  33.107  31.006  19.786  0.0396  0.1197  0.2341
 4226POPC   C4B88685  33.352  31.036  19.365 -0.0531 -0.1294 -0.0750
 4227POPC   NC388686  30.290  23.620  18.856  0.0121  0.1904 -0.0832
 4227POPC   PO488687  30.423  23.968  18.959  0.1377  0.0879  0.2373
 4227POPC   GL188688  30.763  24.164  18.800  0.0614 -0.2396  0.1096
 4227POPC   GL288689  30.840  24.447  18.763  0.0672 -0.2834 -0.3586
 4227POPC   C1A88690  30.678  24.215  18.330  0.1104 -0.0652  0.0529
 4227POPC   D2A88691  30.934  24.214  17.951 -0.1300  0.0676 -0.0179
 4227POPC   C3A88692  30.690  24.158  17.562 -0.1242 -0.2459  0.0801
 4227POPC   C4A88693  30.601  23.937  17.161 -0.1746  0.0179 -0.1938
 4227POPC   C1B88694  30.999  24.625  18.363 -0.0536 -0.1000  0.1025
 4227POPC   C2B88695  31.227  24.682  17.951 -0.0140  0.1066  0.0182
 4227POPC   C3B88696  31.448  24.411  17.692 -0.0426 -0.0096  0.1068
 4227POPC   C4B88697  31.498  24.053  17.461  0.0040  0.1153  0.2461
 4228POPC   NC388698  21.164  31.298  20.713  0.1634  0.0030  0.2623
 4228POPC   PO488699  20.814  31.327  20.472  0.2589 -0.1093  0.0238
 4228POPC   GL188700  20.833  31.353  20.062  0.0654  0.0638 -0.3028
 4228POPC   GL288701  20.656  31.554  20.008 -0.0876 -0.1189 -0.0203
 4228POPC   C1A88702  20.813  30.989  19.737  0.4017 -0.0115 -0.1947
 4228POPC   D2A88703  21.064  30.795  19.454 -0.0879 -0.3296  0.2474
 4228POPC   C3A88704  21.449  30.984  19.564 -0.1231  0.5046  0.0675
 4228POPC   C4A88705  21.697  31.068  19.938 -0.2051  0.0485 -0.0493
 4228POPC   C1B88706  20.610  31.508  19.599  0.1644 -0.1696 -0.1222
 4228POPC   C2B88707  20.133  31.524  19.383 -0.1412  0.1381 -0.0415
 4228POPC   C3B88708  20.044  31.384  18.926  0.0920  0.0932 -0.1179
 4228POPC   C4B88709  20.138  31.379  18.528 -0.0300 -0.2319  0.2264
 4229POPC   NC388710  22.685  20.120  18.013 -0.0722  0.0999  0.1110
 4229POPC   PO488711  22.812  20.371  18.286  0.3915  0.2109  0.2211
 4229POPC   GL188712  22.515  20.574  18.187 -0.0101 -0.1180  0.0240
 4229POPC   GL288713  22.535  20.589  17.864 -0.0167 -0.1619 -0.0043
 4229POPC   C1A88714  22.041  20.659  18.123  0.0620 -0.0212 -0.0219
 4229POPC   D2A88715  21.710  20.514  17.860  0.4304 -0.2286 -0.0528
 4229POPC   C3A88716  21.617  20.821  17.473 -0.1129 -0.0178  0.1639
 4229POPC   C4A88717  21.547  21.256  17.601 -0.1446 -0.0936  0.0499
 4229POPC   C1B88718  22.229  20.317  17.618  0.2890 -0.0373  0.1410
 4229POPC   C2B88719  21.885  20.329  17.269  0.0949  0.1379 -0.0336
 4229POPC   C3B88720  21.512  20.459  17.037 -0.1247  0.1765  0.0611
 4229POPC   C4B88721  21.286  20.789  16.966  0.0494  0.0771  0.0356
 4230POPC   NC388722  31.763  30.537  20.753  0.2746 -0.1607 -0.2243
 4230POPC   PO488723  31.493  30.230  20.815 -0.0002  0.2163  0.3071
 4230POPC   GL188724  31.453  30.270  20.438 -0.3663 -0.2605 -0.6232
 4230POPC   GL288725  31.688  30.202  20.343  0.1080 -0.3994  0.2671
 4230POPC   C1A88726  31.283  29.978  20.094  0.1184  0.0105  0.1674
 4230POPC   D2A88727  31.062  29.706  19.808 -0.1696 -0.0313  0.1690
 4230POPC   C3A88728  31.422  29.428  19.691  0.2929 -0.0624 -0.0161
 4230POPC   C4A88729  31.639  29.273  19.305 -0.1697 -0.0306  0.0502
 4230POPC   C1B88730  31.661  30.213  19.891 -0.0481  0.0532  0.1508
 4230POPC   C2B88731  31.754  30.235  19.382 -0.1615 -0.2306 -0.0969
 4230POPC   C3B88732  31.776  30.146  18.868 -0.0848  0.1659 -0.0884
 4230POPC   C4B88733  32.073  30.322  18.500  0.1636 -0.3584 -0.2471
 4231POPC   NC388734  23.615  26.578  20.415 -0.2483 -0.2004  0.0342
 4231POPC   PO488735  23.414  26.909  20.224  0.3016 -0.0660  0.1949
 4231POPC   GL188736  23.411  27.053  19.802  0.2975  0.1208  0.3457
 4231POPC   GL288737  23.664  26.968  19.734 -0.2236 -0.0232  0.4484
 4231POPC   C1A88738  23.234  26.855  19.412  0.0808 -0.1590 -0.0965
 4231POPC   D2A88739  22.880  26.700  19.145  0.1470  0.2536  0.2179
 4231POPC   C3A88740  22.728  26.729  18.684  0.1339 -0.3233  0.0401
 4231POPC   C4A88741  22.924  26.758  18.316  0.0250  0.0656 -0.1504
 4231POPC   C1B88742  24.057  27.146  19.485 -0.1803 -0.1660  0.2864
 4231POPC   C2B88743  24.137  27.220  19.011  0.0011  0.0034 -0.0306
 4231POPC   C3B88744  24.137  27.211  18.597 -0.5617  0.0724  0.0299
 4231POPC   C4B88745  23.800  27.301  18.284  0.1867  0.4073  0.0081
 4232POPC   NC388746  22.311  26.800  19.795  0.0494 -0.2788  0.2086
 4232POPC   PO488747  22.465  27.096  20.012 -0.5869 -0.0955 -0.2519
 4232POPC   GL188748  22.351  27.331  19.696 -0.0178 -0.0322  0.1360
 4232POPC   GL288749  22.147  27.205  19.620 -0.2436 -0.1816  0.0578
 4232POPC   C1A88750  22.203  27.776  19.676  0.1153  0.0579  0.1003
 4232POPC   D2A88751  21.992  28.126  19.470  0.0858 -0.0280 -0.3415
 4232POPC   C3A88752  21.658  28.270  19.190  0.0870  0.1552 -0.1677
 4232POPC   C4A88753  21.393  28.617  19.041  0.1559 -0.2420  0.2022
 4232POPC   C1B88754  22.140  27.040  19.198  0.0209  0.2825 -0.1708
 4232POPC   C2B88755  22.276  27.319  18.898 -0.0468 -0.0611  0.3055
 4232POPC   C3B88756  22.289  27.693  18.569 -0.1115 -0.3339 -0.0391
 4232POPC   C4B88757  22.236  28.209  18.529  0.1947  0.0402 -0.2928
 4233POPC   NC388758  31.716  28.805  20.684 -0.3572  0.3244 -0.3836
 4233POPC   PO488759  31.775  28.420  20.589 -0.1358  0.0754  0.1938
 4233POPC   GL188760  31.794  28.276  20.174  0.1630 -0.0630 -0.0930
 4233POPC   GL288761  32.072  28.381  20.157 -0.3086  0.0963  0.1362
 4233POPC   C1A88762  31.882  28.379  19.732  0.0547 -0.0730  0.2366
 4233POPC   D2A88763  32.185  28.566  19.409  0.1222  0.2450  0.1579
 4233POPC   C3A88764  31.962  28.870  19.046  0.2928  0.0075  0.1765
 4233POPC   C4A88765  31.538  28.907  18.871  0.0431 -0.0499  0.1235
 4233POPC   C1B88766  32.473  28.341  19.894  0.2022  0.0671  0.0521
 4233POPC   C2B88767  32.608  28.211  19.463  0.0239 -0.1264 -0.0403
 4233POPC   C3B88768  32.563  28.270  19.018 -0.0068 -0.1922 -0.2749
 4233POPC   C4B88769  32.490  28.235  18.602 -0.1278  0.0490  0.2674
 4234POPC   NC388770  26.192  29.034  20.333 -0.2262  0.1236  0.2749
 4234POPC   PO488771  25.815  28.887  20.246  0.1627 -0.1594 -0.0029
 4234POPC   GL188772  25.735  28.957  19.867  0.1790 -0.4273  0.1953
 4234POPC   GL288773  26.026  29.076  19.800  0.0616 -0.0524 -0.0033
 4234POPC   C1A88774  25.726  29.161  19.427  0.2196  0.0426  0.1282
 4234POPC   D2A88775  26.001  29.322  19.105 -0.2190 -0.0762 -0.0403
 4234POPC   C3A88776  25.996  29.209  18.619 -0.2116 -0.3977  0.0812
 4234POPC   C4A88777  26.281  29.018  18.275  0.1670  0.1086 -0.0399
 4234POPC   C1B88778  26.136  29.454  19.634 -0.1427  0.0475  0.0391
 4234POPC   C2B88779  26.168  29.759  19.276 -0.1141 -0.2763  0.1337
 4234POPC   C3B88780  25.979  29.886  18.849  0.0748 -0.1579 -0.2519
 4234POPC   C4B88781  25.706  29.737  18.573 -0.1447 -0.2266  0.1644
 4235POPC   NC388782  28.083  22.562  13.004  0.1673 -0.0175  0.0537
 4235POPC   PO488783  27.728  22.492  13.019  0.1513 -0.1020  0.4319
 4235POPC   GL188784  27.911  22.440  12.567  0.1773  0.2393 -0.0041
 4235POPC   GL288785  27.703  22.476  12.459  0.0655  0.0811 -0.4716
 4235POPC   C1A88786  28.353  22.575  12.522 -0.0910  0.2599  0.0078
 4235POPC   D2A88787  28.811  22.314  12.499  0.0895 -0.0402  0.0053
 4235POPC   C3A88788  28.883  22.214  12.046 -0.1826 -0.0237 -0.1703
 4235POPC   C4A88789  29.152  22.193  11.690  0.1950  0.0060 -0.2117
 4235POPC   C1B88790  27.963  22.857  12.467 -0.0105  0.1897  0.1486
 4235POPC   C2B88791  28.354  23.013  12.262  0.0914 -0.6131 -0.1590
 4235POPC   C3B88792  28.751  23.145  12.055 -0.0428 -0.0159 -0.1793
 4235POPC   C4B88793  28.881  23.351  11.646 -0.3064 -0.1786 -0.0543
 4236POPC   NC388794  17.247  17.240  19.671  0.0834  0.1465  0.1131
 4236POPC   PO488795  17.350  16.844  19.762 -0.2059  0.1902  0.3624
 4236POPC   GL188796  17.540  16.501  19.555  0.0573  0.0632  0.0743
 4236POPC   GL288797  17.788  16.606  19.389 -0.1727  0.3116  0.2961
 4236POPC   C1A88798  17.168  16.363  19.219  0.0228 -0.2146  0.1402
 4236POPC   D2A88799  17.159  16.107  18.847  0.1419 -0.2276 -0.1717
 4236POPC   C3A88800  16.855  15.974  18.556  0.3209  0.1303  0.4336
 4236POPC   C4A88801  16.646  16.226  18.256 -0.2439 -0.3198  0.2695
 4236POPC   C1B88802  17.543  16.626  19.001 -0.2267  0.2023 -0.0137
 4236POPC   C2B88803  17.333  16.549  18.602  0.0644  0.0590 -0.0313
 4236POPC   C3B88804  17.117  16.573  18.183 -0.2418 -0.1894  0.1236
 4236POPC   C4B88805  16.778  16.841  17.982 -0.1604 -0.0313  0.1597
 4237POPC   NC388806  23.006  22.209  18.613 -0.2707 -0.0795 -0.1278
 4237POPC   PO488807  22.827  22.406  18.890  0.0025  0.1769 -0.1608
 4237POPC   GL188808  22.585  22.459  18.516  0.1252 -0.0025 -0.0205
 4237POPC   GL288809  22.374  22.621  18.370  0.1799  0.0265  0.1666
 4237POPC   C1A88810  22.774  22.796  18.186  0.2199  0.0969 -0.2425
 4237POPC   D2A88811  22.843  23.221  18.239 -0.1488  0.0423  0.3360
 4237POPC   C3A88812  22.616  23.481  17.927 -0.0966  0.2202  0.0852
 4237POPC   C4A88813  22.649  23.728  17.523  0.0374  0.0203  0.2443
 4237POPC   C1B88814  22.398  22.202  18.147 -0.0996 -0.0858 -0.0168
 4237POPC   C2B88815  22.202  22.088  17.765  0.3295  0.0340  0.3534
 4237POPC   C3B88816  21.823  22.106  17.438 -0.1351  0.1186 -0.2257
 4237POPC   C4B88817  21.617  22.117  17.040  0.2644 -0.0822  0.3389
 4238POPC   NC388818  17.268  32.687  20.182  0.2001 -0.2353  0.0788
 4238POPC   PO488819  17.196  32.435  20.510 -0.0756 -0.2439  0.1185
 4238POPC   GL188820  17.318  32.156  20.241  0.4136  0.0742 -0.3079
 4238POPC   GL288821  17.160  32.124  20.009 -0.0684  0.0399 -0.2536
 4238POPC   C1A88822  17.575  31.808  20.017 -0.0051 -0.0136  0.0222
 4238POPC   D2A88823  18.029  31.666  19.987  0.1483 -0.0236  0.0502
 4238POPC   C3A88824  18.274  31.811  19.650  0.1436  0.0506 -0.1275
 4238POPC   C4A88825  18.368  31.632  19.162 -0.1459  0.1544 -0.2320
 4238POPC   C1B88826  17.235  32.478  19.700 -0.0691  0.4010 -0.2779
 4238POPC   C2B88827  17.422  32.649  19.309 -0.1380 -0.1085 -0.2737
 4238POPC   C3B88828  17.607  32.881  18.994  0.2745  0.1480  0.3343
 4238POPC   C4B88829  17.778  33.089  18.586  0.1354  0.1492 -0.1232
 4239POPC   NC388830  23.192  20.406  17.434  0.1118 -0.0891  0.2383
 4239POPC   PO488831  23.072  20.409  17.769  0.1271  0.0711 -0.1670
 4239POPC   GL188832  22.895  20.069  17.622  0.2966 -0.0861 -0.1310
 4239POPC   GL288833  22.699  20.205  17.456  0.1748  0.1431  0.2022
 4239POPC   C1A88834  22.834  19.602  17.483  0.0171 -0.2470  0.0551
 4239POPC   D2A88835  22.989  19.199  17.646 -0.0327 -0.3624  0.0733
 4239POPC   C3A88836  22.828  18.943  17.318  0.0245 -0.0183  0.2630
 4239POPC   C4A88837  22.818  19.197  16.904 -0.0630  0.0671 -0.2802
 4239POPC   C1B88838  22.784  20.523  17.138 -0.0963 -0.2542  0.2266
 4239POPC   C2B88839  22.755  20.747  16.759  0.0257  0.0492 -0.0611
 4239POPC   C3B88840  22.605  20.666  16.333 -0.0828 -0.0480 -0.0148
 4239POPC   C4B88841  22.163  20.804  16.265 -0.3408  0.0282  0.3159
 4240POPC   NC388842  28.418  20.448  17.647 -0.0832  0.3215 -0.1566
 4240POPC   PO488843  28.541  20.494  17.267  0.0013 -0.1519 -0.0198
 4240POPC   GL188844  28.375  20.274  16.884 -0.2596 -0.0165  0.1159
 4240POPC   GL288845  28.447  20.100  16.937  0.0397 -0.3846  0.0819
 4240POPC   C1A88846  28.305  20.114  16.420 -0.1965  0.0477  0.0703
 4240POPC   D2A88847  28.356  20.133  15.973  0.1156  0.0192  0.1009
 4240POPC   C3A88848  28.176  19.905  15.585  0.1698 -0.1244  0.0552
 4240POPC   C4A88849  28.172  19.784  15.142 -0.1798 -0.1934 -0.1381
 4240POPC   C1B88850  28.468  19.599  16.921 -0.0051 -0.0629 -0.0570
 4240POPC   C2B88851  28.874  19.442  16.754  0.2254  0.2251 -0.1803
 4240POPC   C3B88852  29.323  19.377  16.706 -0.0795  0.0242  0.0142
 4240POPC   C4B88853  29.580  19.057  16.941 -0.3451  0.1493  0.0423
 4241POPC   NC388854  18.483  15.504  20.263  0.0135 -0.1571  0.3122
 4241POPC   PO488855  18.619  15.877  20.345  0.2603 -0.1411  0.1161
 4241POPC   GL188856  18.927  15.792  20.019 -0.0387 -0.0174  0.0148
 4241POPC   GL288857  19.003  15.580  20.214  0.0505  0.1052  0.1960
 4241POPC   C1A88858  18.923  15.839  19.609 -0.2303  0.3897  0.2149
 4241POPC   D2A88859  19.030  15.925  19.142  0.0781 -0.0852  0.0028
 4241POPC   C3A88860  18.962  15.780  18.687  0.1650  0.0058 -0.0061
 4241POPC   C4A88861  18.753  15.699  18.301 -0.2103 -0.0152 -0.1665
 4241POPC   C1B88862  19.088  15.268  19.805  0.1871  0.0188 -0.0683
 4241POPC   C2B88863  19.308  15.083  19.424 -0.0885 -0.0056 -0.1148
 4241POPC   C3B88864  19.458  14.639  19.310  0.1977 -0.2773  0.0018
 4241POPC   C4B88865  19.720  14.291  19.320  0.2465  0.2678  0.1016
 4242POPC   NC388866  25.726  22.114  12.874 -0.1557 -0.0822  0.2732
 4242POPC   PO488867  26.045  22.138  13.090 -0.4715  0.0989 -0.0674
 4242POPC   GL188868  25.549  22.035  13.268  0.0320 -0.1435 -0.3957
 4242POPC   GL288869  25.522  21.830  13.186 -0.2421  0.1754 -0.1379
 4242POPC   C1A88870  25.127  22.121  13.040  0.4619 -0.0123  0.0920
 4242POPC   D2A88871  24.778  21.934  12.878 -0.0510  0.2760 -0.0216
 4242POPC   C3A88872  24.492  21.875  12.513 -0.3108 -0.1581 -0.2132
 4242POPC   C4A88873  24.244  22.094  12.181  0.1468  0.1795  0.3089
 4242POPC   C1B88874  25.239  21.704  12.839 -0.1578  0.0091  0.0645
 4242POPC   C2B88875  24.973  21.490  12.548 -0.0234 -0.1651  0.1570
 4242POPC   C3B88876  24.881  21.123  12.298 -0.0488 -0.1056  0.2612
 4242POPC   C4B88877  24.798  20.687  12.236  0.1306 -0.1473 -0.0580
 4243POPC   NC388878  16.246  18.419  20.141  0.1762  0.0762  0.2538
 4243POPC   PO488879  16.540  18.352  19.884 -0.0430  0.1172  0.2706
 4243POPC   GL188880  16.547  17.998  19.630  0.4669 -0.5770 -0.1151
 4243POPC   GL288881  16.852  18.004  19.661  0.1164 -0.0333 -0.2211
 4243POPC   C1A88882  16.145  17.922  19.340 -0.2031  0.1621  0.0494
 4243POPC   D2A88883  16.009  18.001  18.907 -0.1096 -0.2412  0.0313
 4243POPC   C3A88884  15.977  17.781  18.567 -0.2191 -0.1808 -0.1131
 4243POPC   C4A88885  16.009  17.521  18.209 -0.2210 -0.0549 -0.0884
 4243POPC   C1B88886  16.867  17.947  19.225  0.0267 -0.0160 -0.2998
 4243POPC   C2B88887  16.905  18.115  18.797 -0.2757  0.1791  0.0062
 4243POPC   C3B88888  16.905  17.982  18.303  0.0208  0.0813  0.0773
 4243POPC   C4B88889  17.014  17.855  17.919 -0.0545  0.0375 -0.1547
 4244POPC   NC388890  27.794  20.763  16.990  0.1522 -0.1011 -0.0360
 4244POPC   PO488891  28.192  20.730  16.904  0.0835  0.1739  0.2679
 4244POPC   GL188892  28.611  20.810  16.723  0.0475 -0.2081 -0.2123
 4244POPC   GL288893  28.442  21.030  16.522  0.1480 -0.0827  0.4128
 4244POPC   C1A88894  28.905  20.513  16.626 -0.3675 -0.2313  0.0777
 4244POPC   D2A88895  29.363  20.406  16.487  0.0640  0.3844  0.1276
 4244POPC   C3A88896  29.418  19.965  16.319  0.0838 -0.2480 -0.1175
 4244POPC   C4A88897  29.091  19.648  16.267 -0.4381  0.2811 -0.0713
 4244POPC   C1B88898  28.866  20.983  16.365  0.2115  0.0294 -0.4407
 4244POPC   C2B88899  29.093  20.718  16.080 -0.0456  0.1294  0.1028
 4244POPC   C3B88900  29.260  20.552  15.656  0.1515  0.3880 -0.0762
 4244POPC   C4B88901  28.971  20.570  15.309 -0.2331 -0.0161 -0.1290
 4245POPC   NC388902  31.933  27.545  20.962 -0.1170 -0.2322 -0.0747
 4245POPC   PO488903  32.235  27.686  20.853  0.0662  0.1791 -0.0188
 4245POPC   GL188904  32.273  27.586  20.542 -0.0933  0.0248 -0.0655
 4245POPC   GL288905  32.098  27.369  20.372 -0.5915  0.0144  0.1187
 4245POPC   C1A88906  32.265  27.787  20.158 -0.0621 -0.0038  0.1394
 4245POPC   D2A88907  32.575  27.858  19.829 -0.2784  0.1748 -0.0332
 4245POPC   C3A88908  32.789  27.646  19.427  0.0647 -0.2078  0.0785
 4245POPC   C4A88909  33.117  27.432  19.135  0.0532 -0.3471  0.1177
 4245POPC   C1B88910  31.853  27.577  20.043  0.1167  0.0067 -0.4761
 4245POPC   C2B88911  32.078  27.895  19.725 -0.0209  0.0910  0.1587
 4245POPC   C3B88912  32.138  28.085  19.271  0.0054  0.0014  0.4049
 4245POPC   C4B88913  32.097  28.142  18.831  0.2451  0.2656 -0.1608
 4246POPC   NC388914  25.814  25.443  18.968 -0.1188  0.0727  0.4279
 4246POPC   PO488915  26.151  25.366  18.785  0.0051 -0.0848 -0.2816
 4246POPC   GL188916  26.209  25.631  18.596  0.0520 -0.3592  0.2271
 4246POPC   GL288917  26.284  25.590  18.263  0.0619 -0.4424 -0.0102
 4246POPC   C1A88918  26.254  26.090  18.463 -0.1629  0.0168  0.3126
 4246POPC   D2A88919  26.573  26.453  18.450  0.0904  0.1044 -0.1136
 4246POPC   C3A88920  26.774  26.825  18.713  0.2411  0.2322 -0.0176
 4246POPC   C4A88921  27.019  27.229  18.691 -0.0982 -0.3667 -0.0235
 4246POPC   C1B88922  26.059  25.919  18.011 -0.0422 -0.3070 -0.0432
 4246POPC   C2B88923  25.935  26.286  17.786  0.3291  0.2251 -0.0059
 4246POPC   C3B88924  25.546  26.412  17.632  0.2311 -0.3507 -0.1550
 4246POPC   C4B88925  25.254  26.605  17.332  0.0517  0.2034 -0.1609
 4247POPC   NC388926  26.703  26.244  19.373 -0.2752  0.0480 -0.1789
 4247POPC   PO488927  27.123  26.334  19.317  0.0989 -0.1407 -0.0631
 4247POPC   GL188928  27.112  26.606  19.079 -0.0170  0.0797  0.1753
 4247POPC   GL288929  27.011  26.397  18.844  0.1765 -0.0384 -0.2303
 4247POPC   C1A88930  27.335  26.784  18.764 -0.0423 -0.2716 -0.0106
 4247POPC   D2A88931  27.281  27.017  18.299 -0.1155 -0.0460  0.0636
 4247POPC   C3A88932  26.931  27.284  18.154  0.3700  0.2132 -0.1021
 4247POPC   C4A88933  26.554  27.487  18.000  0.2580 -0.1492 -0.2521
 4247POPC   C1B88934  27.199  26.356  18.369  0.0957  0.2601  0.0689
 4247POPC   C2B88935  27.063  26.618  18.037 -0.0992  0.0357 -0.0377
 4247POPC   C3B88936  27.076  26.971  17.788  0.0323 -0.0125 -0.0269
 4247POPC   C4B88937  27.333  27.338  17.856  0.0823 -0.0630  0.0789
 4248POPC   NC388938  28.194  24.119  18.150 -0.1222 -0.1316 -0.0258
 4248POPC   PO488939  28.025  24.179  17.778  0.0611  0.1800 -0.1800
 4248POPC   GL188940  27.945  24.490  17.604  0.2142 -0.1838 -0.1417
 4248POPC   GL288941  27.942  24.505  17.282 -0.0664  0.3970  0.1528
 4248POPC   C1A88942  28.266  24.800  17.558  0.1525  0.0184  0.1604
 4248POPC   D2A88943  28.350  25.040  17.907 -0.1420 -0.1728  0.3787
 4248POPC   C3A88944  28.768  25.228  18.005  0.0851  0.0392  0.2099
 4248POPC   C4A88945  28.985  25.552  18.141  0.0120 -0.1261 -0.0642
 4248POPC   C1B88946  28.347  24.622  17.005  0.3322  0.0892 -0.0491
 4248POPC   C2B88947  28.621  24.790  16.678 -0.0414  0.0905 -0.2346
 4248POPC   C3B88948  29.021  24.900  16.475 -0.3472 -0.0604  0.1254
 4248POPC   C4B88949  29.111  24.999  16.008  0.0064  0.2523  0.0151
 4249POPC   NC388950  31.574  25.662  20.237 -0.0424  0.0287  0.1400
 4249POPC   PO488951  31.513  25.635  19.850  0.0615 -0.2176  0.1077
 4249POPC   GL188952  31.234  25.763  19.596  0.1752 -0.2783 -0.1916
 4249POPC   GL288953  31.052  25.638  19.471 -0.1188 -0.4287  0.0553
 4249POPC   C1A88954  31.024  26.207  19.522 -0.2066  0.0050 -0.0812
 4249POPC   D2A88955  31.128  26.417  19.112  0.0619 -0.1011 -0.2557
 4249POPC   C3A88956  31.362  26.126  18.883  0.1271 -0.0150  0.0273
 4249POPC   C4A88957  31.762  25.968  18.693  0.2273  0.0425 -0.1750
 4249POPC   C1B88958  30.957  25.935  19.101 -0.2300  0.0502 -0.0540
 4249POPC   C2B88959  30.793  26.244  18.786 -0.1352  0.0623  0.2410
 4249POPC   C3B88960  30.920  26.547  18.518 -0.0863 -0.0566  0.1267
 4249POPC   C4B88961  31.118  26.778  18.184  0.1071 -0.1252  0.0916
 4250POPC   NC388962  23.558  31.119  20.008 -0.0884 -0.0188  0.0795
 4250POPC   PO488963  23.776  31.485  19.943  0.1206 -0.0341 -0.1411
 4250POPC   GL188964  23.756  31.352  19.601  0.2691  0.1980 -0.2634
 4250POPC   GL288965  23.984  31.455  19.451 -0.0333  0.0405  0.0250
 4250POPC   C1A88966  23.648  31.126  19.166 -0.1101  0.3745  0.0394
 4250POPC   D2A88967  23.725  31.167  18.702 -0.0890  0.1272 -0.1146
 4250POPC   C3A88968  23.784  30.882  18.341 -0.1489 -0.4092  0.2625
 4250POPC   C4A88969  23.581  30.497  18.193  0.0011  0.1486 -0.0052
 4250POPC   C1B88970  24.061  31.427  18.979 -0.1431 -0.1964 -0.0891
 4250POPC   C2B88971  23.965  31.697  18.644 -0.3765  0.2050  0.0442
 4250POPC   C3B88972  23.945  31.871  18.199  0.1920 -0.2840 -0.0240
 4250POPC   C4B88973  23.662  31.869  17.816 -0.2159 -0.1479 -0.0798
 4251POPC   NC388974  25.872  26.336  19.635  0.1629 -0.1362 -0.0350
 4251POPC   PO488975  25.494  26.253  19.745  0.1852  0.2450 -0.0996
 4251POPC   GL188976  25.460  26.536  19.464 -0.0057  0.3595  0.1520
 4251POPC   GL288977  25.539  26.768  19.650  0.1115 -0.0606 -0.0125
 4251POPC   C1A88978  25.639  26.357  19.099  0.1869  0.0341  0.0549
 4251POPC   D2A88979  25.472  26.258  18.683  0.1542 -0.0456 -0.1632
 4251POPC   C3A88980  24.999  26.160  18.680  0.2036  0.4150 -0.2384
 4251POPC   C4A88981  24.555  25.993  18.575  0.2782 -0.0025 -0.1715
 4251POPC   C1B88982  25.583  26.943  19.258 -0.0721  0.0301 -0.1515
 4251POPC   C2B88983  25.792  26.836  18.830 -0.1020  0.2959  0.0360
 4251POPC   C3B88984  25.896  26.977  18.426 -0.2889  0.1979 -0.1721
 4251POPC   C4B88985  26.144  27.303  18.230  0.0578 -0.1657 -0.4107
 4252POPC   NC388986   0.871  28.614  20.887 -0.0096  0.1450  0.0432
 4252POPC   PO488987   0.596  28.388  20.659 -0.2289  0.0372  0.0311
 4252POPC   GL188988   0.512  28.405  20.252 -0.5489 -0.1238 -0.1188
 4252POPC   GL288989   0.268  28.205  20.160  0.0737  0.2243  0.0623
 4252POPC   C1A88990   0.619  28.445  19.847  0.2156  0.4424  0.2565
 4252POPC   D2A88991   0.812  28.198  19.514  0.2316 -0.0965 -0.0358
 4252POPC   C3A88992   0.857  28.495  19.131 -0.1054 -0.2961  0.0400
 4252POPC   C4A88993   0.805  28.924  19.096 -0.0987 -0.0015 -0.0948
 4252POPC   C1B88994   0.263  28.002  19.738  0.2115  0.2606 -0.1706
 4252POPC   C2B88995   0.268  28.053  19.316  0.1798 -0.1059  0.2752
 4252POPC   C3B88996   0.345  28.278  18.931  0.2787 -0.0710 -0.0596
 4252POPC   C4B88997   0.529  28.679  18.776  0.0023  0.2179 -0.0908
 4253POPC   NC388998  17.634  17.852  19.844 -0.0740 -0.3239 -0.0888
 4253POPC   PO488999  17.359  18.154  19.870  0.2006  0.0825 -0.0095
 4253POPC   GL189000  17.439  18.163  19.437  0.2466 -0.3348 -0.0258
 4253POPC   GL289001  17.214  18.315  19.320  0.0776  0.1849 -0.4883
 4253POPC   C1A89002  17.445  17.863  19.092  0.2574 -0.1761  0.1937
 4253POPC   D2A89003  17.619  17.644  18.727 -0.0918 -0.2872  0.2349
 4253POPC   C3A89004  17.995  17.308  18.705 -0.3298 -0.2071  0.0946
 4253POPC   C4A89005  18.190  16.989  18.396  0.1233  0.2934 -0.0195
 4253POPC   C1B89006  17.367  18.321  18.896  0.1316  0.2201  0.2951
 4253POPC   C2B89007  17.264  18.417  18.445 -0.2030  0.1419  0.1512
 4253POPC   C3B89008  17.078  18.365  18.017 -0.2285  0.0757 -0.2983
 4253POPC   C4B89009  16.728  18.220  17.700 -0.1346  0.1384 -0.0801
 4254POPC   NC389010  27.507  18.588  18.473  0.0334 -0.1483  0.2168
 4254POPC   PO489011  27.749  18.878  18.638  0.0541  0.2875  0.0742
 4254POPC   GL189012  27.902  18.724  18.317  0.1032  0.0035 -0.3319
 4254POPC   GL289013  27.875  18.806  18.021  0.0329  0.1090  0.1612
 4254POPC   C1A89014  27.867  18.253  18.141 -0.1646  0.1035  0.1302
 4254POPC   D2A89015  28.240  18.069  17.943  0.0606  0.2728  0.1135
 4254POPC   C3A89016  28.423  18.025  17.553  0.1243 -0.3371  0.2945
 4254POPC   C4A89017  28.452  17.943  17.092 -0.0264 -0.0457  0.0347
 4254POPC   C1B89018  28.127  18.514  17.778  0.1706  0.1932  0.2450
 4254POPC   C2B89019  28.280  18.393  17.303 -0.0889 -0.1274  0.0368
 4254POPC   C3B89020  28.466  18.489  16.892 -0.2538 -0.2256  0.1857
 4254POPC   C4B89021  28.685  18.574  16.554 -0.0927 -0.1532 -0.1188
 4255POPC   NC389022  19.167  23.297  20.290 -0.2992  0.2715 -0.2656
 4255POPC   PO489023  18.937  23.137  20.049 -0.1000 -0.0810  0.1536
 4255POPC   GL189024  18.788  23.095  19.631  0.1390 -0.0601 -0.0498
 4255POPC   GL289025  19.127  23.226  19.591  0.0026 -0.1047  0.0080
 4255POPC   C1A89026  18.686  23.455  19.412  0.1159  0.0067 -0.0492
 4255POPC   D2A89027  18.759  23.858  19.244  0.0817 -0.0893  0.1005
 4255POPC   C3A89028  19.156  23.765  18.998 -0.0549  0.1944  0.1830
 4255POPC   C4A89029  19.448  23.656  18.646  0.0090  0.0944 -0.0014
 4255POPC   C1B89030  18.971  23.224  19.068 -0.0434  0.0194 -0.1416
 4255POPC   C2B89031  18.901  23.372  18.597  0.1350 -0.1412 -0.3169
 4255POPC   C3B89032  18.857  23.201  18.150  0.2981  0.1630 -0.3473
 4255POPC   C4B89033  19.022  23.093  17.765  0.1351 -0.0499 -0.0708
 4256POPC   NC389034   0.403  32.803  20.331  0.1737 -0.3574  0.0908
 4256POPC   PO489035   0.492  32.454  20.519 -0.2118  0.0216 -0.0498
 4256POPC   GL189036   0.623  32.428  20.083  0.0208 -0.1109  0.1107
 4256POPC   GL289037   0.622  32.201  19.930  0.1462  0.1431 -0.2115
 4256POPC   C1A89038   1.059  32.243  20.053  0.4226 -0.0764 -0.3376
 4256POPC   D2A89039   1.447  32.466  19.913 -0.0805 -0.0321  0.0310
 4256POPC   C3A89040   1.433  32.401  19.438  0.1154 -0.0924 -0.1824
 4256POPC   C4A89041   1.400  32.347  19.008  0.2375 -0.1057  0.2593
 4256POPC   C1B89042   0.356  32.322  19.532  0.2264  0.2860 -0.1209
 4256POPC   C2B89043   0.168  32.171  19.126  0.0190 -0.0159 -0.0105
 4256POPC   C3B89044  -0.130  32.159  18.744 -0.4110  0.2207 -0.2294
 4256POPC   C4B89045  -0.385  32.254  18.358 -0.0407  0.1185  0.2468
 4257POPC   NC389046  26.600  17.080  19.755  0.1950  0.1702  0.1919
 4257POPC   PO489047  26.440  17.114  19.362  0.2070 -0.0667 -0.1479
 4257POPC   GL189048  26.624  17.016  19.061 -0.2104  0.1215  0.0722
 4257POPC   GL289049  26.464  16.781  18.882 -0.0707  0.1583 -0.3478
 4257POPC   C1A89050  27.030  16.766  19.003  0.2959  0.0571  0.1800
 4257POPC   D2A89051  27.282  16.398  19.047  0.1278  0.2341  0.2953
 4257POPC   C3A89052  27.361  15.930  19.003  0.1646  0.1239  0.0103
 4257POPC   C4A89053  27.370  15.486  18.914  0.0535 -0.2067  0.0164
 4257POPC   C1B89054  26.457  16.556  18.424 -0.0208 -0.2778  0.1492
 4257POPC   C2B89055  26.190  16.367  18.029  0.0799  0.0279 -0.0011
 4257POPC   C3B89056  26.030  16.309  17.588 -0.4096  0.1259  0.0093
 4257POPC   C4B89057  25.746  16.301  17.186 -0.3112  0.1811 -0.2390
 4258POPC   NC389058  24.994  27.726  20.158  0.0902  0.2568 -0.0125
 4258POPC   PO489059  24.671  27.938  20.170  0.2820  0.1131 -0.2649
 4258POPC   GL189060  24.512  27.949  19.865  0.3690 -0.0424 -0.2219
 4258POPC   GL289061  24.248  27.861  19.852  0.0174  0.2111 -0.1630
 4258POPC   C1A89062  24.739  27.851  19.479 -0.1057  0.2094 -0.0637
 4258POPC   D2A89063  24.936  27.573  19.158 -0.2030 -0.0593  0.2939
 4258POPC   C3A89064  24.978  27.716  18.680 -0.3675 -0.0209  0.0145
 4258POPC   C4A89065  24.979  27.893  18.292  0.0760 -0.0647  0.0554
 4258POPC   C1B89066  24.215  27.646  19.398 -0.0995 -0.2420  0.3191
 4258POPC   C2B89067  24.406  27.725  18.991 -0.2139  0.1310 -0.0247
 4258POPC   C3B89068  24.576  27.433  18.662  0.2505  0.0071  0.0105
 4258POPC   C4B89069  24.725  27.371  18.235 -0.1536  0.0078  0.0847
 4259POPC   NC389070  26.312  21.600  13.481 -0.2277 -0.2436  0.0346
 4259POPC   PO489071  26.705  21.601  13.542 -0.2013  0.2684  0.0599
 4259POPC   GL189072  26.717  21.232  13.570 -0.1093 -0.0930  0.2040
 4259POPC   GL289073  26.635  21.005  13.744  0.1722 -0.1619  0.0943
 4259POPC   C1A89074  26.892  20.949  13.225  0.2400  0.1321 -0.2502
 4259POPC   D2A89075  27.119  20.756  12.888 -0.0110 -0.3610 -0.1352
 4259POPC   C3A89076  27.059  20.375  12.687 -0.1921  0.0013 -0.0218
 4259POPC   C4A89077  27.020  20.129  12.302  0.1313 -0.1460  0.1313
 4259POPC   C1B89078  26.458  20.826  13.340 -0.1145  0.0756  0.0932
 4259POPC   C2B89079  26.129  20.644  13.090 -0.1846  0.0103 -0.0090
 4259POPC   C3B89080  25.963  20.669  12.655 -0.0749  0.0457 -0.0008
 4259POPC   C4B89081  25.592  20.501  12.493  0.2544  0.0193 -0.2004
 4260POPC   NC389082  25.211  21.331  14.229  0.1425 -0.1440  0.2354
 4260POPC   PO489083  25.561  21.483  14.117 -0.2654  0.0948 -0.2547
 4260POPC   GL189084  25.477  21.131  13.946  0.2391 -0.1473 -0.2766
 4260POPC   GL289085  25.517  21.161  13.652 -0.2770 -0.1641  0.1973
 4260POPC   C1A89086  25.309  20.731  13.841 -0.1735  0.1225  0.1287
 4260POPC   D2A89087  25.139  20.426  13.462  0.0086 -0.4047  0.0591
 4260POPC   C3A89088  25.146  19.966  13.468 -0.1350  0.1712 -0.0540
 4260POPC   C4A89089  24.988  19.650  13.817 -0.2876 -0.1709  0.0498
 4260POPC   C1B89090  25.150  20.946  13.394 -0.0280 -0.1040  0.1283
 4260POPC   C2B89091  24.830  20.766  13.128 -0.2083  0.2555  0.1319
 4260POPC   C3B89092  24.565  20.717  12.720 -0.0304 -0.1485  0.0713
 4260POPC   C4B89093  24.379  20.911  12.337 -0.4028 -0.4020  0.4349
 4261POPC   NC389094  25.737  20.997  14.964 -0.1166  0.1339 -0.1858
 4261POPC   PO489095  25.994  20.770  15.158  0.2516 -0.2029  0.0724
 4261POPC   GL189096  25.952  20.576  14.796 -0.2016 -0.0306 -0.3904
 4261POPC   GL289097  25.680  20.572  14.688 -0.2818  0.0355  0.1113
 4261POPC   C1A89098  25.947  20.217  14.521 -0.1621 -0.1618 -0.0214
 4261POPC   D2A89099  25.818  20.120  14.109  0.4256 -0.1455 -0.0924
 4261POPC   C3A89100  25.391  20.197  13.970 -0.0548  0.2099 -0.0292
 4261POPC   C4A89101  25.011  20.364  13.975  0.2085 -0.3325 -0.0072
 4261POPC   C1B89102  25.584  20.188  14.897  0.0887 -0.0302 -0.1465
 4261POPC   C2B89103  25.522  19.762  15.066  0.0949  0.3545 -0.1317
 4261POPC   C3B89104  25.559  19.317  14.957 -0.1010  0.1021 -0.1853
 4261POPC   C4B89105  25.825  18.956  14.900  0.1573 -0.0422  0.1962
 4262POPC   NC389106  17.391  25.392  20.634 -0.1307  0.0225  0.4173
 4262POPC   PO489107  17.510  25.226  20.279 -0.0352  0.0234  0.3258
 4262POPC   GL189108  17.543  25.232  19.858  0.2429  0.1152 -0.2857
 4262POPC   GL289109  17.485  24.997  19.643 -0.0064 -0.0111 -0.0849
 4262POPC   C1A89110  17.973  25.129  19.685  0.2418  0.0666  0.2159
 4262POPC   D2A89111  18.364  25.149  19.430 -0.1475  0.1298 -0.1740
 4262POPC   C3A89112  18.320  25.201  19.019  0.0609  0.4026 -0.2141
 4262POPC   C4A89113  18.124  25.408  18.651 -0.4248  0.0342 -0.2584
 4262POPC   C1B89114  17.176  25.325  19.498  0.1446  0.1112  0.1183
 4262POPC   C2B89115  16.934  25.633  19.324  0.1679 -0.1079 -0.0940
 4262POPC   C3B89116  16.864  25.867  18.986 -0.0389 -0.0882  0.0162
 4262POPC   C4B89117  16.802  26.045  18.597 -0.1444  0.2706 -0.1586
 4263POPC   NC389118  26.035  16.745  19.196  0.0586  0.5665 -0.0536
 4263POPC   PO489119  25.970  16.637  18.849  0.0724  0.0298 -0.1020
 4263POPC   GL189120  26.161  16.297  18.706 -0.0373  0.0402  0.0642
 4263POPC   GL289121  25.927  16.222  18.539 -0.1193 -0.0607 -0.1156
 4263POPC   C1A89122  26.521  16.061  18.526  0.4085 -0.0059  0.3600
 4263POPC   D2A89123  26.768  16.155  18.204  0.0354 -0.1162 -0.0427
 4263POPC   C3A89124  26.671  16.378  17.806  0.2153  0.2185 -0.0136
 4263POPC   C4A89125  26.447  16.546  17.441 -0.0433  0.1113  0.4717
 4263POPC   C1B89126  26.101  15.918  18.221 -0.0369  0.2991  0.1736
 4263POPC   C2B89127  26.417  15.770  17.860 -0.1986 -0.0723 -0.2129
 4263POPC   C3B89128  26.676  15.537  17.557 -0.1464 -0.1242 -0.0551
 4263POPC   C4B89129  26.721  15.113  17.329 -0.0197  0.4728  0.1067
 4264POPC   NC389130  29.867  21.582  18.891 -0.2191  0.0250  0.2244
 4264POPC   PO489131  30.054  21.918  18.863  0.0268 -0.0259 -0.0689
 4264POPC   GL189132  30.232  21.714  18.586  0.1032 -0.3323  0.0441
 4264POPC   GL289133  30.150  21.501  18.430 -0.1534 -0.3466  0.1334
 4264POPC   C1A89134  30.401  21.848  18.163  0.1689  0.2986  0.2658
 4264POPC   D2A89135  30.698  22.037  17.855 -0.0743  0.1869  0.0730
 4264POPC   C3A89136  31.025  21.892  17.510  0.1277 -0.2720 -0.5143
 4264POPC   C4A89137  31.405  21.692  17.561  0.0723 -0.0493  0.4873
 4264POPC   C1B89138  30.297  21.364  18.034 -0.0393  0.0505 -0.1843
 4264POPC   C2B89139  30.562  21.218  17.722 -0.0491 -0.0537  0.0138
 4264POPC   C3B89140  30.904  20.907  17.571  0.1607  0.1255  0.0041
 4264POPC   C4B89141  31.173  20.611  17.737  0.3057  0.3505  0.0264
 4265POPC   NC389142  27.459  20.003  17.138  0.2959 -0.1107 -0.1308
 4265POPC   PO489143  27.455  20.310  16.936 -0.1405  0.2007 -0.2381
 4265POPC   GL189144  27.455  20.151  16.515 -0.0053 -0.0940  0.0139
 4265POPC   GL289145  27.586  20.387  16.333  0.2883 -0.0656  0.4279
 4265POPC   C1A89146  27.847  19.930  16.247 -0.0833 -0.0924 -0.1672
 4265POPC   D2A89147  28.100  19.622  15.978 -0.0644 -0.2373 -0.0906
 4265POPC   C3A89148  28.265  19.206  16.187  0.2272 -0.0375 -0.0295
 4265POPC   C4A89149  28.585  19.026  16.422 -0.0514 -0.1305  0.0163
 4265POPC   C1B89150  27.370  20.037  16.085 -0.1999  0.1878  0.0446
 4265POPC   C2B89151  27.309  19.575  16.018  0.1577 -0.0065  0.0571
 4265POPC   C3B89152  27.388  19.126  15.997 -0.0934 -0.0207  0.1572
 4265POPC   C4B89153  27.583  18.689  16.180 -0.0152 -0.1045  0.0832
 4266POPC   NC389154  25.229  21.720  14.589 -0.1474  0.1690 -0.0263
 4266POPC   PO489155  25.208  21.845  14.211  0.0561  0.1267  0.2663
 4266POPC   GL189156  24.920  21.870  13.924  0.0335 -0.0955 -0.2436
 4266POPC   GL289157  24.780  22.074  13.870  0.0736  0.1197 -0.1425
 4266POPC   C1A89158  24.560  21.562  13.789 -0.5076  0.2261 -0.0089
 4266POPC   D2A89159  24.391  21.174  13.876  0.1678  0.2346 -0.0364
 4266POPC   C3A89160  24.087  20.890  13.590  0.0881 -0.2561 -0.5009
 4266POPC   C4A89161  23.791  20.608  13.340  0.4711 -0.0249 -0.0863
 4266POPC   C1B89162  24.384  22.231  13.713 -0.1409  0.1292  0.1304
 4266POPC   C2B89163  24.124  22.226  13.354  0.2408 -0.0862 -0.1456
 4266POPC   C3B89164  24.235  21.969  13.008  0.0295 -0.1284  0.0655
 4266POPC   C4B89165  24.369  21.581  12.872  0.2284  0.1132  0.0320
 4267POPC   NC389166  19.739  31.137  20.638  0.0775  0.1546  0.2593
 4267POPC   PO489167  19.571  31.431  20.491 -0.1275 -0.2333 -0.3241
 4267POPC   GL189168  19.733  31.339  20.169 -0.1077 -0.0066 -0.3561
 4267POPC   GL289169  19.574  31.077  20.175  0.1645  0.2394 -0.2135
 4267POPC   C1A89170  19.532  31.295  19.727  0.0855  0.1979  0.2246
 4267POPC   D2A89171  19.165  31.424  19.525  0.1329 -0.3520 -0.0820
 4267POPC   C3A89172  18.690  31.416  19.623 -0.2025  0.4262  0.0342
 4267POPC   C4A89173  18.534  31.530  20.003  0.0639 -0.0257  0.2423
 4267POPC   C1B89174  19.843  30.845  19.904  0.2136  0.1086  0.1705
 4267POPC   C2B89175  20.159  30.623  19.687 -0.2167  0.1094  0.1174
 4267POPC   C3B89176  20.532  30.678  19.394 -0.3219  0.0396 -0.0161
 4267POPC   C4B89177  20.603  30.547  18.948  0.2678 -0.1026  0.0836
 4268POPC   NC389178  26.101  23.198  14.891  0.0164 -0.0136  0.0065
 4268POPC   PO489179  26.438  23.262  15.048 -0.2256  0.0940  0.0354
 4268POPC   GL189180  26.651  23.590  15.091  0.1310  0.0868 -0.0758
 4268POPC   GL289181  26.700  23.672  14.838 -0.3345  0.0248  0.1024
 4268POPC   C1A89182  27.029  23.934  15.062  0.1209  0.1730  0.4244
 4268POPC   D2A89183  27.308  24.295  14.905  0.0541  0.0171  0.2317
 4268POPC   C3A89184  27.753  24.336  15.136  0.4500  0.1091  0.0473
 4268POPC   C4A89185  28.098  24.650  15.270  0.1474  0.0126  0.1795
 4268POPC   C1B89186  26.629  24.165  14.881  0.0516  0.0389  0.1213
 4268POPC   C2B89187  26.270  24.421  15.025  0.0624 -0.0332  0.2795
 4268POPC   C3B89188  25.895  24.644  14.860  0.0486  0.2368 -0.1660
 4268POPC   C4B89189  25.580  24.703  14.623  0.1296 -0.2220 -0.1979
 4269POPC   NC389190  28.814  17.872  19.950  0.1194  0.2387  0.1815
 4269POPC   PO489191  28.851  17.668  19.609 -0.1714  0.0734 -0.1984
 4269POPC   GL189192  28.644  17.543  19.292 -0.3154 -0.1606 -0.3216
 4269POPC   GL289193  28.473  17.426  19.450  0.0004  0.0169  0.3045
 4269POPC   C1A89194  28.810  17.158  19.074  0.2394  0.1372  0.0345
 4269POPC   D2A89195  29.006  17.109  18.692 -0.0594  0.0824 -0.2965
 4269POPC   C3A89196  29.040  16.754  18.435 -0.0807  0.1143 -0.2511
 4269POPC   C4A89197  28.904  16.478  18.091 -0.1241  0.4689 -0.1443
 4269POPC   C1B89198  28.351  17.132  19.112  0.1142 -0.3942  0.3315
 4269POPC   C2B89199  28.404  17.037  18.686  0.0595  0.0021 -0.1740
 4269POPC   C3B89200  28.608  17.014  18.276 -0.1775  0.1026 -0.1555
 4269POPC   C4B89201  28.775  16.864  17.883  0.1858  0.1489  0.1139
 4270POPC   NC389202  23.641  19.165  18.421 -0.0664 -0.1986  0.0482
 4270POPC   PO489203  23.399  19.168  18.082  0.2225 -0.3091 -0.2613
 4270POPC   GL189204  23.536  18.935  17.744  0.2123 -0.5526  0.3897
 4270POPC   GL289205  23.806  19.068  17.553 -0.0436 -0.0494 -0.0754
 4270POPC   C1A89206  23.391  18.764  17.316  0.1697 -0.1744 -0.2719
 4270POPC   D2A89207  23.062  18.630  17.027  0.1436 -0.0127  0.1234
 4270POPC   C3A89208  22.600  18.669  16.878  0.2219 -0.1038  0.0655
 4270POPC   C4A89209  22.305  18.943  17.112 -0.0853  0.1841 -0.1664
 4270POPC   C1B89210  23.384  19.239  17.324  0.1219  0.0638 -0.1655
 4270POPC   C2B89211  23.207  19.515  17.032 -0.0311 -0.1309  0.0513
 4270POPC   C3B89212  23.061  19.566  16.531  0.0927 -0.3034  0.2916
 4270POPC   C4B89213  23.127  19.769  16.114 -0.1398 -0.1296 -0.0314
 4271POPC   NC389214  27.517  21.773  14.442  0.0570  0.0632  0.1609
 4271POPC   PO489215  27.561  21.495  14.655  0.0706  0.0675 -0.2576
 4271POPC   GL189216  27.933  21.515  14.662  0.1267  0.0232 -0.2249
 4271POPC   GL289217  28.146  21.498  14.851 -0.3791  0.1445  0.0153
 4271POPC   C1A89218  28.295  21.306  14.464 -0.2158 -0.0031 -0.0272
 4271POPC   D2A89219  28.371  21.037  14.109 -0.2681 -0.4091  0.2206
 4271POPC   C3A89220  28.521  20.577  14.175 -0.0332 -0.0256  0.3743
 4271POPC   C4A89221  28.840  20.268  14.098 -0.1146 -0.0062  0.1056
 4271POPC   C1B89222  28.485  21.293  14.976  0.0749 -0.1675 -0.1736
 4271POPC   C2B89223  28.742  20.892  14.969  0.2323 -0.1553  0.0447
 4271POPC   C3B89224  29.199  20.771  14.928 -0.1314 -0.1655 -0.1054
 4271POPC   C4B89225  29.544  20.629  15.259  0.1454  0.1686  0.0833
 4272POPC   NC389226  31.133  21.494  19.068  0.1063  0.0580  0.1358
 4272POPC   PO489227  31.380  21.472  19.385  0.2586 -0.1090  0.0046
 4272POPC   GL189228  31.515  21.752  19.211 -0.1964  0.1184  0.1953
 4272POPC   GL289229  31.750  21.793  19.196 -0.4479  0.1944 -0.2002
 4272POPC   C1A89230  31.438  21.724  18.759  0.0139  0.2379 -0.2493
 4272POPC   D2A89231  31.219  21.429  18.391  0.2234  0.0978 -0.3578
 4272POPC   C3A89232  31.491  21.361  17.966 -0.3044 -0.0830 -0.1883
 4272POPC   C4A89233  31.866  21.309  17.764 -0.1257 -0.0344 -0.0909
 4272POPC   C1B89234  31.919  21.820  18.736 -0.0745 -0.1490  0.0106
 4272POPC   C2B89235  32.182  22.162  18.574  0.2654 -0.0685  0.1641
 4272POPC   C3B89236  32.619  22.227  18.309  0.2050 -0.0132 -0.3106
 4272POPC   C4B89237  32.655  21.991  17.847 -0.1311 -0.0445  0.1805
 4273POPC   NC389238  24.551  21.917  16.895 -0.1915 -0.0266  0.2036
 4273POPC   PO489239  24.456  21.547  16.864 -0.1269 -0.0082 -0.0620
 4273POPC   GL189240  24.330  21.253  16.659 -0.2205  0.0308  0.1236
 4273POPC   GL289241  24.440  21.345  16.376  0.1209  0.2093 -0.1934
 4273POPC   C1A89242  23.920  21.134  16.459  0.0221  0.1076  0.1540
 4273POPC   D2A89243  23.740  20.917  16.063 -0.0199  0.1826 -0.2261
 4273POPC   C3A89244  23.477  20.482  16.124 -0.3232  0.1228  0.0910
 4273POPC   C4A89245  23.259  20.196  15.816  0.1472  0.0463 -0.1220
 4273POPC   C1B89246  24.089  21.618  16.302 -0.0661  0.0607 -0.4621
 4273POPC   C2B89247  23.807  21.924  16.205 -0.3819 -0.0342  0.1768
 4273POPC   C3B89248  23.440  21.931  15.978  0.1410  0.0393 -0.1739
 4273POPC   C4B89249  23.282  22.236  15.698  0.0283  0.1164 -0.1171
 4274POPC   NC389250  30.672  17.708  20.198 -0.0419 -0.0541 -0.2237
 4274POPC   PO489251  30.601  17.434  19.948 -0.2326  0.1008 -0.2475
 4274POPC   GL189252  30.783  17.216  19.760 -0.1211  0.1502 -0.1120
 4274POPC   GL289253  30.650  16.920  19.884  0.0200  0.1418 -0.0942
 4274POPC   C1A89254  30.931  16.895  19.410  0.0995  0.0514 -0.3038
 4274POPC   D2A89255  30.732  16.564  19.101  0.0513 -0.0322 -0.2085
 4274POPC   C3A89256  30.918  16.735  18.741  0.0281  0.2084  0.4158
 4274POPC   C4A89257  30.778  17.020  18.420  0.0459  0.0759  0.1391
 4274POPC   C1B89258  30.589  16.568  19.578  0.0271  0.0463 -0.0635
 4274POPC   C2B89259  30.351  16.284  19.324  0.2306 -0.1340  0.0094
 4274POPC   C3B89260  30.377  16.232  18.882 -0.2183 -0.0713  0.0847
 4274POPC   C4B89261  30.375  15.964  18.598 -0.0311  0.3990 -0.1482
 4275POPC   NC389262  16.608  30.422  20.547  0.1916 -0.0058  0.1616
 4275POPC   PO489263  16.423  30.781  20.678 -0.1445  0.1502  0.1286
 4275POPC   GL189264  16.348  30.846  20.340  0.1208  0.1255  0.1319
 4275POPC   GL289265  16.486  30.633  20.084  0.0216 -0.3894 -0.2261
 4275POPC   C1A89266  16.228  31.016  19.943 -0.0718  0.0691 -0.1594
 4275POPC   D2A89267  16.002  30.973  19.549 -0.1476  0.1881 -0.0736
 4275POPC   C3A89268  15.765  30.610  19.513 -0.0602 -0.2370 -0.1779
 4275POPC   C4A89269  15.548  30.203  19.603  0.1622  0.0437 -0.0259
 4275POPC   C1B89270  16.720  30.874  19.727  0.2183  0.0575 -0.2462
 4275POPC   C2B89271  17.008  30.880  19.379  0.0274 -0.0211 -0.2276
 4275POPC   C3B89272  17.040  30.739  18.955  0.0097  0.0641  0.1846
 4275POPC   C4B89273  17.186  30.379  18.732  0.1846 -0.0351  0.1565
 4276POPC   NC389274  27.200  29.317  20.338  0.3016 -0.0973 -0.1214
 4276POPC   PO489275  27.467  29.600  20.376  0.2583  0.1664 -0.0712
 4276POPC   GL189276  27.492  29.539  19.982  0.0338 -0.2088  0.0813
 4276POPC   GL289277  27.790  29.735  19.950 -0.0544  0.0355 -0.1534
 4276POPC   C1A89278  27.519  29.495  19.496  0.3545 -0.1330 -0.0449
 4276POPC   D2A89279  27.784  29.455  19.141  0.0978 -0.0585 -0.2620
 4276POPC   C3A89280  28.101  29.161  18.950  0.1208  0.0102 -0.0525
 4276POPC   C4A89281  28.294  28.815  18.683 -0.1607  0.0225  0.0346
 4276POPC   C1B89282  27.901  29.895  19.525  0.1829  0.0519  0.3861
 4276POPC   C2B89283  27.897  29.987  19.023  0.0553  0.2716 -0.2384
 4276POPC   C3B89284  28.051  29.682  18.732 -0.0200 -0.2337 -0.0745
 4276POPC   C4B89285  28.187  29.259  18.481 -0.1137  0.2928  0.1240
 4277POPC   NC389286  29.212  18.681  18.636 -0.1156 -0.2525 -0.0390
 4277POPC   PO489287  29.392  18.842  18.970 -0.4021  0.1980 -0.1694
 4277POPC   GL189288  29.554  18.422  18.762 -0.1402 -0.0131 -0.0584
 4277POPC   GL289289  29.819  18.484  18.603  0.3441 -0.2933 -0.0715
 4277POPC   C1A89290  29.302  18.167  18.441 -0.3231 -0.0183  0.0070
 4277POPC   D2A89291  29.234  17.916  18.022  0.0573 -0.2824 -0.2590
 4277POPC   C3A89292  29.511  17.770  17.671 -0.2209  0.0772 -0.1676
 4277POPC   C4A89293  29.737  17.457  17.430 -0.0056  0.0272  0.0559
 4277POPC   C1B89294  29.831  18.340  18.207 -0.1328 -0.0395 -0.0920
 4277POPC   C2B89295  29.757  18.251  17.778  0.1561 -0.1302 -0.1641
 4277POPC   C3B89296  29.885  18.096  17.367  0.1891  0.0240  0.3222
 4277POPC   C4B89297  29.595  17.826  17.068 -0.0901 -0.1199 -0.2197
 4278POPC   NC389298  20.175  22.174  19.243 -0.2897 -0.0315 -0.0478
 4278POPC   PO489299  19.945  21.896  19.388  0.1793 -0.0100 -0.0907
 4278POPC   GL189300  20.033  21.709  19.122  0.1530  0.1438  0.0426
 4278POPC   GL289301  20.215  21.807  18.874 -0.1576 -0.1558  0.3517
 4278POPC   C1A89302  20.060  21.359  18.796 -0.0976  0.0383  0.0597
 4278POPC   D2A89303  20.305  20.942  18.612 -0.1033  0.3322  0.1354
 4278POPC   C3A89304  19.845  20.962  18.427 -0.0926 -0.2182  0.1286
 4278POPC   C4A89305  19.430  20.907  18.299 -0.0186  0.0792  0.3330
 4278POPC   C1B89306  20.199  21.734  18.448  0.0070 -0.1100  0.1583
 4278POPC   C2B89307  19.952  21.509  18.068  0.0408  0.0320 -0.1109
 4278POPC   C3B89308  19.762  21.681  17.675 -0.2436  0.0972 -0.0481
 4278POPC   C4B89309  19.412  21.880  17.483  0.1978  0.3217 -0.1108
 4279POPC   NC389310  19.612  28.574  21.319 -0.0695  0.1051 -0.1585
 4279POPC   PO489311  19.430  28.658  20.957  0.0449 -0.0062  0.0861
 4279POPC   GL189312  19.525  28.736  20.539 -0.1478  0.2214  0.0228
 4279POPC   GL289313  19.373  28.498  20.493 -0.1687 -0.0432 -0.1132
 4279POPC   C1A89314  19.165  29.041  20.424 -0.1344  0.2697  0.2413
 4279POPC   D2A89315  18.906  29.329  20.227 -0.0553 -0.3234  0.0018
 4279POPC   C3A89316  18.965  29.763  20.127  0.1622  0.5555  0.2761
 4279POPC   C4A89317  18.773  29.997  19.712 -0.1169  0.3692  0.1035
 4279POPC   C1B89318  19.350  28.569  20.056 -0.0950  0.1867  0.0285
 4279POPC   C2B89319  19.173  28.383  19.659 -0.1118  0.1607  0.3395
 4279POPC   C3B89320  18.893  28.171  19.347 -0.3244 -0.0244 -0.1091
 4279POPC   C4B89321  18.579  27.866  19.366 -0.0466  0.1624 -0.2326
 4280POPC   NC389322  20.509  28.917  20.888 -0.0583  0.1278  0.0152
 4280POPC   PO489323  20.214  28.775  20.657  0.3736 -0.1373  0.1552
 4280POPC   GL189324  20.076  28.856  20.314 -0.1082  0.0169  0.1439
 4280POPC   GL289325  19.899  28.629  20.282  0.4965 -0.2796 -0.1883
 4280POPC   C1A89326  20.262  28.836  19.914 -0.0382 -0.0662 -0.0018
 4280POPC   D2A89327  20.140  28.868  19.477  0.0949  0.3265 -0.4537
 4280POPC   C3A89328  20.417  28.570  19.271  0.1261 -0.0224  0.0447
 4280POPC   C4A89329  20.282  28.191  19.030  0.0018 -0.1567  0.2408
 4280POPC   C1B89330  19.822  28.663  19.824  0.0333 -0.1674  0.1904
 4280POPC   C2B89331  19.452  28.797  19.563  0.1217 -0.1764 -0.3584
 4280POPC   C3B89332  19.094  29.124  19.465 -0.5356  0.1946  0.0258
 4280POPC   C4B89333  18.680  29.197  19.222 -0.2490  0.0109  0.2788
 4281POPC   NC389334  28.510  23.342  17.524 -0.2990  0.1610  0.0620
 4281POPC   PO489335  28.602  23.470  17.906 -0.4402 -0.0843  0.1509
 4281POPC   GL189336  28.795  23.675  17.632 -0.3095  0.4910  0.1320
 4281POPC   GL289337  28.677  23.893  17.420 -0.2475 -0.0713 -0.1803
 4281POPC   C1A89338  29.170  23.872  17.591 -0.2789  0.0040  0.1140
 4281POPC   D2A89339  29.546  24.108  17.709  0.3135 -0.3116  0.0547
 4281POPC   C3A89340  29.656  24.380  17.306  0.1271  0.2644  0.0219
 4281POPC   C4A89341  29.832  24.705  17.095 -0.0378  0.1608 -0.0206
 4281POPC   C1B89342  28.573  24.350  17.453  0.1436  0.1775  0.0734
 4281POPC   C2B89343  28.814  24.722  17.222  0.1225 -0.0743 -0.3852
 4281POPC   C3B89344  28.844  25.066  17.027 -0.0794  0.0709  0.0534
 4281POPC   C4B89345  28.836  25.514  17.066 -0.1016 -0.0732  0.1017
 4282POPC   NC389346  27.294  21.046  15.314 -0.2170  0.0530  0.1148
 4282POPC   PO489347  27.028  20.774  15.424  0.0367 -0.4472  0.3498
 4282POPC   GL189348  26.772  20.449  15.193  0.4581 -0.0599 -0.2963
 4282POPC   GL289349  26.872  20.421  14.918  0.0534 -0.2355  0.0843
 4282POPC   C1A89350  26.751  19.983  15.136  0.1593 -0.0395 -0.1092
 4282POPC   D2A89351  26.610  19.699  14.808  0.1833 -0.0150 -0.1818
 4282POPC   C3A89352  26.639  19.284  14.736 -0.1332 -0.1625 -0.0419
 4282POPC   C4A89353  26.627  18.996  15.075  0.3284 -0.1974 -0.1402
 4282POPC   C1B89354  26.837  20.237  14.525  0.1212 -0.1067  0.1965
 4282POPC   C2B89355  26.827  19.901  14.251 -0.0458  0.5535  0.4686
 4282POPC   C3B89356  27.163  19.770  13.967 -0.1067  0.1399  0.0640
 4282POPC   C4B89357  27.398  19.657  13.606  0.0561 -0.1402  0.1812
 4283POPC   NC389358  31.839  25.714  19.438  0.4063  0.1206 -0.1145
 4283POPC   PO489359  31.960  25.893  19.810 -0.0443  0.0793  0.1939
 4283POPC   GL189360  32.111  26.307  19.691 -0.2333  0.0113 -0.0293
 4283POPC   GL289361  31.817  26.424  19.572  0.1374  0.1499  0.1947
 4283POPC   C1A89362  32.314  26.544  19.342  0.1354 -0.0295  0.2664
 4283POPC   D2A89363  32.409  26.816  18.958  0.2043  0.1576 -0.1108
 4283POPC   C3A89364  32.382  26.438  18.707  0.1179 -0.1437  0.0199
 4283POPC   C4A89365  32.264  26.131  18.366  0.0013 -0.2746 -0.0054
 4283POPC   C1B89366  31.526  26.085  19.414 -0.2438 -0.0847  0.2829
 4283POPC   C2B89367  31.435  25.710  19.107  0.2806 -0.0093  0.2857
 4283POPC   C3B89368  31.196  25.620  18.675  0.0998  0.0352  0.2528
 4283POPC   C4B89369  31.351  25.628  18.254  0.1503 -0.1538  0.0510
 4284POPC   NC389370  28.482  28.187  20.588  0.2470 -0.1722 -0.1684
 4284POPC   PO489371  28.525  28.488  20.367  0.0683 -0.1611  0.0596
 4284POPC   GL189372  28.481  28.490  19.931 -0.3999  0.0699  0.3015
 4284POPC   GL289373  28.360  28.801  19.918  0.1373  0.3925  0.1418
 4284POPC   C1A89374  28.473  28.506  19.484 -0.0756 -0.0650  0.1855
 4284POPC   D2A89375  28.651  28.685  19.097 -0.1086 -0.1681 -0.2078
 4284POPC   C3A89376  28.936  28.704  18.757  0.2267  0.2479  0.1251
 4284POPC   C4A89377  28.811  28.642  18.318 -0.0719 -0.3461 -0.0912
 4284POPC   C1B89378  28.769  28.848  19.701  0.0421 -0.4049 -0.0136
 4284POPC   C2B89379  29.121  28.942  19.391 -0.1458 -0.0234 -0.0230
 4284POPC   C3B89380  29.207  29.159  18.971  0.2605 -0.0169 -0.4041
 4284POPC   C4B89381  29.351  29.230  18.600 -0.2125  0.0945  0.1257
 4285POPC   NC389382  29.403  23.337  18.555 -0.3155 -0.1159  0.1918
 4285POPC   PO489383  29.565  23.378  18.219 -0.4450  0.1095  0.1048
 4285POPC   GL189384  29.842  23.560  17.982  0.1801 -0.1427 -0.0146
 4285POPC   GL289385  29.648  23.550  17.728 -0.0369  0.0849  0.0496
 4285POPC   C1A89386  30.132  23.460  17.618 -0.0740 -0.0309  0.0973
 4285POPC   D2A89387  30.232  23.602  17.195  0.1132 -0.1909  0.0165
 4285POPC   C3A89388  30.247  23.246  16.852  0.3004 -0.1514  0.2500
 4285POPC   C4A89389  30.343  23.024  16.503  0.2912 -0.1965 -0.1955
 4285POPC   C1B89390  29.783  23.796  17.330 -0.3287 -0.2382 -0.3882
 4285POPC   C2B89391  29.588  23.991  16.905 -0.0674 -0.1926  0.2148
 4285POPC   C3B89392  29.415  24.184  16.553  0.0255 -0.1421  0.0532
 4285POPC   C4B89393  29.307  24.549  16.222  0.0146  0.1294  0.2481
 4286POPC   NC389394  29.539  24.711  19.000  0.0013  0.4868  0.1323
 4286POPC   PO489395  29.186  24.867  19.054  0.3220  0.0629 -0.3957
 4286POPC   GL189396  29.321  24.991  18.675  0.2680 -0.0805 -0.0801
 4286POPC   GL289397  29.534  24.912  18.542  0.2728  0.3523 -0.0181
 4286POPC   C1A89398  29.386  25.416  18.472  0.1063  0.2539  0.1447
 4286POPC   D2A89399  29.579  25.857  18.350 -0.1050 -0.1119 -0.2213
 4286POPC   C3A89400  29.588  26.177  18.047 -0.0236 -0.0305  0.0017
 4286POPC   C4A89401  29.594  26.591  17.955 -0.1928 -0.0255 -0.2310
 4286POPC   C1B89402  29.730  25.035  18.121 -0.0789  0.0607 -0.3061
 4286POPC   C2B89403  29.606  25.080  17.679  0.0337 -0.2259 -0.0195
 4286POPC   C3B89404  29.716  25.192  17.257 -0.0225  0.1138 -0.1749
 4286POPC   C4B89405  30.102  25.306  17.010 -0.1188 -0.0604 -0.1250
 4287POPC   NC389406  27.071  19.788  17.488 -0.2470  0.0822 -0.0671
 4287POPC   PO489407  27.385  19.912  17.624  0.0095  0.0250 -0.3054
 4287POPC   GL189408  27.495  19.594  17.370  0.0091  0.5766  0.2498
 4287POPC   GL289409  27.791  19.476  17.312  0.0888 -0.0648  0.0513
 4287POPC   C1A89410  27.370  19.331  17.009  0.1228 -0.1132  0.4528
 4287POPC   D2A89411  27.391  19.349  16.534 -0.4467  0.0125 -0.2700
 4287POPC   C3A89412  27.739  19.176  16.324 -0.3071  0.2485 -0.0644
 4287POPC   C4A89413  27.850  19.085  15.869  0.1739 -0.0593  0.0784
 4287POPC   C1B89414  28.204  19.277  17.170  0.0091  0.3385 -0.0308
 4287POPC   C2B89415  28.548  19.072  16.938  0.1991  0.0023  0.1758
 4287POPC   C3B89416  28.923  18.946  16.794  0.0309  0.1180  0.0087
 4287POPC   C4B89417  29.313  18.741  16.663  0.2585 -0.1434 -0.1482
 4288POPC   NC389418  17.693  28.616  20.145 -0.3041 -0.1822 -0.3800
 4288POPC   PO489419  17.697  28.365  20.442  0.1660  0.0572  0.2713
 4288POPC   GL189420  17.649  27.977  20.164 -0.1900  0.3919 -0.1877
 4288POPC   GL289421  17.486  28.137  20.016 -0.2276 -0.1383 -0.0203
 4288POPC   C1A89422  17.862  27.762  19.786 -0.1370 -0.0807 -0.0619
 4288POPC   D2A89423  18.057  27.992  19.429 -0.0517 -0.3316 -0.0313
 4288POPC   C3A89424  18.170  27.996  18.999  0.2404  0.2403 -0.1046
 4288POPC   C4A89425  18.044  27.762  18.597  0.2040 -0.1791 -0.1941
 4288POPC   C1B89426  17.775  28.336  19.732 -0.3236  0.1180 -0.0307
 4288POPC   C2B89427  17.886  28.481  19.284  0.1505  0.2097 -0.3594
 4288POPC   C3B89428  17.879  28.636  18.850 -0.0395 -0.0492 -0.2512
 4288POPC   C4B89429  17.832  29.038  18.631 -0.1178 -0.1328  0.1117
 4289POPC   NC389430  22.921  17.866  19.254 -0.0080  0.3313  0.0980
 4289POPC   PO489431  22.887  17.501  19.379 -0.3235  0.2091  0.2686
 4289POPC   GL189432  22.929  17.460  18.918  0.0849  0.0429  0.0098
 4289POPC   GL289433  23.179  17.615  18.852  0.2122 -0.0558 -0.0163
 4289POPC   C1A89434  22.834  17.124  18.570  0.1673 -0.2503  0.3390
 4289POPC   D2A89435  22.781  16.691  18.394 -0.0346 -0.0170 -0.2252
 4289POPC   C3A89436  22.385  16.466  18.481  0.1398 -0.0442  0.0534
 4289POPC   C4A89437  22.032  16.342  18.683  0.1083  0.1291  0.0654
 4289POPC   C1B89438  22.920  17.575  18.473 -0.1521  0.0700 -0.2507
 4289POPC   C2B89439  22.731  17.299  18.120  0.2234  0.0416  0.0142
 4289POPC   C3B89440  22.301  17.249  17.961 -0.0312 -0.2945 -0.0546
 4289POPC   C4B89441  22.201  17.471  17.571  0.4972 -0.3172  0.1868
 4290POPC   NC389442  29.299  20.043  17.852 -0.2983 -0.2086 -0.1639
 4290POPC   PO489443  29.482  20.109  18.198 -0.4456  0.1756  0.1026
 4290POPC   GL189444  29.765  20.202  17.945 -0.0004 -0.0019 -0.0957
 4290POPC   GL289445  29.716  20.382  17.716  0.2161 -0.0069 -0.1298
 4290POPC   C1A89446  30.171  20.428  18.091  0.3406  0.1136  0.0857
 4290POPC   D2A89447  30.555  20.642  17.930 -0.2558  0.3426 -0.2204
 4290POPC   C3A89448  30.942  20.543  18.157  0.1070 -0.3560 -0.0417
 4290POPC   C4A89449  31.126  20.276  18.114 -0.3834  0.2112  0.1481
 4290POPC   C1B89450  30.166  20.111  17.687 -0.0170  0.2161  0.1704
 4290POPC   C2B89451  30.490  19.979  17.373  0.2743 -0.0844 -0.1801
 4290POPC   C3B89452  30.665  20.010  16.885 -0.0086  0.3252 -0.0100
 4290POPC   C4B89453  30.728  19.877  16.413  0.0807  0.2167 -0.2740
 4291POPC   NC389454  27.521  23.089  14.050  0.0073 -0.2535  0.2756
 4291POPC   PO489455  27.531  22.690  14.198 -0.2106 -0.0665 -0.0018
 4291POPC   GL189456  27.873  22.630  14.247  0.0869  0.2330 -0.0881
 4291POPC   GL289457  28.025  22.856  14.105  0.0645 -0.1459 -0.1642
 4291POPC   C1A89458  28.289  22.717  14.470  0.0789 -0.3230  0.0806
 4291POPC   D2A89459  28.641  22.957  14.634  0.0173 -0.2045  0.1617
 4291POPC   C3A89460  28.508  23.250  15.010 -0.0919  0.0090  0.1684
 4291POPC   C4A89461  28.741  23.434  15.358  0.3801 -0.1010  0.0232
 4291POPC   C1B89462  28.186  23.193  13.828  0.0629 -0.2363  0.0181
 4291POPC   C2B89463  28.322  23.574  13.592  0.1788  0.2084  0.2450
 4291POPC   C3B89464  28.698  23.519  13.333  0.1737  0.1474 -0.2507
 4291POPC   C4B89465  28.876  23.716  12.964 -0.1376  0.0571  0.0639
 4292POPC   NC389466  23.598  20.416  17.818  0.1147 -0.0863 -0.1663
 4292POPC   PO489467  23.626  20.589  17.453 -0.1783  0.2434 -0.0698
 4292POPC   GL189468  23.575  20.701  17.098  0.4031  0.1163 -0.2048
 4292POPC   GL289469  23.737  20.543  16.922  0.0279  0.0758  0.0489
 4292POPC   C1A89470  23.208  20.520  16.846  0.1641 -0.1554 -0.3450
 4292POPC   D2A89471  22.946  20.152  16.732 -0.1080  0.0124 -0.0973
 4292POPC   C3A89472  22.510  20.291  16.834 -0.1757  0.2522 -0.0761
 4292POPC   C4A89473  22.068  20.416  16.752 -0.2909 -0.2760  0.2626
 4292POPC   C1B89474  23.590  20.789  16.594 -0.2392  0.0361  0.0254
 4292POPC   C2B89475  23.281  21.030  16.323  0.0852 -0.1011 -0.0429
 4292POPC   C3B89476  23.176  20.836  15.950 -0.1036 -0.2898  0.0079
 4292POPC   C4B89477  22.958  20.881  15.551  0.5355  0.2089  0.0634
 4293POPC   NC389478  31.934  17.005  20.301 -0.0443 -0.0185  0.1682
 4293POPC   PO489479  32.182  17.019  20.019 -0.0303  0.0758 -0.1050
 4293POPC   GL189480  32.499  17.069  19.728 -0.0372  0.0234 -0.1241
 4293POPC   GL289481  32.278  17.294  19.529  0.1950  0.2325 -0.0101
 4293POPC   C1A89482  32.544  16.859  19.303 -0.2523  0.0974 -0.0409
 4293POPC   D2A89483  32.642  16.673  18.860  0.3037  0.2988 -0.4473
 4293POPC   C3A89484  32.428  16.298  18.906  0.1407 -0.1978  0.2826
 4293POPC   C4A89485  32.131  15.961  18.701 -0.2853 -0.4793  0.3242
 4293POPC   C1B89486  32.203  17.217  19.096 -0.2301  0.1702 -0.2588
 4293POPC   C2B89487  32.279  17.051  18.650  0.0641  0.0423 -0.1424
 4293POPC   C3B89488  32.234  17.236  18.231  0.2557  0.0632 -0.1330
 4293POPC   C4B89489  32.459  17.547  17.937  0.0815 -0.0231  0.1407
 4294POPC   NC389490   0.811  27.108  20.514 -0.3583 -0.0284  0.1939
 4294POPC   PO489491   0.511  26.848  20.527 -0.0204  0.0869 -0.1960
 4294POPC   GL189492   0.556  26.831  20.157 -0.0809  0.2959 -0.1370
 4294POPC   GL289493   0.324  26.614  20.087  0.0771 -0.1458 -0.2011
 4294POPC   C1A89494   0.406  26.968  19.747  0.0758 -0.1104 -0.1938
 4294POPC   D2A89495   0.297  27.014  19.343 -0.1254  0.0450 -0.0966
 4294POPC   C3A89496   0.589  27.115  18.965  0.0861  0.0521 -0.1227
 4294POPC   C4A89497   0.990  27.232  18.821 -0.0203 -0.0730 -0.0238
 4294POPC   C1B89498   0.419  26.504  19.647 -0.3810  0.0314 -0.0616
 4294POPC   C2B89499   0.439  26.508  19.215 -0.1784 -0.2374 -0.2032
 4294POPC   C3B89500   0.713  26.528  18.828  0.3133  0.0626  0.1387
 4294POPC   C4B89501   0.689  26.452  18.402 -0.2141  0.2657 -0.1919
 4295POPC   NC389502  28.062  20.345  17.251 -0.0560 -0.2146 -0.0296
 4295POPC   PO489503  27.974  19.982  17.153 -0.0812 -0.1215 -0.2048
 4295POPC   GL189504  27.867  19.890  16.706 -0.0933 -0.2340 -0.1255
 4295POPC   GL289505  27.585  19.760  16.640  0.1528  0.0420  0.5527
 4295POPC   C1A89506  28.166  19.637  16.503 -0.5015  0.2776  0.2406
 4295POPC   D2A89507  28.622  19.697  16.395  0.0831  0.0569 -0.2466
 4295POPC   C3A89508  28.765  19.791  15.963  0.1038  0.1905 -0.2416
 4295POPC   C4A89509  28.724  19.800  15.522  0.0024  0.0479  0.2689
 4295POPC   C1B89510  27.830  19.431  16.827 -0.0730  0.2965  0.0806
 4295POPC   C2B89511  28.113  19.132  16.665 -0.0420  0.2922 -0.1482
 4295POPC   C3B89512  27.972  18.703  16.531 -0.0676 -0.1275 -0.1789
 4295POPC   C4B89513  27.644  18.452  16.605  0.3500 -0.1197  0.0407
 4296POPC   NC389514  24.857  23.625  18.578  0.2002 -0.0165  0.2386
 4296POPC   PO489515  24.482  23.725  18.562 -0.0749 -0.1033  0.1518
 4296POPC   GL189516  24.341  23.875  18.231  0.3501 -0.1988 -0.1179
 4296POPC   GL289517  24.286  23.683  18.090  0.2158 -0.1599  0.2836
 4296POPC   C1A89518  24.468  24.238  17.975 -0.1834  0.1410 -0.5551
 4296POPC   D2A89519  24.665  24.641  18.044  0.0942 -0.0266 -0.1376
 4296POPC   C3A89520  24.830  24.824  17.709  0.0751  0.1646 -0.2350
 4296POPC   C4A89521  24.975  24.927  17.301  0.0030  0.1381 -0.2077
 4296POPC   C1B89522  23.955  24.002  18.042 -0.0252  0.1718  0.2615
 4296POPC   C2B89523  23.680  24.349  18.081 -0.0590  0.1198  0.0152
 4296POPC   C3B89524  23.383  24.660  17.866  0.0578 -0.0670 -0.1926
 4296POPC   C4B89525  23.242  25.054  17.638  0.2196 -0.1085  0.0408
 4297POPC   NC389526  26.491  23.910  14.303 -0.2705 -0.1665  0.0008
 4297POPC   PO489527  26.422  23.582  14.103 -0.2217  0.1444 -0.0542
 4297POPC   GL189528  26.098  23.881  14.004 -0.1421 -0.5590 -0.2953
 4297POPC   GL289529  26.041  23.933  13.712 -0.0592  0.0213 -0.0811
 4297POPC   C1A89530  25.612  23.889  14.004 -0.1476  0.1507 -0.1472
 4297POPC   D2A89531  25.135  23.822  13.944  0.1261 -0.0710  0.1598
 4297POPC   C3A89532  24.841  23.852  14.304  0.0178 -0.1293  0.1806
 4297POPC   C4A89533  24.681  24.150  14.520  0.2708 -0.4316  0.0877
 4297POPC   C1B89534  25.853  24.359  13.704 -0.3626  0.1162  0.0174
 4297POPC   C2B89535  25.984  24.804  13.691 -0.1101  0.1071  0.0530
 4297POPC   C3B89536  25.945  25.039  14.112 -0.3493  0.2031 -0.3365
 4297POPC   C4B89537  25.875  25.263  14.507 -0.4909  0.1535 -0.2479
 4298POPC   NC389538  31.393  17.786  19.580 -0.2164  0.3542  0.3334
 4298POPC   PO489539  31.394  17.454  19.790  0.0346 -0.3224  0.2908
 4298POPC   GL189540  31.197  17.347  19.507  0.2971 -0.3618 -0.2073
 4298POPC   GL289541  30.957  17.521  19.361 -0.0644 -0.0611 -0.2037
 4298POPC   C1A89542  31.277  17.052  19.117 -0.0870 -0.2556 -0.1793
 4298POPC   D2A89543  31.342  17.104  18.675  0.1719 -0.4439 -0.3328
 4298POPC   C3A89544  31.305  16.793  18.314 -0.0603 -0.0977  0.1260
 4298POPC   C4A89545  31.213  16.857  17.836  0.1313  0.2237  0.1266
 4298POPC   C1B89546  30.890  17.713  18.953  0.1986 -0.1477  0.3068
 4298POPC   C2B89547  30.742  17.802  18.483  0.0851 -0.1399 -0.1123
 4298POPC   C3B89548  30.811  17.783  18.029  0.1192  0.1501  0.1590
 4298POPC   C4B89549  30.625  17.675  17.612 -0.1406 -0.1651  0.2088
 4299POPC   NC389550  25.009  25.524  18.615 -0.1278 -0.5113 -0.0378
 4299POPC   PO489551  24.786  25.291  18.809  0.1412 -0.1273 -0.1120
 4299POPC   GL189552  24.499  25.501  18.495  0.4201 -0.0441 -0.0894
 4299POPC   GL289553  24.695  25.401  18.235  0.2411  0.2029 -0.3475
 4299POPC   C1A89554  24.269  25.824  18.246  0.1608  0.0407  0.1841
 4299POPC   D2A89555  24.040  26.043  17.864  0.0793  0.1256  0.2466
 4299POPC   C3A89556  24.161  26.389  17.564  0.1319 -0.1082 -0.1128
 4299POPC   C4A89557  24.368  26.287  17.182  0.1306 -0.3540  0.2847
 4299POPC   C1B89558  24.489  25.468  17.907  0.1933 -0.0603  0.2597
 4299POPC   C2B89559  24.350  25.400  17.464  0.0871  0.1558  0.0564
 4299POPC   C3B89560  24.377  25.581  17.008 -0.0416 -0.3022  0.0266
 4299POPC   C4B89561  24.051  25.909  16.943  0.1705  0.1957  0.3337
 4300POPC   NC389562  20.852  23.621  19.942  0.0109 -0.1154  0.0522
 4300POPC   PO489563  20.493  23.855  20.039 -0.1187  0.5520  0.0781
 4300POPC   GL189564  20.592  23.943  19.712 -0.1061  0.0907  0.2130
 4300POPC   GL289565  20.315  23.945  19.595 -0.1634  0.2230  0.1233
 4300POPC   C1A89566  20.563  24.320  19.460 -0.1168  0.0860 -0.0765
 4300POPC   D2A89567  20.461  24.426  19.021 -0.1731 -0.2093 -0.1360
 4300POPC   C3A89568  20.403  24.835  18.799 -0.1136 -0.1784 -0.1254
 4300POPC   C4A89569  20.284  25.277  18.680  0.1195 -0.0926  0.1751
 4300POPC   C1B89570  19.922  23.744  19.491 -0.0653 -0.0421  0.0178
 4300POPC   C2B89571  19.506  23.682  19.545  0.2307 -0.1379  0.0051
 4300POPC   C3B89572  19.168  23.875  19.527  0.1766 -0.0891  0.2452
 4300POPC   C4B89573  18.793  23.911  19.764 -0.3964  0.1883  0.1671
 4301POPC   NC389574  28.017  29.529  20.280 -0.1832  0.3836 -0.0336
 4301POPC   PO489575  28.284  29.289  20.473  0.0599 -0.1231  0.2007
 4301POPC   GL189576  28.388  29.226  20.017 -0.3156 -0.4446 -0.1277
 4301POPC   GL289577  28.686  29.338  19.968  0.1408  0.2112  0.0330
 4301POPC   C1A89578  28.266  29.442  19.642  0.2539 -0.0065  0.3393
 4301POPC   D2A89579  28.295  29.580  19.170 -0.1604 -0.3092 -0.1066
 4301POPC   C3A89580  28.536  29.639  18.756 -0.1720  0.4072  0.2487
 4301POPC   C4A89581  28.543  29.544  18.255  0.0240 -0.0777  0.0652
 4301POPC   C1B89582  28.768  29.287  19.474  0.2357 -0.1159 -0.1325
 4301POPC   C2B89583  28.652  29.203  19.032 -0.0833 -0.1067 -0.0414
 4301POPC   C3B89584  28.717  29.164  18.547  0.2755 -0.0817 -0.3974
 4301POPC   C4B89585  28.691  29.109  18.064 -0.0053 -0.0139 -0.0328
 4302POPC   NC389586  20.835  29.988  20.655  0.0476  0.2460  0.3125
 4302POPC   PO489587  20.424  30.074  20.752 -0.0434  0.2856 -0.0032
 4302POPC   GL189588  20.385  29.787  20.507 -0.2021 -0.0148  0.4217
 4302POPC   GL289589  20.125  29.797  20.465  0.1336 -0.3502  0.3030
 4302POPC   C1A89590  20.450  29.656  20.083  0.0202 -0.4498 -0.0211
 4302POPC   D2A89591  20.610  29.867  19.669  0.0634 -0.0846 -0.1421
 4302POPC   C3A89592  20.502  29.736  19.287  0.1022 -0.1292 -0.0092
 4302POPC   C4A89593  20.519  29.492  18.949  0.0076  0.1727  0.1616
 4302POPC   C1B89594  19.984  29.805  19.980 -0.1937 -0.3357 -0.0690
 4302POPC   C2B89595  19.752  30.008  19.667 -0.2283  0.0712  0.1898
 4302POPC   C3B89596  19.554  29.816  19.285  0.0910  0.1474  0.0720
 4302POPC   C4B89597  19.448  29.395  19.062  0.2142  0.1669 -0.0133
 4303POPC   NC389598  25.928  29.945  20.213  0.1262 -0.1754 -0.1691
 4303POPC   PO489599  25.700  29.706  20.398  0.2064  0.0088 -0.0177
 4303POPC   GL189600  25.498  29.768  20.034  0.0090  0.5143  0.2608
 4303POPC   GL289601  25.289  29.960  19.981 -0.0540  0.2009 -0.1374
 4303POPC   C1A89602  25.338  29.545  19.644 -0.1319 -0.0206 -0.1203
 4303POPC   D2A89603  25.084  29.627  19.288  0.2862 -0.1754 -0.1781
 4303POPC   C3A89604  25.054  29.246  19.029 -0.2099  0.1569 -0.0104
 4303POPC   C4A89605  25.162  28.961  18.660 -0.3276  0.1200  0.0140
 4303POPC   C1B89606  24.868  29.854  19.718  0.2927 -0.3244  0.0774
 4303POPC   C2B89607  24.535  29.752  19.422 -0.0612  0.1037 -0.0362
 4303POPC   C3B89608  24.211  29.818  19.084 -0.1766 -0.2271 -0.1783
 4303POPC   C4B89609  23.902  30.058  18.843  0.0016 -0.0280  0.3432
 4304POPC   NC389610  18.598  25.929  21.154  0.1641 -0.2551  0.1669
 4304POPC   PO489611  18.856  26.072  20.876  0.2516  0.1499 -0.1618
 4304POPC   GL189612  18.744  25.928  20.452  0.2284 -0.2243  0.3948
 4304POPC   GL289613  18.640  25.632  20.267  0.0464 -0.2753  0.2259
 4304POPC   C1A89614  18.593  26.036  20.019 -0.1696 -0.2565 -0.3864
 4304POPC   D2A89615  18.264  25.926  19.841  0.3241  0.2104  0.2343
 4304POPC   C3A89616  18.401  26.040  19.394 -0.0485 -0.1438 -0.0280
 4304POPC   C4A89617  18.671  26.085  19.028  0.1519 -0.0804  0.2525
 4304POPC   C1B89618  18.389  25.487  19.876  0.0676 -0.2187 -0.0414
 4304POPC   C2B89619  18.149  25.600  19.453 -0.0082 -0.2422  0.0900
 4304POPC   C3B89620  18.294  25.744  19.034 -0.2737  0.2271 -0.1211
 4304POPC   C4B89621  18.683  25.644  18.813  0.0468 -0.1593  0.0174
 4305POPC   NC389622  24.485  25.513  19.363  0.2187  0.4610 -0.2031
 4305POPC   PO489623  24.770  25.781  19.538  0.0484  0.1286  0.2587
 4305POPC   GL189624  24.434  26.016  19.360 -0.0331 -0.1615 -0.2214
 4305POPC   GL289625  24.589  26.263  19.433  0.1372  0.2056 -0.2414
 4305POPC   C1A89626  24.151  26.251  19.151 -0.0817  0.2131  0.3428
 4305POPC   D2A89627  23.982  26.595  18.912 -0.2322 -0.0924 -0.0653
 4305POPC   C3A89628  23.549  26.718  19.007  0.1746 -0.0212  0.1677
 4305POPC   C4A89629  23.193  27.084  18.976 -0.0993 -0.1599  0.1017
 4305POPC   C1B89630  24.632  26.294  19.043  0.3116 -0.3845 -0.1156
 4305POPC   C2B89631  24.406  26.471  18.642  0.1155  0.0157  0.0542
 4305POPC   C3B89632  24.024  26.727  18.433 -0.0776 -0.3004 -0.2000
 4305POPC   C4B89633  23.612  26.869  18.493 -0.1449 -0.1211 -0.0636
 4306POPC   NC389634  27.695  21.701  15.109  0.1392 -0.3792  0.0890
 4306POPC   PO489635  27.476  21.477  15.372 -0.1678 -0.2327  0.0790
 4306POPC   GL189636  27.631  21.278  15.044  0.4758  0.3797 -0.1758
 4306POPC   GL289637  27.842  21.198  15.161  0.0087 -0.3787 -0.1173
 4306POPC   C1A89638  27.538  20.853  14.800  0.2850  0.1672  0.3156
 4306POPC   D2A89639  27.264  20.459  14.614  0.2399  0.0508 -0.2601
 4306POPC   C3A89640  27.262  20.066  14.919  0.2957  0.4866 -0.0078
 4306POPC   C4A89641  27.159  19.637  14.822 -0.1637 -0.1221  0.1491
 4306POPC   C1B89642  28.029  21.034  14.785 -0.1549  0.0893  0.0426
 4306POPC   C2B89643  28.377  20.837  14.606 -0.1112 -0.1661  0.0867
 4306POPC   C3B89644  28.769  21.021  14.369  0.0961  0.1063  0.2010
 4306POPC   C4B89645  28.909  21.281  14.069 -0.0663  0.0776 -0.1931
 4307POPC   NC389646  25.929  27.474  20.061 -0.0270  0.0117 -0.1610
 4307POPC   PO489647  25.795  27.110  20.006 -0.3320  0.1314 -0.1632
 4307POPC   GL189648  25.914  27.154  19.627 -0.1124  0.0415 -0.0531
 4307POPC   GL289649  26.043  26.861  19.657 -0.0748  0.0842 -0.0931
 4307POPC   C1A89650  25.958  27.255  19.155 -0.0914  0.0206 -0.0705
 4307POPC   D2A89651  26.160  27.323  18.729 -0.1749 -0.2432 -0.2146
 4307POPC   C3A89652  26.395  27.647  18.537 -0.0768 -0.1458 -0.1745
 4307POPC   C4A89653  26.358  27.899  18.095 -0.2297  0.2067  0.0531
 4307POPC   C1B89654  26.316  26.929  19.297  0.2217 -0.0304 -0.0243
 4307POPC   C2B89655  26.331  26.836  18.841  0.0184  0.1670  0.1551
 4307POPC   C3B89656  26.497  26.942  18.380 -0.0848  0.1188  0.2588
 4307POPC   C4B89657  26.582  26.790  17.938  0.4537  0.3221 -0.1150
 4308POPC   NC389658  24.919  24.255  18.274  0.3506 -0.1607 -0.0284
 4308POPC   PO489659  25.248  24.431  18.191 -0.2213 -0.0401 -0.0608
 4308POPC   GL189660  25.186  24.490  17.723  0.1104  0.2594 -0.2849
 4308POPC   GL289661  24.935  24.305  17.758  0.1372 -0.2022 -0.0589
 4308POPC   C1A89662  25.388  24.563  17.337  0.1590 -0.0639 -0.0442
 4308POPC   D2A89663  25.807  24.742  17.396 -0.1999  0.1110  0.2355
 4308POPC   C3A89664  25.955  25.181  17.262  0.0929 -0.2868  0.3487
 4308POPC   C4A89665  26.098  25.534  17.050 -0.0691 -0.0795  0.2143
 4308POPC   C1B89666  24.582  24.386  17.470  0.0721  0.1986 -0.0499
 4308POPC   C2B89667  24.195  24.421  17.248  0.0529 -0.1062 -0.0653
 4308POPC   C3B89668  23.950  24.545  16.873  0.3281  0.0583 -0.0770
 4308POPC   C4B89669  24.037  24.872  16.551  0.2364  0.0711 -0.1086
 4309POPC   NC389670  23.705  29.497  20.847 -0.2399 -0.0638  0.0152
 4309POPC   PO489671  23.626  29.784  20.572 -0.0705  0.4727 -0.0908
 4309POPC   GL189672  23.555  29.908  20.186 -0.0614 -0.2000  0.0965
 4309POPC   GL289673  23.551  29.645  20.094  0.0414  0.0959 -0.3268
 4309POPC   C1A89674  23.835  30.222  19.904  0.1376  0.2712 -0.1984
 4309POPC   D2A89675  23.779  30.484  19.485 -0.1612  0.1241  0.3790
 4309POPC   C3A89676  23.486  30.726  19.356 -0.4466  0.0134  0.1899
 4309POPC   C4A89677  23.216  30.971  19.607 -0.1886  0.2899 -0.3447
 4309POPC   C1B89678  23.616  29.576  19.664  0.0138 -0.0443 -0.1345
 4309POPC   C2B89679  23.508  29.393  19.258  0.1133  0.0429 -0.2442
 4309POPC   C3B89680  23.257  29.254  18.877 -0.2134  0.1872 -0.2563
 4309POPC   C4B89681  23.402  29.379  18.434  0.0061 -0.2156  0.2659
 4310POPC   NC389682  24.969  22.154  16.120 -0.0604 -0.2575 -0.2882
 4310POPC   PO489683  24.617  22.335  16.032 -0.1027 -0.0500  0.2920
 4310POPC   GL189684  24.233  22.143  15.997  0.1126  0.0178  0.0495
 4310POPC   GL289685  24.070  22.325  16.074 -0.0091  0.3969 -0.2563
 4310POPC   C1A89686  24.025  21.819  15.795 -0.1371  0.0397 -0.0647
 4310POPC   D2A89687  23.702  21.601  15.474 -0.0831 -0.2230  0.2176
 4310POPC   C3A89688  23.311  21.848  15.439  0.0971 -0.0074  0.1397
 4310POPC   C4A89689  22.933  21.862  15.649  0.4022 -0.0778  0.0682
 4310POPC   C1B89690  24.071  22.726  15.898  0.0208  0.2781 -0.0369
 4310POPC   C2B89691  23.835  23.146  15.838 -0.0701  0.1622 -0.1327
 4310POPC   C3B89692  23.555  23.322  15.533 -0.1025  0.0267 -0.1495
 4310POPC   C4B89693  23.117  23.201  15.523 -0.2388  0.1905  0.0666
 4311POPC   NC389694  27.326  23.268  14.853  0.0668  0.1451  0.1788
 4311POPC   PO489695  27.245  23.190  14.468  0.0878 -0.1246 -0.0888
 4311POPC   GL189696  27.514  23.438  14.441 -0.3063 -0.0016  0.0876
 4311POPC   GL289697  27.726  23.462  14.611 -0.0031  0.0677  0.1985
 4311POPC   C1A89698  27.751  23.525  14.088  0.2907  0.1102  0.0483
 4311POPC   D2A89699  27.872  23.811  13.814 -0.1037 -0.2708 -0.1773
 4311POPC   C3A89700  27.809  24.291  13.769  0.0071 -0.0778 -0.2085
 4311POPC   C4A89701  27.754  24.671  13.954 -0.1321  0.4246 -0.0804
 4311POPC   C1B89702  28.130  23.256  14.562 -0.3434  0.1310 -0.3263
 4311POPC   C2B89703  28.486  23.232  14.195 -0.0344 -0.2292  0.0588
 4311POPC   C3B89704  28.975  23.219  14.192 -0.2130 -0.0772 -0.1091
 4311POPC   C4B89705  29.413  23.364  14.241  0.0288 -0.1782 -0.0862
 4312POPC   NC389706  27.536  22.885  15.761  0.1345 -0.0419  0.1057
 4312POPC   PO489707  27.871  23.017  15.932  0.2951  0.1643 -0.1191
 4312POPC   GL189708  28.113  23.273  15.787  0.2769 -0.5421 -0.1528
 4312POPC   GL289709  28.097  23.523  15.977 -0.4446 -0.0603  0.3419
 4312POPC   C1A89710  28.185  23.445  15.330  0.2034  0.1444 -0.1635
 4312POPC   D2A89711  28.204  23.697  14.922  0.0540  0.0734 -0.1408
 4312POPC   C3A89712  28.195  23.730  14.426 -0.2018 -0.1677  0.2872
 4312POPC   C4A89713  28.433  23.751  14.010 -0.0429 -0.0939 -0.0641
 4312POPC   C1B89714  28.369  23.800  15.667  0.0569 -0.3621 -0.3095
 4312POPC   C2B89715  28.654  23.935  15.360 -0.2320  0.0633 -0.2298
 4312POPC   C3B89716  28.784  23.726  14.954 -0.1800 -0.3847 -0.2169
 4312POPC   C4B89717  28.642  23.538  14.581  0.0996  0.2644 -0.0169
 4313POPC   NC389718   1.304  23.146  19.992  0.1390  0.1277  0.2419
 4313POPC   PO489719   1.255  23.525  19.969 -0.0171  0.2966  0.1238
 4313POPC   GL189720   1.307  23.552  19.638  0.2481  0.0300 -0.0921
 4313POPC   GL289721   1.599  23.665  19.546 -0.0616 -0.3132  0.0183
 4313POPC   C1A89722   1.016  23.562  19.290 -0.2286 -0.1819  0.1133
 4313POPC   D2A89723   0.726  23.196  19.200 -0.2312  0.0365  0.4108
 4313POPC   C3A89724   0.416  23.250  18.849  0.2888 -0.2820  0.1839
 4313POPC   C4A89725   0.087  23.569  18.900  0.1667  0.0966 -0.2380
 4313POPC   C1B89726   1.736  23.852  19.178  0.2444 -0.0595  0.1664
 4313POPC   C2B89727   2.009  23.836  18.850  0.2834 -0.1436 -0.2477
 4313POPC   C3B89728   1.991  23.852  18.440 -0.1364  0.0953  0.1276
 4313POPC   C4B89729   1.762  24.001  18.072 -0.1924 -0.2148  0.0932
 4314POPC   NC389730  18.777  19.805  20.079 -0.1966 -0.2459  0.3469
 4314POPC   PO489731  19.047  19.639  19.846  0.0720 -0.2333  0.0257
 4314POPC   GL189732  18.675  19.647  19.557  0.1016  0.2842 -0.0858
 4314POPC   GL289733  18.547  19.893  19.620 -0.2340  0.5336  0.0892
 4314POPC   C1A89734  18.695  19.346  19.226 -0.1286 -0.1054  0.0687
 4314POPC   D2A89735  18.693  18.983  18.957  0.3869  0.0780  0.1566
 4314POPC   C3A89736  19.029  18.839  18.737  0.0271  0.1088  0.2001
 4314POPC   C4A89737  19.374  18.862  18.353 -0.1092  0.3563 -0.1733
 4314POPC   C1B89738  18.358  19.726  19.204 -0.0729  0.2618 -0.1267
 4314POPC   C2B89739  18.362  19.361  18.890  0.0700 -0.0653  0.1637
 4314POPC   C3B89740  18.523  19.248  18.486  0.1843  0.2269  0.4959
 4314POPC   C4B89741  18.439  19.200  18.052  0.2688  0.2320  0.2741
 4315POPC   NC389742  32.100  22.516  19.899 -0.0096  0.0521 -0.1581
 4315POPC   PO489743  31.723  22.408  19.756 -0.1359 -0.0461 -0.0257
 4315POPC   GL189744  31.717  22.438  19.350  0.1526 -0.1027 -0.1089
 4315POPC   GL289745  31.982  22.506  19.265  0.0433  0.1515 -0.0283
 4315POPC   C1A89746  31.669  22.210  18.927 -0.2327  0.0675 -0.2151
 4315POPC   D2A89747  31.709  22.196  18.486  0.0654 -0.0851  0.1202
 4315POPC   C3A89748  31.640  21.858  18.152  0.2135  0.0246  0.0165
 4315POPC   C4A89749  31.840  21.815  17.790  0.0995 -0.0929 -0.0053
 4315POPC   C1B89750  31.977  22.615  18.797  0.2576  0.0068 -0.0255
 4315POPC   C2B89751  32.163  22.560  18.317 -0.2198 -0.3181 -0.1233
 4315POPC   C3B89752  32.354  22.561  17.817 -0.2383 -0.2745 -0.3120
 4315POPC   C4B89753  32.627  22.427  17.476 -0.1239 -0.0941 -0.1180
 4316POPC   NC389754  24.412  18.153  18.303  0.0684 -0.1883 -0.0052
 4316POPC   PO489755  24.263  18.506  18.155 -0.1406  0.1488 -0.1308
 4316POPC   GL189756  24.215  18.191  17.873 -0.1656 -0.0939 -0.2720
 4316POPC   GL289757  23.959  18.069  17.932 -0.1858  0.1854  0.1152
 4316POPC   C1A89758  24.246  18.241  17.447 -0.1275  0.2943  0.0064
 4316POPC   D2A89759  24.101  18.504  17.131 -0.0760 -0.0732  0.0175
 4316POPC   C3A89760  24.002  18.690  16.709 -0.0813 -0.1230 -0.0367
 4316POPC   C4A89761  23.698  18.925  16.448  0.0311  0.1056 -0.0484
 4316POPC   C1B89762  24.196  17.752  17.689  0.0767 -0.3101  0.1064
 4316POPC   C2B89763  24.257  17.395  17.382 -0.0362  0.0971 -0.0413
 4316POPC   C3B89764  24.083  17.221  17.036  0.0081  0.3130  0.0000
 4316POPC   C4B89765  23.980  16.792  16.835  0.0279  0.3205  0.0421
 4317POPC   NC389766  28.264  27.161  20.112 -0.0398  0.4182  0.0308
 4317POPC   PO489767  28.408  26.837  19.971 -0.1049  0.2027  0.1704
 4317POPC   GL189768  28.654  26.990  19.813 -0.1826  0.1300  0.3247
 4317POPC   GL289769  28.861  27.146  19.888 -0.0042 -0.2400 -0.2037
 4317POPC   C1A89770  28.880  26.829  19.448 -0.1258 -0.1023 -0.0626
 4317POPC   D2A89771  29.003  26.671  19.031 -0.0698  0.1240  0.0859
 4317POPC   C3A89772  28.816  26.757  18.609  0.1187  0.1144 -0.3048
 4317POPC   C4A89773  28.687  26.908  18.198 -0.3033  0.1112  0.3891
 4317POPC   C1B89774  28.785  27.350  19.543 -0.0889 -0.0717  0.1344
 4317POPC   C2B89775  28.653  27.288  19.115  0.4435  0.4410  0.2290
 4317POPC   C3B89776  28.695  27.210  18.628 -0.2384  0.3707  0.0339
 4317POPC   C4B89777  28.980  27.358  18.310 -0.4977  0.0789  0.0078
 4318POPC   NC389778  18.323  18.871  19.754  0.1747 -0.0273  0.2044
 4318POPC   PO489779  18.004  18.789  19.959 -0.1443  0.3011 -0.1737
 4318POPC   GL189780  17.859  19.069  19.708  0.1783 -0.0077 -0.1890
 4318POPC   GL289781  17.809  18.855  19.514  0.2247  0.0629 -0.0629
 4318POPC   C1A89782  17.657  19.423  19.380  0.0643 -0.2456 -0.1429
 4318POPC   D2A89783  17.398  19.770  19.345 -0.0718  0.1542  0.1977
 4318POPC   C3A89784  17.387  19.849  18.851 -0.0089 -0.2067  0.1910
 4318POPC   C4A89785  17.168  19.765  18.427 -0.0056  0.0511 -0.1242
 4318POPC   C1B89786  17.628  18.639  19.136  0.0132 -0.1415 -0.0772
 4318POPC   C2B89787  17.653  18.663  18.644 -0.1966  0.1746  0.1216
 4318POPC   C3B89788  17.558  18.903  18.258 -0.2233  0.0882  0.1202
 4318POPC   C4B89789  17.354  19.308  18.225 -0.3899  0.0839  0.3351
 4319POPC   NC389790  22.459  28.503  20.815  0.4727 -0.1183  0.1316
 4319POPC   PO489791  22.404  28.163  20.600 -0.1663 -0.1266 -0.2841
 4319POPC   GL189792  22.477  28.122  20.243  0.0444 -0.2322  0.1478
 4319POPC   GL289793  22.242  27.982  20.159 -0.0094 -0.1218  0.0147
 4319POPC   C1A89794  22.474  28.366  19.833  0.0323  0.1859  0.0555
 4319POPC   D2A89795  22.390  28.353  19.359 -0.1887  0.0617  0.0032
 4319POPC   C3A89796  22.281  27.970  19.103  0.0658  0.0510 -0.1047
 4319POPC   C4A89797  21.917  27.863  18.934  0.0406 -0.0685  0.0341
 4319POPC   C1B89798  21.947  28.168  19.969 -0.0260 -0.2819 -0.1157
 4319POPC   C2B89799  21.586  28.330  19.741 -0.4958  0.0712 -0.0529
 4319POPC   C3B89800  21.151  28.400  19.574 -0.0042  0.0933 -0.2948
 4319POPC   C4B89801  20.873  28.567  19.250  0.0952 -0.3089  0.1163
 4320POPC   NC389802  27.309  22.431  15.116  0.1833  0.0676  0.6015
 4320POPC   PO489803  27.663  22.252  14.987  0.1685  0.1382  0.1774
 4320POPC   GL189804  28.031  22.238  14.959  0.3459 -0.1956 -0.0078
 4320POPC   GL289805  28.114  21.982  15.049 -0.0666 -0.1397  0.2799
 4320POPC   C1A89806  28.436  22.395  14.784  0.5182  0.1290  0.1179
 4320POPC   D2A89807  28.726  22.481  14.431  0.2463  0.0523 -0.1557
 4320POPC   C3A89808  28.627  22.426  14.017 -0.0543  0.1245 -0.1405
 4320POPC   C4A89809  28.590  22.860  13.892 -0.0301 -0.0615 -0.0210
 4320POPC   C1B89810  28.546  21.862  14.820 -0.1085  0.0807  0.0212
 4320POPC   C2B89811  28.983  21.977  14.666  0.0772 -0.0350 -0.1350
 4320POPC   C3B89812  29.428  22.034  14.595 -0.0407 -0.1721 -0.3621
 4320POPC   C4B89813  29.825  21.890  14.540 -0.0639 -0.1706  0.0367
 4321POPC   NC389814  23.355  24.034  18.442  0.1834 -0.3376  0.4799
 4321POPC   PO489815  23.250  24.147  18.819 -0.1490  0.2095 -0.2936
 4321POPC   GL189816  22.875  24.343  18.764 -0.0145 -0.2017  0.0182
 4321POPC   GL289817  22.974  24.505  18.541  0.1508 -0.2230  0.1193
 4321POPC   C1A89818  22.622  24.199  18.380  0.0721  0.4318  0.0270
 4321POPC   D2A89819  22.264  24.373  18.139 -0.0049  0.2707 -0.1454
 4321POPC   C3A89820  22.011  24.025  17.982 -0.1149  0.0824  0.1845
 4321POPC   C4A89821  21.583  24.044  17.716 -0.1668 -0.1351 -0.3155
 4321POPC   C1B89822  22.989  24.431  18.076  0.0356 -0.2459 -0.2514
 4321POPC   C2B89823  22.814  24.622  17.683 -0.3444 -0.1913 -0.1208
 4321POPC   C3B89824  22.687  24.955  17.376  0.2358  0.2877  0.1058
 4321POPC   C4B89825  22.736  25.309  17.060 -0.2085  0.3438  0.2541
 4322POPC   NC389826  26.171  23.060  13.710 -0.3162  0.1617 -0.2867
 4322POPC   PO489827  26.012  23.368  13.840  0.0802  0.1316  0.0979
 4322POPC   GL189828  25.666  23.554  13.758  0.2481 -0.0937  0.1034
 4322POPC   GL289829  25.483  23.425  13.743  0.3494  0.1252  0.1203
 4322POPC   C1A89830  25.654  23.901  13.463 -0.0056  0.3563 -0.0995
 4322POPC   D2A89831  25.953  24.113  13.244 -0.1861 -0.1138  0.2452
 4322POPC   C3A89832  26.226  24.483  13.393  0.4084 -0.1361  0.1154
 4322POPC   C4A89833  26.224  24.922  13.165  0.0426 -0.0914 -0.3987
 4322POPC   C1B89834  25.206  23.741  13.465  0.1330  0.2899 -0.2743
 4322POPC   C2B89835  25.082  24.010  13.089  0.0122  0.1762  0.1396
 4322POPC   C3B89836  24.964  24.431  12.863 -0.0444 -0.0653 -0.0402
 4322POPC   C4B89837  25.166  24.563  12.469  0.0710 -0.0860  0.2235
 4323POPC   NC389838  19.124  25.659  20.876  0.0741 -0.0564 -0.0687
 4323POPC   PO489839  19.125  25.364  20.581  0.0744 -0.1374 -0.1746
 4323POPC   GL189840  19.209  25.600  20.377 -0.1162 -0.0015 -0.0174
 4323POPC   GL289841  19.392  25.465  20.144 -0.4893  0.1138  0.1315
 4323POPC   C1A89842  19.094  25.886  20.099 -0.1726  0.0508  0.1220
 4323POPC   D2A89843  19.077  26.265  19.856 -0.1537 -0.1194 -0.2827
 4323POPC   C3A89844  18.921  26.316  19.427 -0.0397 -0.0314  0.1677
 4323POPC   C4A89845  18.809  26.556  19.011  0.0338 -0.2937  0.1910
 4323POPC   C1B89846  19.381  25.484  19.697  0.0166  0.3900 -0.2828
 4323POPC   C2B89847  19.252  25.326  19.316 -0.3015  0.0058 -0.1169
 4323POPC   C3B89848  19.316  25.101  18.923 -0.2007  0.0896 -0.1056
 4323POPC   C4B89849  19.046  25.014  18.545 -0.1534  0.2021  0.1310
 4324POPC   NC389850  18.442  18.906  20.267 -0.0892  0.1493  0.1620
 4324POPC   PO489851  18.765  19.124  20.310  0.0247 -0.1251 -0.1916
 4324POPC   GL189852  18.582  19.367  19.987  0.0131 -0.0954 -0.1669
 4324POPC   GL289853  18.803  19.163  19.845 -0.0298 -0.0786 -0.2041
 4324POPC   C1A89854  18.298  19.399  19.590  0.3304 -0.0355  0.2733
 4324POPC   D2A89855  18.111  19.161  19.265 -0.0411 -0.3321  0.0226
 4324POPC   C3A89856  17.789  19.163  18.938 -0.2435 -0.4340 -0.0504
 4324POPC   C4A89857  17.583  19.445  18.642  0.1002  0.0083  0.1180
 4324POPC   C1B89858  18.973  19.053  19.458  0.1332  0.2940  0.2012
 4324POPC   C2B89859  19.140  18.763  19.218 -0.4347  0.0230  0.2516
 4324POPC   C3B89860  19.513  18.691  18.915 -0.0761  0.1995  0.0156
 4324POPC   C4B89861  19.819  18.670  18.570  0.1592  0.2927  0.2020
 4325POPC   NC389862   0.228  28.020  20.613 -0.1289 -0.3597 -0.2747
 4325POPC   PO489863   0.434  27.699  20.574  0.0035  0.0809  0.1018
 4325POPC   GL189864   0.593  27.598  20.289 -0.1979  0.1613  0.1384
 4325POPC   GL289865   0.571  27.817  20.080 -0.2111 -0.0611 -0.1069
 4325POPC   C1A89866   0.683  27.263  19.992 -0.0909  0.1340 -0.0564
 4325POPC   D2A89867   0.884  26.811  19.807  0.4626  0.1327  0.0473
 4325POPC   C3A89868   1.276  26.776  19.783 -0.2886 -0.2126  0.0234
 4325POPC   C4A89869   1.726  26.594  19.798  0.0582  0.1995  0.1911
 4325POPC   C1B89870   0.729  27.697  19.625 -0.2672 -0.0463 -0.2412
 4325POPC   C2B89871   0.838  27.655  19.209  0.1492  0.1275 -0.4083
 4325POPC   C3B89872   0.767  27.955  18.900 -0.0378  0.1021  0.3155
 4325POPC   C4B89873   0.542  28.169  18.492 -0.2538  0.2021 -0.0927
 4326POPC   NC389874  16.459  24.424  19.943 -0.0497  0.1184 -0.2258
 4326POPC   PO489875  16.227  24.175  20.101 -0.1835  0.0496 -0.1774
 4326POPC   GL189876  16.572  23.878  19.949 -0.0886  0.4168  0.4762
 4326POPC   GL289877  16.511  23.785  19.633  0.5382  0.1315 -0.1826
 4326POPC   C1A89878  16.896  23.512  19.773 -0.5167 -0.1625  0.1125
 4326POPC   D2A89879  17.316  23.498  19.553  0.0810  0.1915  0.1212
 4326POPC   C3A89880  17.404  23.813  19.238  0.0317 -0.1893 -0.1485
 4326POPC   C4A89881  17.200  23.921  18.838  0.0035  0.0254  0.2733
 4326POPC   C1B89882  16.840  23.751  19.327 -0.3669  0.0342  0.1814
 4326POPC   C2B89883  16.768  23.653  18.915 -0.1969  0.1888  0.0693
 4326POPC   C3B89884  16.861  23.599  18.478 -0.0705 -0.0698  0.2607
 4326POPC   C4B89885  17.048  23.865  18.212  0.2185  0.4388 -0.0520
 4327POPC   NC389886  30.588  25.481  19.899 -0.1250 -0.0304 -0.2342
 4327POPC   PO489887  30.266  25.457  19.718 -0.0081  0.0719  0.1688
 4327POPC   GL189888  30.501  25.694  19.450 -0.0933 -0.1783 -0.3625
 4327POPC   GL289889  30.564  26.013  19.552 -0.0843 -0.0961  0.2028
 4327POPC   C1A89890  30.404  25.775  19.003  0.1207 -0.2763 -0.2235
 4327POPC   D2A89891  30.484  25.887  18.540  0.0185  0.2306 -0.1502
 4327POPC   C3A89892  30.903  26.045  18.350  0.1007 -0.1323 -0.1334
 4327POPC   C4A89893  31.340  26.096  18.120  0.3782  0.2219 -0.2099
 4327POPC   C1B89894  30.375  26.303  19.215  0.0671 -0.1116 -0.0921
 4327POPC   C2B89895  30.235  26.289  18.789  0.3445 -0.1163  0.1760
 4327POPC   C3B89896  30.433  26.387  18.376  0.0641 -0.0432 -0.2431
 4327POPC   C4B89897  30.732  26.494  18.047  0.1288 -0.0822 -0.0724
 4328POPC   NC389898  25.879  21.133  14.235 -0.1862 -0.0419  0.0135
 4328POPC   PO489899  25.997  20.959  14.543  0.0286  0.3651 -0.0701
 4328POPC   GL189900  25.906  20.643  14.277 -0.1460 -0.0048 -0.1001
 4328POPC   GL289901  25.783  20.633  14.029  0.0252  0.3247  0.0519
 4328POPC   C1A89902  26.268  20.331  14.170  0.2211 -0.1487  0.5781
 4328POPC   D2A89903  26.446  20.012  13.899 -0.1269  0.2023 -0.0623
 4328POPC   C3A89904  26.063  19.858  13.722  0.2481 -0.3227 -0.1341
 4328POPC   C4A89905  25.639  19.966  13.615 -0.0836  0.3863  0.0452
 4328POPC   C1B89906  25.676  20.562  13.563 -0.1197  0.1322 -0.0315
 4328POPC   C2B89907  25.785  20.295  13.214 -0.0926 -0.0787 -0.0281
 4328POPC   C3B89908  25.785  20.073  12.793  0.0608 -0.1838  0.0678
 4328POPC   C4B89909  26.026  20.104  12.370  0.1503 -0.0728  0.0659
 4329POPC   NC389910  20.919  26.331  20.403  0.0163 -0.1956 -0.0953
 4329POPC   PO489911  21.029  25.972  20.376 -0.3992 -0.1938  0.0505
 4329POPC   GL189912  21.041  26.084  20.026 -0.1068  0.0062  0.1064
 4329POPC   GL289913  21.354  26.168  20.015 -0.3224 -0.1639 -0.3343
 4329POPC   C1A89914  21.179  26.154  19.589  0.2002 -0.3742  0.1777
 4329POPC   D2A89915  21.017  25.910  19.254 -0.2304 -0.0849  0.0175
 4329POPC   C3A89916  21.031  26.012  18.822  0.3894  0.0694 -0.3060
 4329POPC   C4A89917  21.284  26.099  18.492  0.2348  0.5950  0.0867
 4329POPC   C1B89918  21.658  26.127  19.720 -0.2516  0.2471 -0.0264
 4329POPC   C2B89919  21.696  26.146  19.280 -0.1543  0.0256  0.0914
 4329POPC   C3B89920  21.401  26.356  19.037  0.1986 -0.1297 -0.1150
 4329POPC   C4B89921  21.115  26.525  18.719  0.0160 -0.2656 -0.0476
 4330POPC   NC389922  29.279  23.807  18.058  0.0145  0.0017  0.3137
 4330POPC   PO489923  29.189  23.913  18.421 -0.2641  0.1091 -0.1422
 4330POPC   GL189924  29.071  24.238  18.222 -0.1035 -0.5441  0.2753
 4330POPC   GL289925  29.241  24.490  18.181 -0.0839  0.0606  0.1785
 4330POPC   C1A89926  29.003  24.296  17.735  0.3703 -0.0630 -0.0966
 4330POPC   D2A89927  29.117  24.345  17.302  0.2333  0.0826 -0.2577
 4330POPC   C3A89928  29.113  23.925  17.115  0.3715  0.2648 -0.0920
 4330POPC   C4A89929  29.095  23.463  17.297  0.2978 -0.2764  0.0999
 4330POPC   C1B89930  29.309  24.673  17.737  0.2150  0.1468 -0.0848
 4330POPC   C2B89931  29.370  24.843  17.303  0.0384 -0.0913  0.0845
 4330POPC   C3B89932  29.315  25.085  16.901 -0.0574 -0.0007 -0.1270
 4330POPC   C4B89933  29.158  25.402  16.601 -0.4134  0.0088 -0.0325
 4331POPC   NC389934  28.147  31.139  19.942 -0.1045 -0.0842 -0.1731
 4331POPC   PO489935  28.292  31.022  20.283 -0.0049 -0.3064 -0.0146
 4331POPC   GL189936  28.677  31.072  20.043  0.1629 -0.1408 -0.2642
 4331POPC   GL289937  28.557  31.238  19.763 -0.1036 -0.0795 -0.0246
 4331POPC   C1A89938  28.985  30.867  19.753  0.1291  0.0811 -0.0570
 4331POPC   D2A89939  29.430  30.703  19.668 -0.3313  0.0112 -0.1789
 4331POPC   C3A89940  29.722  30.745  19.314  0.1366 -0.1280  0.1682
 4331POPC   C4A89941  29.925  31.049  18.958 -0.0670  0.0355 -0.4445
 4331POPC   C1B89942  28.780  31.154  19.400  0.3797 -0.2802  0.1560
 4331POPC   C2B89943  28.899  31.088  18.951 -0.1243 -0.0260 -0.1548
 4331POPC   C3B89944  28.826  30.979  18.559  0.0247 -0.1738  0.2218
 4331POPC   C4B89945  28.944  30.735  18.203  0.3740  0.1138 -0.0166
 4332POPC   NC389946  30.721  26.784  20.267  0.2177  0.0106  0.0606
 4332POPC   PO489947  30.966  26.767  20.533  0.1648  0.1983 -0.0295
 4332POPC   GL189948  31.154  26.752  20.143  0.0341  0.0918 -0.0845
 4332POPC   GL289949  30.999  26.971  19.902 -0.0297  0.1573  0.1164
 4332POPC   C1A89950  31.366  26.645  19.698  0.0446 -0.0193 -0.2098
 4332POPC   D2A89951  31.521  26.781  19.286 -0.0104  0.2770  0.1591
 4332POPC   C3A89952  31.755  27.137  19.399 -0.1116 -0.0577  0.1576
 4332POPC   C4A89953  31.618  27.562  19.598  0.0209 -0.0043  0.1641
 4332POPC   C1B89954  31.254  27.147  19.527 -0.0216 -0.3627  0.0301
 4332POPC   C2B89955  31.343  27.241  19.084 -0.0937 -0.3522  0.3228
 4332POPC   C3B89956  31.567  27.520  18.821  0.0843 -0.1507  0.0420
 4332POPC   C4B89957  31.893  27.722  18.980 -0.0462 -0.1616  0.0288
 4333POPC   NC389958  29.514  19.389  19.049  0.0603  0.1879 -0.4159
 4333POPC   PO489959  29.813  19.447  18.891 -0.1833 -0.0853  0.2060
 4333POPC   GL189960  29.991  19.410  18.501  0.0480  0.1607  0.2855
 4333POPC   GL289961  30.204  19.606  18.575 -0.0265  0.1286 -0.2623
 4333POPC   C1A89962  29.845  19.552  18.090 -0.1094 -0.0234 -0.0991
 4333POPC   D2A89963  29.772  19.748  17.742  0.1317 -0.1982  0.1245
 4333POPC   C3A89964  30.093  19.610  17.401  0.6273  0.1620 -0.3024
 4333POPC   C4A89965  30.444  19.489  17.076 -0.2389 -0.1583  0.1001
 4333POPC   C1B89966  30.540  19.646  18.363 -0.1014  0.5423  0.0889
 4333POPC   C2B89967  30.843  19.679  18.048  0.0230 -0.1077 -0.1342
 4333POPC   C3B89968  30.964  19.647  17.589  0.2638 -0.3601 -0.3628
 4333POPC   C4B89969  30.915  19.637  17.222 -0.2112  0.1495 -0.0890
 4334POPC   NC389970  29.937  23.120  18.033  0.2783 -0.0734 -0.1199
 4334POPC   PO489971  29.616  23.032  17.903  0.1665  0.3184  0.3707
 4334POPC   GL189972  29.795  23.088  17.542 -0.0630 -0.0044  0.0480
 4334POPC   GL289973  29.737  22.867  17.404  0.0425 -0.2206 -0.0054
 4334POPC   C1A89974  29.854  23.334  17.170  0.1774 -0.1334  0.0309
 4334POPC   D2A89975  29.845  23.566  16.794 -0.0751 -0.0375  0.1796
 4334POPC   C3A89976  30.078  23.898  16.657 -0.0304 -0.2624  0.1760
 4334POPC   C4A89977  30.482  24.146  16.685 -0.2315  0.1487 -0.0844
 4334POPC   C1B89978  30.101  22.832  17.156 -0.0107  0.0237  0.0939
 4334POPC   C2B89979  30.560  22.814  17.020  0.0242  0.3511 -0.2261
 4334POPC   C3B89980  31.071  22.883  17.004 -0.2092 -0.1615 -0.1654
 4334POPC   C4B89981  31.442  23.014  17.193  0.0836 -0.1703 -0.2402
 4335POPC   NC389982  27.577  16.941  19.861 -0.4611  0.0512 -0.0259
 4335POPC   PO489983  27.785  16.822  19.562  0.0635  0.1692 -0.2963
 4335POPC   GL189984  27.997  16.743  19.193  0.3606 -0.0759  0.1160
 4335POPC   GL289985  27.770  16.768  19.024 -0.0043  0.0825  0.0321
 4335POPC   C1A89986  28.092  16.440  18.850 -0.4676 -0.0620 -0.2704
 4335POPC   D2A89987  28.178  16.117  18.562 -0.3148  0.1903  0.2013
 4335POPC   C3A89988  28.331  16.006  18.114  0.0946 -0.0456  0.0678
 4335POPC   C4A89989  28.662  16.047  17.825  0.2890 -0.0847 -0.1609
 4335POPC   C1B89990  27.895  16.893  18.608 -0.2043  0.0936 -0.1011
 4335POPC   C2B89991  28.101  17.067  18.254  0.4393 -0.0585 -0.0997
 4335POPC   C3B89992  28.218  17.070  17.800 -0.1695  0.1791 -0.0892
 4335POPC   C4B89993  28.534  16.902  17.479  0.2685  0.1599 -0.0683
 4336POPC   NC389994  18.734  31.609  21.141 -0.1248 -0.1597  0.0008
 4336POPC   PO489995  18.479  31.416  20.910 -0.1913 -0.0733  0.1760
 4336POPC   GL189996  18.622  31.105  20.641  0.0136 -0.0511  0.4269
 4336POPC   GL289997  18.592  31.137  20.381 -0.0003  0.2373  0.2787
 4336POPC   C1A89998  18.384  30.726  20.543  0.2780 -0.2510  0.1348
 4336POPC   D2A89999  18.334  30.650  20.107  0.0728 -0.1019  0.1462
 4336POPC   C3A90000  18.558  30.859  19.775 -0.1735 -0.0336 -0.3130
 4336POPC   C4A90001  18.877  30.955  19.475  0.2018 -0.1881  0.2224
 4336POPC   C1B90002  18.277  31.131  20.097  0.0645  0.0932  0.2729
 4336POPC   C2B90003  18.188  31.287  19.691 -0.0786  0.0878  0.3489
 4336POPC   C3B90004  17.846  31.457  19.351  0.0214  0.2713  0.1140
 4336POPC   C4B90005  17.598  31.426  18.972 -0.1981  0.1336  0.2615
 4337POPC   NC390006  23.710  25.569  19.425 -0.1294 -0.0313 -0.0385
 4337POPC   PO490007  24.045  25.669  19.473  0.0964 -0.0840  0.0132
 4337POPC   GL190008  23.984  25.853  19.130  0.1725  0.0237 -0.0940
 4337POPC   GL290009  24.236  25.773  18.982 -0.1498 -0.4278  0.1228
 4337POPC   C1A90010  23.709  26.159  18.967 -0.0215  0.0573 -0.3225
 4337POPC   D2A90011  23.617  26.398  18.598  0.0390  0.2357  0.0410
 4337POPC   C3A90012  23.531  26.068  18.306 -0.2494  0.0028 -0.0181
 4337POPC   C4A90013  23.514  25.785  17.947  0.0210 -0.0709 -0.0301
 4337POPC   C1B90014  23.995  26.014  18.613  0.0567  0.0146 -0.1507
 4337POPC   C2B90015  24.009  26.294  18.309  0.2648 -0.2959 -0.1896
 4337POPC   C3B90016  23.714  26.467  18.003  0.0236  0.1457  0.0257
 4337POPC   C4B90017  23.318  26.557  18.124 -0.0017 -0.2714  0.1606
 4338POPC   NC390018  25.295  17.147  18.643  0.1324 -0.1119 -0.1879
 4338POPC   PO490019  25.622  17.012  18.746 -0.4101  0.0120  0.2091
 4338POPC   GL190020  25.602  16.832  18.404 -0.4991  0.0814  0.2608
 4338POPC   GL290021  25.827  16.623  18.302 -0.0325 -0.1365 -0.2682
 4338POPC   C1A90022  25.244  16.737  18.151 -0.2253  0.2339 -0.0024
 4338POPC   D2A90023  25.011  16.859  17.754 -0.2262 -0.0376  0.0750
 4338POPC   C3A90024  24.930  16.799  17.304  0.0347  0.2398  0.0844
 4338POPC   C4A90025  24.933  16.741  16.895  0.0924 -0.2533  0.0246
 4338POPC   C1B90026  25.708  16.415  17.942 -0.2563  0.0079  0.1994
 4338POPC   C2B90027  25.534  16.128  17.595  0.1333 -0.1108 -0.1361
 4338POPC   C3B90028  25.609  15.692  17.406  0.1222 -0.2530  0.4895
 4338POPC   C4B90029  25.365  15.256  17.293 -0.1693  0.2036  0.2570
 4339POPC   NC390030  21.151  24.531  20.376 -0.3253 -0.3846  0.2581
 4339POPC   PO490031  21.488  24.558  20.154 -0.1564  0.2008  0.3945
 4339POPC   GL190032  21.321  24.357  19.781  0.1175 -0.2221 -0.1640
 4339POPC   GL290033  21.172  24.542  19.640 -0.0032  0.0263 -0.1450
 4339POPC   C1A90034  21.032  24.030  19.589  0.1236  0.0603  0.0481
 4339POPC   D2A90035  20.783  23.857  19.255  0.0822  0.1952  0.4496
 4339POPC   C3A90036  20.709  24.036  18.844  0.1141  0.0467 -0.0096
 4339POPC   C4A90037  20.663  24.422  18.607  0.1345 -0.0383  0.0818
 4339POPC   C1B90038  21.307  24.802  19.285 -0.0427 -0.3597  0.2236
 4339POPC   C2B90039  21.221  24.998  18.849  0.0830 -0.0755 -0.0647
 4339POPC   C3B90040  20.816  24.892  18.569  0.1822 -0.0043 -0.3091
 4339POPC   C4B90041  20.440  24.866  18.306  0.0942  0.1245 -0.1763
 4340POPC   NC390042  23.719  24.872  19.273  0.1049  0.1272 -0.1264
 4340POPC   PO490043  23.471  25.128  19.370 -0.1847  0.0375  0.0762
 4340POPC   GL190044  23.603  25.363  18.976 -0.2223  0.2659  0.1230
 4340POPC   GL290045  23.552  25.607  18.912 -0.0242 -0.1473  0.1046
 4340POPC   C1A90046  23.428  25.296  18.541 -0.2359  0.0385  0.0141
 4340POPC   D2A90047  23.488  25.167  18.063 -0.0188 -0.0126  0.1330
 4340POPC   C3A90048  23.845  24.944  17.836  0.0375  0.4350  0.1341
 4340POPC   C4A90049  24.154  24.600  17.800  0.0493 -0.0990 -0.0243
 4340POPC   C1B90050  23.792  25.609  18.435  0.0776 -0.0312  0.1309
 4340POPC   C2B90051  23.974  25.483  18.035  0.0234  0.0173  0.1313
 4340POPC   C3B90052  23.855  25.493  17.592  0.2375 -0.0079  0.1602
 4340POPC   C4B90053  23.662  25.475  17.123 -0.0757 -0.1275 -0.0849
 4341POPC   NC390054  30.514  19.816  18.894 -0.0332  0.2338 -0.2013
 4341POPC   PO490055  30.430  20.205  18.864 -0.0320 -0.0458 -0.0462
 4341POPC   GL190056  30.357  20.213  18.480  0.1679  0.1971  0.1766
 4341POPC   GL290057  30.676  20.159  18.379  0.0184  0.2066  0.2005
 4341POPC   C1A90058  30.185  19.956  18.151 -0.0908  0.0030  0.2295
 4341POPC   D2A90059  30.382  19.673  17.858  0.4321 -0.1267 -0.0398
 4341POPC   C3A90060  30.537  19.370  17.518 -0.0513 -0.3315  0.0045
 4341POPC   C4A90061  30.907  19.123  17.561 -0.2578 -0.2306 -0.1747
 4341POPC   C1B90062  30.661  20.151  17.881 -0.1881 -0.0840 -0.4071
 4341POPC   C2B90063  30.963  20.131  17.561 -0.0009 -0.1208 -0.4337
 4341POPC   C3B90064  31.019  20.296  17.152  0.1368 -0.0747 -0.0589
 4341POPC   C4B90065  30.780  20.643  16.961  0.1584  0.0725 -0.1423
 4342POPC   NC390066  26.389  16.255  19.142  0.0810  0.0930 -0.2299
 4342POPC   PO490067  26.571  16.200  19.503  0.0612  0.1851  0.1030
 4342POPC   GL190068  26.864  16.170  19.286 -0.0539  0.1213 -0.1099
 4342POPC   GL290069  26.813  15.949  19.060 -0.2396 -0.2133 -0.1758
 4342POPC   C1A90070  26.853  16.345  18.824 -0.2376  0.2485  0.2419
 4342POPC   D2A90071  27.115  16.349  18.500  0.0255  0.0937  0.2380
 4342POPC   C3A90072  27.265  15.997  18.301 -0.2245  0.2132  0.2385
 4342POPC   C4A90073  27.429  15.690  17.949 -0.4685 -0.0831 -0.2397
 4342POPC   C1B90074  26.962  15.821  18.646 -0.0423 -0.1618  0.2411
 4342POPC   C2B90075  27.187  15.499  18.377 -0.0839  0.2207  0.0921
 4342POPC   C3B90076  27.290  15.212  18.071  0.3394  0.0512 -0.1868
 4342POPC   C4B90077  27.222  15.362  17.630 -0.0627 -0.3465 -0.0770
 4343POPC   NC390078  25.146  20.727  15.511  0.2696  0.1110 -0.0316
 4343POPC   PO490079  25.052  20.794  15.896 -0.1218 -0.0187  0.1749
 4343POPC   GL190080  24.687  20.706  15.723 -0.0283  0.1100 -0.0848
 4343POPC   GL290081  24.525  20.971  15.910  0.1145  0.1041  0.0868
 4343POPC   C1A90082  24.399  20.364  15.818 -0.1475 -0.0588 -0.1195
 4343POPC   D2A90083  24.169  19.979  15.909 -0.0474 -0.1648 -0.1675
 4343POPC   C3A90084  24.141  19.871  15.463  0.2332 -0.2030 -0.1256
 4343POPC   C4A90085  24.425  19.819  15.120 -0.1771 -0.0190  0.1319
 4343POPC   C1B90086  24.252  20.788  15.654  0.2509  0.1494 -0.4539
 4343POPC   C2B90087  24.170  20.408  15.390 -0.0190  0.0103 -0.0393
 4343POPC   C3B90088  24.040  20.235  15.036  0.0534 -0.1561 -0.1863
 4343POPC   C4B90089  24.172  19.869  14.735  0.1673 -0.1632  0.1824
 4344POPC   NC390090  27.180  23.347  11.704  0.1285 -0.0047 -0.2380
 4344POPC   PO490091  27.275  23.353  11.325 -0.0862 -0.0758 -0.0577
 4344POPC   GL190092  27.473  23.661  11.495 -0.1654 -0.3486 -0.1930
 4344POPC   GL290093  27.689  23.672  11.301  0.2496  0.2413  0.3348
 4344POPC   C1A90094  27.572  24.104  11.386  0.1804 -0.3253 -0.4096
 4344POPC   D2A90095  27.962  24.398  11.430 -0.0605  0.3241  0.3045
 4344POPC   C3A90096  27.922  24.772  11.116  0.0152 -0.1528  0.0554
 4344POPC   C4A90097  28.139  25.149  11.333  0.0229  0.0642  0.0733
 4344POPC   C1B90098  28.068  23.852  11.400  0.3881  0.0396  0.0019
 4344POPC   C2B90099  28.291  24.083  11.670  0.2247  0.0080 -0.2383
 4344POPC   C3B90100  28.539  24.391  11.929  0.2658 -0.0212 -0.1384
 4344POPC   C4B90101  28.902  24.523  12.184  0.2199 -0.0063 -0.0249
 4345POPC   NC390102  22.636  30.330  20.533 -0.2787  0.0719  0.1130
 4345POPC   PO490103  22.252  30.347  20.475  0.1036  0.3745  0.0605
 4345POPC   GL190104  22.097  30.561  20.275  0.1841  0.0450  0.2671
 4345POPC   GL290105  22.073  30.884  20.263 -0.2838 -0.1078 -0.0271
 4345POPC   C1A90106  21.764  30.583  19.947 -0.0218 -0.2064 -0.2831
 4345POPC   D2A90107  21.858  30.633  19.468  0.3869 -0.0864 -0.0518
 4345POPC   C3A90108  21.980  30.949  19.192  0.0051  0.0414 -0.1289
 4345POPC   C4A90109  22.176  31.055  18.752 -0.0341  0.4365 -0.0845
 4345POPC   C1B90110  22.159  30.770  19.823 -0.1821  0.0663 -0.1035
 4345POPC   C2B90111  22.395  30.675  19.410  0.0176  0.1022  0.1102
 4345POPC   C3B90112  22.301  30.608  18.934 -0.4830 -0.0056 -0.2206
 4345POPC   C4B90113  22.611  30.701  18.562 -0.0906 -0.2080  0.0296
 4346POPC   NC390114  27.361  22.361  13.443 -0.1860 -0.1329  0.0598
 4346POPC   PO490115  27.380  22.671  13.693 -0.0501  0.0313 -0.1180
 4346POPC   GL190116  27.787  22.894  13.672 -0.1019  0.0350  0.1843
 4346POPC   GL290117  27.857  22.621  13.478  0.1672  0.0075  0.0760
 4346POPC   C1A90118  27.776  23.341  13.623  0.1636 -0.0820 -0.0491
 4346POPC   D2A90119  27.767  23.665  13.300 -0.1536  0.4114  0.0413
 4346POPC   C3A90120  27.858  23.485  12.882 -0.3423  0.0845  0.0992
 4346POPC   C4A90121  28.253  23.442  12.612  0.1264  0.0139 -0.0566
 4346POPC   C1B90122  28.237  22.876  13.406 -0.0716 -0.0821 -0.0105
 4346POPC   C2B90123  28.668  23.018  13.440 -0.2240 -0.0713 -0.2986
 4346POPC   C3B90124  28.767  23.364  13.763 -0.1646  0.2456 -0.1851
 4346POPC   C4B90125  29.178  23.548  13.771  0.1668 -0.1191  0.2222
 4347POPC   NC390126  20.788  32.530  20.083  0.2077 -0.0025 -0.2026
 4347POPC   PO490127  20.702  32.219  20.276 -0.1257 -0.3017  0.0277
 4347POPC   GL190128  20.512  32.026  19.930  0.0846 -0.1472 -0.5960
 4347POPC   GL290129  20.763  31.997  19.774 -0.2766 -0.2104  0.3155
 4347POPC   C1A90130  20.322  32.023  19.521 -0.0182  0.1564 -0.2283
 4347POPC   D2A90131  19.859  31.930  19.533  0.3298 -0.1490 -0.0872
 4347POPC   C3A90132  19.634  31.540  19.252 -0.0598 -0.1853  0.0377
 4347POPC   C4A90133  19.522  31.445  18.893  0.2011  0.1369 -0.4159
 4347POPC   C1B90134  21.190  31.989  19.507 -0.1526 -0.2640 -0.4569
 4347POPC   C2B90135  21.544  32.098  19.184 -0.1225 -0.3438 -0.4145
 4347POPC   C3B90136  21.698  31.896  18.778 -0.1170  0.1164  0.0711
 4347POPC   C4B90137  21.506  31.664  18.513 -0.2721 -0.1678 -0.2101
 4348POPC   NC390138  28.523  26.150  19.866 -0.3726 -0.3191  0.0173
 4348POPC   PO490139  28.620  25.977  19.546  0.4683  0.2413  0.1539
 4348POPC   GL190140  28.654  26.130  19.239  0.1079  0.1237  0.2368
 4348POPC   GL290141  28.828  26.130  19.023  0.0789 -0.1731  0.0453
 4348POPC   C1A90142  28.508  26.514  19.067 -0.0458  0.2895  0.0157
 4348POPC   D2A90143  28.354  26.850  18.798  0.1431  0.1330  0.0260
 4348POPC   C3A90144  28.197  26.865  18.372  0.1053 -0.0861 -0.2550
 4348POPC   C4A90145  28.136  26.690  17.987  0.1382  0.4406 -0.0715
 4348POPC   C1B90146  28.795  26.278  18.619  0.1304  0.2020 -0.0091
 4348POPC   C2B90147  28.785  26.392  18.188  0.1794 -0.0297 -0.0893
 4348POPC   C3B90148  28.894  26.650  17.816 -0.1273 -0.0546 -0.0802
 4348POPC   C4B90149  29.196  26.989  17.848 -0.0298 -0.1231  0.1755
 4349POPC   NC390150  20.415  20.342  19.514 -0.2594  0.2081 -0.0665
 4349POPC   PO490151  20.493  20.560  19.183 -0.1181 -0.0543 -0.2010
 4349POPC   GL190152  20.459  20.319  18.894 -0.0461 -0.2329  0.2047
 4349POPC   GL290153  20.635  20.553  18.686 -0.0274  0.0965 -0.5922
 4349POPC   C1A90154  20.250  20.210  18.505 -0.2284 -0.1541 -0.2268
 4349POPC   D2A90155  20.149  20.247  18.072  0.0249  0.1494  0.0371
 4349POPC   C3A90156  20.010  20.033  17.678 -0.0381 -0.0284 -0.1558
 4349POPC   C4A90157  20.007  19.955  17.216  0.1083  0.0826 -0.0851
 4349POPC   C1B90158  20.542  20.610  18.239  0.0068  0.2855  0.3264
 4349POPC   C2B90159  20.134  20.832  18.057 -0.0960  0.1790 -0.1062
 4349POPC   C3B90160  19.743  21.070  17.910  0.0032  0.2905 -0.0861
 4349POPC   C4B90161  19.420  21.391  18.000  0.0450 -0.1639 -0.0556
 4350POPC   NC390162  18.717  27.095  20.246 -0.1571 -0.3133 -0.0116
 4350POPC   PO490163  18.384  27.278  20.309  0.3316 -0.3573 -0.0228
 4350POPC   GL190164  18.599  27.459  20.006 -0.1554  0.1236 -0.0244
 4350POPC   GL290165  18.786  27.609  20.134  0.0525  0.0825 -0.5712
 4350POPC   C1A90166  18.699  27.300  19.557  0.2564 -0.0029  0.0994
 4350POPC   D2A90167  18.788  27.482  19.180  0.0752 -0.3589  0.0032
 4350POPC   C3A90168  18.763  27.909  18.906  0.1487 -0.1998 -0.1191
 4350POPC   C4A90169  18.515  28.153  18.646 -0.5278 -0.0795 -0.2613
 4350POPC   C1B90170  18.889  27.721  19.715  0.0387  0.2981 -0.2284
 4350POPC   C2B90171  19.178  27.756  19.375  0.0421 -0.0811  0.2068
 4350POPC   C3B90172  19.597  27.786  19.183  0.2138 -0.0799 -0.2046
 4350POPC   C4B90173  19.732  28.008  18.809 -0.1581 -0.2322 -0.3455
 4351POPC   NC390174  25.299  27.057  20.034 -0.2520 -0.3082 -0.0128
 4351POPC   PO490175  24.891  26.919  20.054 -0.0263 -0.1966  0.1383
 4351POPC   GL190176  24.917  27.242  19.944  0.2875  0.2945 -0.2928
 4351POPC   GL290177  24.656  27.471  19.834 -0.3460 -0.0276  0.1611
 4351POPC   C1A90178  25.076  27.538  19.616  0.2052  0.1209  0.2035
 4351POPC   D2A90179  25.259  27.927  19.468 -0.0013  0.1169 -0.0745
 4351POPC   C3A90180  25.294  27.949  18.972  0.0338  0.1119  0.2734
 4351POPC   C4A90181  25.466  27.988  18.543  0.0546  0.0332 -0.1307
 4351POPC   C1B90182  24.641  27.282  19.380  0.0712 -0.2182 -0.0131
 4351POPC   C2B90183  24.513  26.851  19.180  0.2851  0.1495 -0.0206
 4351POPC   C3B90184  24.688  26.861  18.722  0.0109 -0.1764 -0.0831
 4351POPC   C4B90185  24.519  26.924  18.257 -0.0320 -0.0876 -0.4040
 4352POPC   NC390186  29.414  30.800  20.129  0.1869  0.0144  0.3614
 4352POPC   PO490187  29.604  30.503  20.231 -0.0813 -0.3127  0.1495
 4352POPC   GL190188  29.704  30.389  19.803  0.0524  0.0586  0.3093
 4352POPC   GL290189  29.663  30.085  19.875 -0.1447  0.1386  0.3094
 4352POPC   C1A90190  29.859  30.272  19.367 -0.4086  0.1092  0.0531
 4352POPC   D2A90191  29.980  29.907  19.130  0.0184  0.1674 -0.1717
 4352POPC   C3A90192  30.003  29.839  18.696 -0.1842  0.1465 -0.1603
 4352POPC   C4A90193  30.034  29.737  18.246 -0.2796 -0.1155  0.0018
 4352POPC   C1B90194  29.479  29.918  19.489  0.0674 -0.0669 -0.1599
 4352POPC   C2B90195  29.314  30.073  19.017  0.0458  0.3642 -0.3246
 4352POPC   C3B90196  29.336  30.127  18.570  0.3786 -0.1118  0.1740
 4352POPC   C4B90197  29.304  30.305  18.140 -0.0230 -0.0622  0.0215
 4353POPC   NC390198  20.317  30.643  20.773 -0.2145 -0.1415 -0.0876
 4353POPC   PO490199  20.050  30.786  20.526 -0.0502 -0.1115  0.1064
 4353POPC   GL190200  20.249  30.588  20.308 -0.1200 -0.3132 -0.2040
 4353POPC   GL290201  20.181  30.319  20.366 -0.1540 -0.2340 -0.1079
 4353POPC   C1A90202  20.603  30.591  19.966 -0.2615 -0.1093  0.1488
 4353POPC   D2A90203  20.823  30.345  19.697 -0.0171 -0.2211  0.1763
 4353POPC   C3A90204  20.711  30.152  19.284  0.2439 -0.2180  0.1464
 4353POPC   C4A90205  20.771  29.936  18.867 -0.0072  0.1065 -0.0517
 4353POPC   C1B90206  20.274  30.217  19.936 -0.0497 -0.0170  0.2116
 4353POPC   C2B90207  20.238  30.178  19.469 -0.1222  0.1114 -0.0665
 4353POPC   C3B90208  20.234  30.120  19.031  0.2252 -0.3297  0.1689
 4353POPC   C4B90209  20.245  29.840  18.615  0.0474  0.0178  0.1577
 4354POPC   NC390210  26.979  29.575  19.935  0.0617  0.0043  0.0777
 4354POPC   PO490211  26.799  29.298  20.077  0.0166  0.1323 -0.0624
 4354POPC   GL190212  26.507  29.118  19.722  0.0343  0.2257 -0.2360
 4354POPC   GL290213  26.826  29.215  19.574  0.0059  0.0087 -0.0256
 4354POPC   C1A90214  26.459  29.324  19.251 -0.2958  0.0943 -0.0306
 4354POPC   D2A90215  26.376  29.508  18.840 -0.2656 -0.1502  0.0291
 4354POPC   C3A90216  26.612  29.834  18.539  0.0063 -0.2210  0.0693
 4354POPC   C4A90217  26.733  30.258  18.266  0.1250  0.1430  0.1453
 4354POPC   C1B90218  26.893  28.929  19.235 -0.2787 -0.4269 -0.1378
 4354POPC   C2B90219  26.794  28.634  18.964  0.0798  0.3712  0.0977
 4354POPC   C3B90220  26.380  28.399  18.966 -0.0617 -0.4414 -0.0465
 4354POPC   C4B90221  26.107  28.331  19.370 -0.1673  0.0339 -0.0813
 4355POPC   NC390222  16.485  20.113  19.815 -0.0653 -0.1129  0.0715
 4355POPC   PO490223  16.081  19.965  19.790  0.4393 -0.2274  0.4465
 4355POPC   GL190224  16.242  19.841  19.476  0.5625 -0.0003 -0.0124
 4355POPC   GL290225  16.093  19.985  19.269 -0.1862  0.0435 -0.3070
 4355POPC   C1A90226  16.486  19.656  19.133 -0.2695 -0.0866  0.0337
 4355POPC   D2A90227  16.961  19.712  19.102  0.0560 -0.4641  0.0261
 4355POPC   C3A90228  17.275  19.394  19.031  0.1655  0.0592 -0.2777
 4355POPC   C4A90229  17.323  19.033  18.801  0.1365  0.1402 -0.0027
 4355POPC   C1B90230  16.171  20.195  18.915  0.3247 -0.0116  0.0494
 4355POPC   C2B90231  16.403  20.368  18.541  0.0377  0.0712  0.2444
 4355POPC   C3B90232  16.862  20.353  18.384 -0.0212 -0.2241  0.0870
 4355POPC   C4B90233  17.107  20.077  18.086  0.0414  0.0094 -0.0859
 4356POPC   NC390234  30.531  31.088  20.301 -0.0596  0.1683  0.1168
 4356POPC   PO490235  30.691  30.778  20.510 -0.0198  0.0098  0.2513
 4356POPC   GL190236  30.784  30.680  20.127  0.2182 -0.1814  0.3775
 4356POPC   GL290237  30.586  30.715  19.945  0.1865  0.0006  0.1113
 4356POPC   C1A90238  30.966  30.274  19.827 -0.3626  0.0383 -0.4465
 4356POPC   D2A90239  31.093  30.117  19.428  0.2974 -0.0117 -0.0111
 4356POPC   C3A90240  31.279  29.700  19.133 -0.1450  0.0798 -0.3435
 4356POPC   C4A90241  31.190  29.266  19.077 -0.1540 -0.0639  0.1687
 4356POPC   C1B90242  30.992  30.766  19.711  0.0955 -0.0727 -0.0555
 4356POPC   C2B90243  31.420  30.583  19.544  0.2984 -0.1183  0.0648
 4356POPC   C3B90244  31.380  30.434  19.061  0.0987  0.4073 -0.1330
 4356POPC   C4B90245  31.468  30.506  18.631 -0.0767  0.0085  0.2765
 4357POPC   NC390246  21.254  17.098  20.143 -0.0291 -0.0790 -0.1983
 4357POPC   PO490247  20.975  17.043  19.911 -0.0672 -0.1776 -0.1545
 4357POPC   GL190248  20.930  16.860  19.540  0.0706  0.0748 -0.4279
 4357POPC   GL290249  21.011  16.587  19.524 -0.0951 -0.0570 -0.3044
 4357POPC   C1A90250  20.722  16.837  19.127 -0.0481  0.0654 -0.2788
 4357POPC   D2A90251  20.483  16.728  18.853  0.4788 -0.2473 -0.1239
 4357POPC   C3A90252  20.538  16.594  18.424 -0.1998  0.0096 -0.0569
 4357POPC   C4A90253  20.627  16.396  18.029  0.0017  0.3340  0.0664
 4357POPC   C1B90254  21.011  16.243  19.233  0.0649 -0.2747 -0.1513
 4357POPC   C2B90255  21.041  16.098  18.771  0.1245 -0.0667  0.0994
 4357POPC   C3B90256  21.076  16.355  18.335  0.0519  0.0247 -0.1857
 4357POPC   C4B90257  21.086  16.570  17.875  0.0189  0.0258  0.0569
 4358POPC   NC390258  27.432  31.491  20.081 -0.3939  0.1412  0.1495
 4358POPC   PO490259  27.798  31.410  20.136  0.1263  0.1465 -0.3843
 4358POPC   GL190260  27.816  31.339  19.735 -0.2628 -0.0200  0.2063
 4358POPC   GL290261  27.957  31.402  19.522 -0.1458 -0.1518  0.1082
 4358POPC   C1A90262  27.471  31.172  19.515 -0.0509  0.0255 -0.0150
 4358POPC   D2A90263  27.417  30.725  19.464  0.1061  0.0768  0.4817
 4358POPC   C3A90264  27.200  30.558  19.125  0.3053  0.3407  0.3269
 4358POPC   C4A90265  26.902  30.450  18.758 -0.0374 -0.1983 -0.2196
 4358POPC   C1B90266  27.999  31.520  19.085 -0.0904  0.1594 -0.1773
 4358POPC   C2B90267  28.199  31.620  18.707  0.0018 -0.3080 -0.1223
 4358POPC   C3B90268  28.383  31.618  18.272 -0.3250 -0.1569  0.1827
 4358POPC   C4B90269  28.330  31.401  17.874  0.1079  0.1827  0.1155
 4359POPC   NC390270  28.925  18.676  19.369 -0.1284  0.2047 -0.1451
 4359POPC   PO490271  28.567  18.561  19.322  0.2784 -0.1426  0.3202
 4359POPC   GL190272  28.750  18.186  19.179  0.0242  0.0572  0.2724
 4359POPC   GL290273  28.855  17.929  19.171 -0.0818  0.2329 -0.2715
 4359POPC   C1A90274  28.841  18.150  18.696  0.0504 -0.2288 -0.0883
 4359POPC   D2A90275  28.838  17.897  18.304  0.2115 -0.0012 -0.0636
 4359POPC   C3A90276  28.523  17.634  18.096  0.1140 -0.0736 -0.0220
 4359POPC   C4A90277  28.630  17.338  17.788  0.2427 -0.0046  0.5081
 4359POPC   C1B90278  29.023  17.651  18.872 -0.0898  0.0724 -0.0514
 4359POPC   C2B90279  29.221  17.658  18.482 -0.1683  0.0471 -0.0164
 4359POPC   C3B90280  29.580  17.591  18.209 -0.2303  0.1157  0.1130
 4359POPC   C4B90281  29.868  17.342  17.938  0.1664 -0.0896 -0.2591
 4360POPC   NC390282  22.408  16.476  20.445  0.0482 -0.0838 -0.0336
 4360POPC   PO490283  22.322  16.484  20.034  0.1171  0.1545 -0.1949
 4360POPC   GL190284  22.302  16.357  19.619  0.0153  0.1627 -0.1833
 4360POPC   GL290285  22.416  16.129  19.571  0.0112 -0.0621  0.2786
 4360POPC   C1A90286  22.014  16.452  19.266 -0.0546  0.0896  0.1641
 4360POPC   D2A90287  21.839  16.061  19.036 -0.1688 -0.0319  0.2035
 4360POPC   C3A90288  21.893  15.900  18.545  0.0720  0.1326  0.0897
 4360POPC   C4A90289  21.725  15.753  18.116 -0.1221  0.1482  0.2299
 4360POPC   C1B90290  22.280  15.868  19.223 -0.3851 -0.1237 -0.1308
 4360POPC   C2B90291  22.256  15.567  18.894 -0.2578 -0.0866 -0.2242
 4360POPC   C3B90292  22.438  15.269  18.583 -0.2980 -0.1388 -0.2712
 4360POPC   C4B90293  22.658  15.001  18.315 -0.0730  0.4683  0.0013
 4361POPC   NC390294  30.854  22.625  18.877 -0.1012  0.0283 -0.0628
 4361POPC   PO490295  30.425  22.696  18.941 -0.2544 -0.0376  0.1231
 4361POPC   GL190296  30.497  22.673  18.524  0.1635 -0.0285 -0.0655
 4361POPC   GL290297  30.342  22.712  18.217 -0.3706  0.5044  0.4388
 4361POPC   C1A90298  30.688  22.309  18.278 -0.3694 -0.1167 -0.0461
 4361POPC   D2A90299  30.847  21.879  18.467  0.4132  0.1204 -0.0117
 4361POPC   C3A90300  30.629  21.473  18.451  0.2833 -0.2258  0.0363
 4361POPC   C4A90301  30.642  21.048  18.243  0.0967  0.1419  0.1504
 4361POPC   C1B90302  30.707  22.706  17.916 -0.0563 -0.2989  0.1385
 4361POPC   C2B90303  31.026  22.353  17.746 -0.0415 -0.0676 -0.1886
 4361POPC   C3B90304  31.438  22.218  17.669  0.0552  0.0870 -0.2255
 4361POPC   C4B90305  31.779  22.119  17.389 -0.3839 -0.1734 -0.4529
 4362POPC   NC390306  21.969  19.968  18.784  0.3018  0.2557  0.0201
 4362POPC   PO490307  21.991  19.755  19.101  0.1887 -0.1320  0.0354
 4362POPC   GL190308  21.865  19.492  18.877  0.5231 -0.0171 -0.1856
 4362POPC   GL290309  21.605  19.365  18.910  0.1657  0.1227 -0.2594
 4362POPC   C1A90310  22.068  19.202  18.545  0.1902 -0.0414  0.0216
 4362POPC   D2A90311  22.324  18.791  18.385  0.0991 -0.2101  0.1079
 4362POPC   C3A90312  22.199  18.692  17.982 -0.2022 -0.1781  0.0276
 4362POPC   C4A90313  22.024  18.440  17.602  0.0406 -0.0682  0.1225
 4362POPC   C1B90314  21.440  19.417  18.525 -0.1019  0.2566  0.1465
 4362POPC   C2B90315  20.997  19.348  18.274 -0.4084 -0.0174  0.0469
 4362POPC   C3B90316  21.000  19.155  17.865  0.1227 -0.1318  0.4342
 4362POPC   C4B90317  21.105  19.059  17.468 -0.0672 -0.0378  0.0631
 4363POPC   NC390318  20.989  22.768  20.011 -0.2648 -0.1381  0.0740
 4363POPC   PO490319  20.829  23.138  19.827  0.0542 -0.1674 -0.0033
 4363POPC   GL190320  20.682  22.934  19.580 -0.1403 -0.1248  0.1253
 4363POPC   GL290321  20.844  22.968  19.344 -0.2204  0.0956 -0.2769
 4363POPC   C1A90322  20.312  23.020  19.258  0.2764  0.1023 -0.2051
 4363POPC   D2A90323  19.986  23.049  18.914  0.1701 -0.3203 -0.3562
 4363POPC   C3A90324  20.213  23.422  18.694 -0.0958  0.2173 -0.0417
 4363POPC   C4A90325  20.274  23.246  18.260  0.2389  0.4064 -0.0222
 4363POPC   C1B90326  20.649  23.282  19.022  0.1435  0.0251  0.0555
 4363POPC   C2B90327  20.670  23.555  18.602  0.1726 -0.2548 -0.0505
 4363POPC   C3B90328  20.737  23.570  18.167 -0.3812 -0.2973  0.0876
 4363POPC   C4B90329  20.760  23.748  17.743  0.2507  0.2060 -0.4761
 4364POPC   NC390330  18.950  16.227  20.483  0.0568  0.0830 -0.0663
 4364POPC   PO490331  19.222  16.459  20.538  0.1305  0.0038  0.2324
 4364POPC   GL190332  19.260  16.398  20.099 -0.1309  0.6156  0.1374
 4364POPC   GL290333  19.272  16.143  19.977 -0.1196 -0.1015 -0.1389
 4364POPC   C1A90334  19.306  16.650  19.666 -0.0621  0.2319 -0.3851
 4364POPC   D2A90335  19.208  16.846  19.242 -0.0358  0.2707 -0.0940
 4364POPC   C3A90336  18.975  16.855  18.833 -0.0950  0.2766  0.0022
 4364POPC   C4A90337  18.681  16.885  18.447 -0.1931 -0.0529 -0.3506
 4364POPC   C1B90338  19.412  16.140  19.531 -0.0526 -0.0664 -0.0855
 4364POPC   C2B90339  19.812  16.230  19.245 -0.4350 -0.0423  0.1687
 4364POPC   C3B90340  20.136  16.327  18.953 -0.0423  0.1480  0.1879
 4364POPC   C4B90341  20.137  16.180  18.547  0.2316  0.1239  0.0598
 4365POPC   NC390342  25.551  23.196  10.978 -0.0252  0.1357 -0.0883
 4365POPC   PO490343  25.786  23.162  11.284 -0.0286 -0.3625  0.1274
 4365POPC   GL190344  25.345  23.129  11.444  0.1594 -0.0013  0.2986
 4365POPC   GL290345  25.100  23.193  11.617  0.0271 -0.2774  0.3441
 4365POPC   C1A90346  25.171  23.467  11.214 -0.0300  0.0977 -0.1953
 4365POPC   D2A90347  24.955  23.772  10.867  0.0412  0.1882  0.2215
 4365POPC   C3A90348  24.498  23.837  11.033 -0.3598  0.2206  0.0889
 4365POPC   C4A90349  24.399  23.950  11.448  0.0734  0.1927 -0.0478
 4365POPC   C1B90350  24.668  23.387  11.363 -0.0386 -0.1552  0.1644
 4365POPC   C2B90351  24.188  23.470  11.327 -0.0128 -0.0177 -0.1819
 4365POPC   C3B90352  23.929  23.832  11.187 -0.3618  0.0543  0.4415
 4365POPC   C4B90353  23.942  24.253  10.932  0.1614  0.1142  0.0122
 4366POPC   NC390354  31.024  18.949  19.384  0.0003 -0.0823 -0.1064
 4366POPC   PO490355  31.123  18.613  19.574  0.0134  0.2287  0.1627
 4366POPC   GL190356  31.368  18.605  19.209  0.2723  0.1544 -0.0282
 4366POPC   GL290357  31.118  18.537  19.047  0.1471 -0.2113 -0.1818
 4366POPC   C1A90358  31.682  18.787  18.854  0.1136  0.2611 -0.0044
 4366POPC   D2A90359  31.974  18.788  18.493 -0.0621 -0.2980  0.0030
 4366POPC   C3A90360  32.033  18.466  18.168 -0.0938  0.1612 -0.0191
 4366POPC   C4A90361  32.213  18.509  17.775  0.0136  0.1719 -0.1999
 4366POPC   C1B90362  31.359  18.554  18.620 -0.0355  0.0816 -0.0768
 4366POPC   C2B90363  31.527  18.487  18.202  0.0100  0.1223  0.2484
 4366POPC   C3B90364  31.356  18.293  17.805 -0.0455 -0.0335  0.2546
 4366POPC   C4B90365  31.308  18.139  17.371  0.2157  0.1251 -0.1858
 4367POPC   NC390366  19.966  19.930  19.978 -0.0702  0.2456  0.1595
 4367POPC   PO490367  19.922  20.116  19.620 -0.3522 -0.2650 -0.1071
 4367POPC   GL190368  19.746  20.129  19.170 -0.1228 -0.0283 -0.3768
 4367POPC   GL290369  19.979  19.962  19.102  0.3050 -0.2487 -0.1296
 4367POPC   C1A90370  19.684  20.080  18.712 -0.0143  0.1881  0.3041
 4367POPC   D2A90371  19.765  19.945  18.250  0.0366 -0.1763 -0.1266
 4367POPC   C3A90372  19.536  20.072  17.870 -0.1918 -0.2025  0.2159
 4367POPC   C4A90373  19.542  20.166  17.447 -0.0153 -0.1073 -0.0878
 4367POPC   C1B90374  20.088  19.778  18.677 -0.2427 -0.0225 -0.0095
 4367POPC   C2B90375  20.121  19.502  18.281 -0.2633  0.0250 -0.1308
 4367POPC   C3B90376  20.342  19.349  17.922  0.1910  0.0010  0.1501
 4367POPC   C4B90377  20.607  19.332  17.530 -0.1863  0.0768 -0.1054
 4368POPC   NC390378  32.401  22.724  19.544  0.3816 -0.1971  0.0648
 4368POPC   PO490379  32.402  23.107  19.701  0.3150  0.1388 -0.0261
 4368POPC   GL190380  32.659  23.239  19.480  0.3536 -0.2006  0.0743
 4368POPC   GL290381  32.810  23.492  19.559  0.3573 -0.0279  0.2702
 4368POPC   C1A90382  32.764  23.073  19.040  0.2788 -0.1678 -0.0133
 4368POPC   D2A90383  32.807  23.037  18.595  0.0935 -0.2233  0.0320
 4368POPC   C3A90384  32.431  23.224  18.260 -0.0356 -0.0798 -0.1037
 4368POPC   C4A90385  31.935  23.387  18.189  0.2774  0.2349  0.1767
 4368POPC   C1B90386  32.900  23.849  19.322  0.0659 -0.0868 -0.1014
 4368POPC   C2B90387  33.058  24.030  18.956 -0.4785 -0.2794 -0.0038
 4368POPC   C3B90388  32.985  23.939  18.517  0.2035  0.1465  0.2063
 4368POPC   C4B90389  33.025  23.494  18.422  0.6096 -0.1875  0.0993
 4369POPC   NC390390  23.840  26.111  19.539  0.1082  0.3069 -0.1247
 4369POPC   PO490391  23.531  25.944  19.734 -0.2774 -0.2682 -0.1219
 4369POPC   GL190392  23.382  25.918  19.406  0.0909  0.0458 -0.1973
 4369POPC   GL290393  23.252  25.894  19.197  0.1721 -0.0389  0.0025
 4369POPC   C1A90394  23.240  26.365  19.214  0.0828  0.1348  0.1016
 4369POPC   D2A90395  23.137  26.506  18.764  0.0449 -0.3190 -0.0597
 4369POPC   C3A90396  23.006  26.273  18.433  0.0027  0.6319  0.0907
 4369POPC   C4A90397  23.078  26.100  18.017 -0.0344  0.4115 -0.1603
 4369POPC   C1B90398  23.265  25.980  18.727  0.1329  0.1267  0.0768
 4369POPC   C2B90399  23.176  25.696  18.326  0.2088 -0.4711 -0.0527
 4369POPC   C3B90400  23.066  25.500  17.934 -0.0414  0.1880 -0.1587
 4369POPC   C4B90401  22.850  25.428  17.541 -0.1533 -0.4970 -0.1344
 4370POPC   NC390402  31.393  25.036  19.823  0.2872  0.3667 -0.0880
 4370POPC   PO490403  31.051  24.983  19.666  0.1527 -0.1704  0.0610
 4370POPC   GL190404  31.130  25.229  19.472 -0.0305  0.1337  0.0371
 4370POPC   GL290405  31.439  25.300  19.394  0.1262 -0.1981 -0.1113
 4370POPC   C1A90406  30.996  25.382  19.066  0.1259 -0.3373 -0.0507
 4370POPC   D2A90407  30.741  25.322  18.735 -0.1976  0.1375  0.0231
 4370POPC   C3A90408  30.813  25.506  18.324  0.0052 -0.0191  0.0967
 4370POPC   C4A90409  30.629  25.326  17.936 -0.1118 -0.0464  0.3715
 4370POPC   C1B90410  31.482  25.251  18.888  0.1670  0.2577  0.4810
 4370POPC   C2B90411  31.716  25.276  18.545  0.0319  0.1426 -0.0446
 4370POPC   C3B90412  32.169  25.336  18.426 -0.0671 -0.1091 -0.0653
 4370POPC   C4B90413  32.478  25.651  18.319  0.2913 -0.1181  0.2140
 4371POPC   NC390414  32.043   0.025  20.778 -0.0097 -0.1702 -0.0692
 4371POPC   PO490415  31.907  -0.053  20.435 -0.0462  0.3280 -0.2815
 4371POPC   GL190416  31.680  -0.161  20.088  0.1294 -0.0164 -0.0966
 4371POPC   GL290417  31.844  -0.169  19.878 -0.1561  0.0737  0.2368
 4371POPC   C1A90418  31.374  -0.498  19.986 -0.1680 -0.0283  0.0364
 4371POPC   D2A90419  31.251  -0.835  19.683 -0.2475 -0.0450  0.3373
 4371POPC   C3A90420  31.172  -1.290  19.722  0.2042 -0.1070  0.2503
 4371POPC   C4A90421  30.863  -1.610  19.737 -0.2596 -0.2407 -0.0079
 4371POPC   C1B90422  31.596  -0.405  19.568  0.0618 -0.0445 -0.3062
 4371POPC   C2B90423  31.351  -0.381  19.177 -0.2244 -0.2932  0.1803
 4371POPC   C3B90424  31.307  -0.574  18.747  0.2554  0.1600 -0.2378
 4371POPC   C4B90425  31.289  -0.819  18.324  0.0620 -0.1683  0.2905
 4372POPC   NC390426  27.679  24.125  17.437  0.2367 -0.1770  0.2423
 4372POPC   PO490427  27.320  24.096  17.237 -0.1081  0.0714  0.1571
 4372POPC   GL190428  27.204  24.308  16.940  0.2072 -0.1100 -0.0274
 4372POPC   GL290429  27.380  24.390  16.763 -0.1208 -0.1704  0.0497
 4372POPC   C1A90430  26.874  24.680  16.938 -0.0233 -0.1329 -0.0557
 4372POPC   D2A90431  26.568  24.854  16.585 -0.0582 -0.1276 -0.0821
 4372POPC   C3A90432  26.595  25.064  16.167 -0.3596  0.1652 -0.2023
 4372POPC   C4A90433  26.554  25.439  15.967  0.0575  0.2256  0.1824
 4372POPC   C1B90434  27.182  24.664  16.440 -0.0872 -0.0001 -0.2695
 4372POPC   C2B90435  27.102  24.889  16.092 -0.2536  0.1802 -0.2000
 4372POPC   C3B90436  27.163  24.907  15.648  0.0046  0.2331  0.2844
 4372POPC   C4B90437  27.315  24.679  15.275  0.2478  0.0663 -0.1624
 4373POPC   NC390438  21.087  22.067  19.220 -0.2096  0.0626  0.1524
 4373POPC   PO490439  20.949  21.720  19.335 -0.1488  0.0119  0.4418
 4373POPC   GL190440  20.911  21.616  18.945 -0.0573  0.2135  0.0895
 4373POPC   GL290441  20.724  21.848  18.896  0.1325 -0.2305 -0.3369
 4373POPC   C1A90442  20.565  21.472  18.622 -0.0058 -0.0148  0.1178
 4373POPC   D2A90443  20.449  21.313  18.138  0.1626  0.4583 -0.2083
 4373POPC   C3A90444  20.722  21.363  17.740 -0.1188  0.0447  0.3557
 4373POPC   C4A90445  21.140  21.521  17.626 -0.1064 -0.2329 -0.0447
 4373POPC   C1B90446  20.717  21.960  18.471  0.1595  0.2907  0.1685
 4373POPC   C2B90447  20.646  21.779  18.073  0.3463  0.2106 -0.0514
 4373POPC   C3B90448  20.728  21.934  17.629 -0.2826  0.1966 -0.0547
 4373POPC   C4B90449  20.856  21.760  17.238 -0.2641  0.1224 -0.2178
 4374POPC   NC390450  22.206  18.178  19.918  0.0907  0.1925  0.0176
 4374POPC   PO490451  22.084  18.173  19.582 -0.1202  0.3571  0.0951
 4374POPC   GL190452  22.055  17.955  19.243  0.3490 -0.3555 -0.0886
 4374POPC   GL290453  21.964  18.196  19.104  0.0984 -0.2026  0.0474
 4374POPC   C1A90454  22.261  17.530  19.177 -0.2436 -0.5312  0.0673
 4374POPC   D2A90455  22.391  17.296  18.825  0.1427 -0.3230  0.1444
 4374POPC   C3A90456  22.404  17.561  18.422 -0.1346  0.0235  0.0910
 4374POPC   C4A90457  22.273  17.724  18.012  0.3014  0.3175 -0.2011
 4374POPC   C1B90458  21.621  17.856  19.092 -0.3711 -0.0385  0.1130
 4374POPC   C2B90459  21.414  17.546  18.774  0.0427  0.0441  0.3895
 4374POPC   C3B90460  21.392  17.082  18.693 -0.1387  0.1064  0.0736
 4374POPC   C4B90461  21.410  16.768  18.381 -0.0295  0.0644  0.0186
 4375POPC   NC390462   0.356  32.035  20.759 -0.1996  0.2122 -0.1266
 4375POPC   PO490463   0.312  31.995  20.361  0.0619  0.3003  0.2152
 4375POPC   GL190464   0.010  31.915  20.126 -0.0964 -0.0770 -0.0199
 4375POPC   GL290465   0.121  32.007  19.860  0.0591  0.2508 -0.1354
 4375POPC   C1A90466  -0.360  31.730  19.827 -0.1526 -0.0680 -0.1713
 4375POPC   D2A90467  -0.609  31.822  19.520  0.1580  0.4446 -0.0365
 4375POPC   C3A90468  -0.721  31.592  19.096  0.1251 -0.0386 -0.1687
 4375POPC   C4A90469  -1.118  31.438  19.078  0.3325  0.0057  0.1889
 4375POPC   C1B90470  -0.023  31.881  19.437 -0.1019  0.1662  0.1491
 4375POPC   C2B90471  -0.208  31.725  19.025 -0.2147 -0.1624 -0.4154
 4375POPC   C3B90472  -0.324  31.278  18.968  0.2517  0.3253 -0.1640
 4375POPC   C4B90473  -0.719  31.042  19.117 -0.1547  0.1471  0.1959
 4376POPC   NC390474  19.717  29.182  20.771  0.2571 -0.1931 -0.2045
 4376POPC   PO490475  19.657  29.519  20.930  0.0504  0.1171 -0.0110
 4376POPC   GL190476  19.529  29.532  20.544  0.0765  0.1523  0.0437
 4376POPC   GL290477  19.617  29.825  20.500 -0.1004 -0.0725 -0.2241
 4376POPC   C1A90478  19.702  29.185  20.251  0.2450 -0.1279 -0.0050
 4376POPC   D2A90479  20.103  29.282  19.980  0.0438  0.2135  0.2131
 4376POPC   C3A90480  20.039  29.488  19.564 -0.1769  0.0011 -0.1099
 4376POPC   C4A90481  20.044  29.599  19.131 -0.3723  0.2060 -0.3214
 4376POPC   C1B90482  19.478  29.619  20.050  0.1876  0.1313 -0.3388
 4376POPC   C2B90483  19.204  29.643  19.630  0.0409  0.3929  0.0456
 4376POPC   C3B90484  19.026  29.535  19.214 -0.0429 -0.2803  0.0750
 4376POPC   C4B90485  19.009  29.329  18.794  0.0866  0.0105 -0.1269
 4377POPC   NC390486  21.981  16.651  19.710  0.0922 -0.0895 -0.1222
 4377POPC   PO490487  21.856  16.532  20.088  0.0923 -0.1185  0.0874
 4377POPC   GL190488  21.950  16.158  19.872  0.2343 -0.0079  0.2267
 4377POPC   GL290489  21.728  16.167  19.626 -0.0756 -0.0110 -0.1765
 4377POPC   C1A90490  22.170  15.762  19.811 -0.2475 -0.0781  0.0165
 4377POPC   D2A90491  22.286  15.449  19.462 -0.1483  0.2369  0.0804
 4377POPC   C3A90492  21.887  15.572  19.307  0.2637  0.0230 -0.0740
 4377POPC   C4A90493  21.457  15.395  19.258  0.1780  0.2552  0.1040
 4377POPC   C1B90494  21.508  16.356  19.273 -0.1284  0.0006 -0.1756
 4377POPC   C2B90495  21.455  16.317  18.795 -0.3895  0.1950 -0.2403
 4377POPC   C3B90496  21.625  16.297  18.368  0.1648  0.1460 -0.2321
 4377POPC   C4B90497  21.637  16.518  17.947  0.0038  0.0169 -0.1201
 4378POPC   NC390498  16.891  27.798  20.700  0.3247 -0.2079  0.0096
 4378POPC   PO490499  17.218  27.564  20.758  0.1520  0.1525  0.0357
 4378POPC   GL190500  17.318  27.390  20.509  0.0010 -0.0572  0.2361
 4378POPC   GL290501  17.082  27.277  20.361 -0.0604  0.0238 -0.0432
 4378POPC   C1A90502  17.436  27.611  20.085  0.0625  0.0410 -0.0372
 4378POPC   D2A90503  17.349  27.753  19.663  0.3185  0.2064 -0.0570
 4378POPC   C3A90504  17.036  27.919  19.383  0.0985 -0.0900 -0.0378
 4378POPC   C4A90505  17.088  28.003  18.897  0.0283 -0.2001  0.2676
 4378POPC   C1B90506  17.277  27.174  19.983  0.0053 -0.0256  0.1624
 4378POPC   C2B90507  17.395  27.003  19.600  0.2463 -0.2659  0.1332
 4378POPC   C3B90508  17.643  26.908  19.175 -0.1199 -0.5125  0.2774
 4378POPC   C4B90509  17.941  26.851  18.721 -0.0690 -0.3293 -0.1370
 4379POPC   NC390510  20.109  27.164  20.522 -0.2512  0.1943 -0.2440
 4379POPC   PO490511  20.292  26.828  20.684  0.0390 -0.2883 -0.0465
 4379POPC   GL190512  20.441  26.709  20.318 -0.2018 -0.3015  0.0544
 4379POPC   GL290513  20.291  26.845  20.076  0.0519 -0.2309 -0.3106
 4379POPC   C1A90514  20.618  26.380  20.034 -0.0274  0.0446  0.2815
 4379POPC   D2A90515  20.705  26.206  19.614 -0.0025  0.1134 -0.0842
 4379POPC   C3A90516  20.381  26.095  19.291  0.1735 -0.3452 -0.0592
 4379POPC   C4A90517  20.132  25.811  18.939  0.3865  0.1966  0.1612
 4379POPC   C1B90518  20.225  26.924  19.650 -0.1340  0.0658 -0.2755
 4379POPC   C2B90519  20.071  26.969  19.234  0.1437 -0.1486 -0.3028
 4379POPC   C3B90520  19.924  26.967  18.845 -0.1004 -0.0196 -0.1068
 4379POPC   C4B90521  19.434  26.971  18.748 -0.1212 -0.0029 -0.0700
 4380POPC   NC390522  19.557  19.675  19.775 -0.0556 -0.0964 -0.2958
 4380POPC   PO490523  19.505  19.400  20.046  0.1255 -0.5258  0.1955
 4380POPC   GL190524  19.371  19.261  19.633 -0.0505  0.0504  0.0594
 4380POPC   GL290525  19.256  19.423  19.488 -0.2540  0.1008  0.1694
 4380POPC   C1A90526  19.588  19.085  19.308 -0.1904 -0.1653 -0.2364
 4380POPC   D2A90527  19.899  18.942  19.023  0.1262  0.0229  0.4231
 4380POPC   C3A90528  20.245  18.887  18.712  0.2048  0.1916  0.1664
 4380POPC   C4A90529  20.353  19.055  18.301 -0.3226  0.0399 -0.1331
 4380POPC   C1B90530  19.097  19.290  19.068 -0.6596  0.2933  0.0908
 4380POPC   C2B90531  19.009  19.310  18.623 -0.1260 -0.1336  0.1201
 4380POPC   C3B90532  18.863  19.394  18.191  0.4080  0.1805  0.4524
 4380POPC   C4B90533  18.646  19.504  17.769 -0.1510 -0.0749 -0.0249
 4381POPC   NC390534  25.048  22.927  14.253 -0.0617 -0.0511 -0.3079
 4381POPC   PO490535  25.278  22.846  13.966 -0.3312  0.1063 -0.0943
 4381POPC   GL190536  24.937  22.963  13.769  0.0003  0.2816  0.0344
 4381POPC   GL290537  25.003  23.219  13.683  0.1520 -0.4869  0.4089
 4381POPC   C1A90538  24.799  22.906  13.339 -0.1613  0.1531 -0.1870
 4381POPC   D2A90539  24.755  22.947  12.897 -0.3348 -0.3152 -0.2383
 4381POPC   C3A90540  24.373  22.906  12.811  0.0562  0.0075  0.1227
 4381POPC   C4A90541  24.190  22.437  12.944 -0.1871 -0.0815 -0.0448
 4381POPC   C1B90542  24.765  23.581  13.650 -0.0197 -0.3425  0.1140
 4381POPC   C2B90543  24.812  24.058  13.512 -0.2161  0.1379 -0.0605
 4381POPC   C3B90544  24.999  24.454  13.367  0.0242 -0.3655 -0.1690
 4381POPC   C4B90545  24.880  24.881  13.187  0.2456 -0.1656 -0.0411
 4382POPC   NC390546  24.958  22.707  15.939  0.1167  0.1961  0.4128
 4382POPC   PO490547  24.995  22.424  15.683  0.0458 -0.0278  0.0088
 4382POPC   GL190548  24.628  22.389  15.554  0.3053  0.1665  0.2127
 4382POPC   GL290549  24.482  22.640  15.668 -0.0356 -0.1670  0.3172
 4382POPC   C1A90550  24.166  22.292  15.561  0.1660 -0.2115  0.2545
 4382POPC   D2A90551  23.721  22.309  15.530 -0.2733  0.0960  0.0720
 4382POPC   C3A90552  23.624  22.055  15.128 -0.2496 -0.0634  0.1066
 4382POPC   C4A90553  23.584  21.843  14.777 -0.2927  0.0487 -0.1571
 4382POPC   C1B90554  24.396  22.710  15.217 -0.0290  0.0892 -0.0346
 4382POPC   C2B90555  24.166  22.725  14.812  0.1301  0.3097 -0.1870
 4382POPC   C3B90556  23.990  22.853  14.453 -0.3045 -0.0881  0.3127
 4382POPC   C4B90557  24.075  23.198  14.113 -0.1082  0.3816 -0.3188
 4383POPC   NC390558  32.350  25.442  19.869  0.0713 -0.1755  0.2237
 4383POPC   PO490559  32.671  25.286  19.738  0.0661 -0.1194  0.2751
 4383POPC   GL190560  32.783  25.286  19.315  0.1042 -0.1140 -0.4763
 4383POPC   GL290561  32.740  25.003  19.287 -0.0872 -0.0666 -0.2976
 4383POPC   C1A90562  32.724  25.517  18.929 -0.3303 -0.3585  0.3526
 4383POPC   D2A90563  32.701  25.262  18.529  0.1214  0.0553 -0.3893
 4383POPC   C3A90564  32.938  25.346  18.109 -0.2667  0.2467 -0.0469
 4383POPC   C4A90565  33.363  25.413  17.950  0.0828  0.0484  0.1752
 4383POPC   C1B90566  32.761  24.838  18.877 -0.1062 -0.0505  0.1067
 4383POPC   C2B90567  32.923  24.757  18.455 -0.4270  0.1864 -0.0228
 4383POPC   C3B90568  32.888  24.320  18.236 -0.0996 -0.2150  0.1648
 4383POPC   C4B90569  32.723  23.950  17.963  0.2408  0.0581 -0.2459
 4384POPC   NC390570  23.212  25.079  19.769 -0.0662 -0.4759 -0.0463
 4384POPC   PO490571  22.920  24.884  19.953 -0.1005 -0.2191  0.0475
 4384POPC   GL190572  22.524  24.856  19.770  0.0531 -0.0234  0.2081
 4384POPC   GL290573  22.252  24.839  19.911 -0.2731  0.0097 -0.0158
 4384POPC   C1A90574  22.431  25.116  19.382  0.2272 -0.0182 -0.3685
 4384POPC   D2A90575  22.179  25.233  19.002 -0.0263 -0.1405 -0.1491
 4384POPC   C3A90576  22.089  25.592  18.711  0.1183  0.0148  0.0075
 4384POPC   C4A90577  21.665  25.665  18.456 -0.1495  0.0289  0.1536
 4384POPC   C1B90578  22.239  24.649  19.477  0.2235 -0.2389  0.3659
 4384POPC   C2B90579  22.195  24.678  19.023 -0.2218 -0.0704  0.1371
 4384POPC   C3B90580  21.935  24.892  18.635 -0.0101 -0.1706  0.0067
 4384POPC   C4B90581  21.914  24.748  18.182 -0.3833 -0.1085 -0.0709
 4385POPC   NC390582  26.793  23.582  15.878 -0.0465 -0.3294  0.0010
 4385POPC   PO490583  26.449  23.469  16.022  0.2126 -0.0538 -0.1507
 4385POPC   GL190584  26.327  23.825  16.005  0.4132  0.0365  0.0942
 4385POPC   GL290585  26.380  23.908  15.770  0.2499  0.0258 -0.1075
 4385POPC   C1A90586  26.669  24.098  16.118 -0.1873  0.0292  0.2410
 4385POPC   D2A90587  26.740  24.538  16.141  0.1761 -0.1764 -0.4141
 4385POPC   C3A90588  26.678  24.803  15.749 -0.4174 -0.0853  0.1249
 4385POPC   C4A90589  26.494  25.184  15.508  0.3463  0.2080 -0.2341
 4385POPC   C1B90590  26.501  24.321  15.558  0.0001  0.1410  0.1970
 4385POPC   C2B90591  26.833  24.441  15.211 -0.1939 -0.1344 -0.3352
 4385POPC   C3B90592  26.891  24.620  14.823 -0.0997  0.0975  0.0699
 4385POPC   C4B90593  26.713  24.527  14.380  0.2214  0.0984 -0.3169
 4386POPC   NC390594  21.343  29.124  20.463 -0.4018  0.2648 -0.2848
 4386POPC   PO490595  21.725  29.206  20.519  0.0217 -0.0798 -0.3223
 4386POPC   GL190596  21.610  29.219  20.108 -0.2505 -0.2660 -0.1884
 4386POPC   GL290597  21.433  29.426  20.050 -0.0133  0.0239 -0.1417
 4386POPC   C1A90598  21.631  29.027  19.699 -0.1985  0.0047 -0.1047
 4386POPC   D2A90599  21.825  28.730  19.412 -0.1460  0.0148  0.2151
 4386POPC   C3A90600  21.857  28.959  18.995  0.5587  0.2244 -0.0430
 4386POPC   C4A90601  21.573  28.913  18.593 -0.0196 -0.3715  0.0697
 4386POPC   C1B90602  21.357  29.499  19.650  0.2015  0.3467  0.2020
 4386POPC   C2B90603  21.163  29.887  19.449 -0.1531 -0.1555 -0.2681
 4386POPC   C3B90604  21.210  30.127  19.078  0.1378 -0.1096 -0.0329
 4386POPC   C4B90605  21.081  30.316  18.683  0.1472  0.0055  0.3910
 4387POPC   NC390606  31.933  22.003  19.636  0.3344  0.0579  0.0574
 4387POPC   PO490607  32.169  22.075  19.936  0.0656 -0.2294 -0.2207
 4387POPC   GL190608  32.287  22.232  19.558  0.1979 -0.3422 -0.1198
 4387POPC   GL290609  32.563  22.247  19.417  0.1467 -0.1135  0.0038
 4387POPC   C1A90610  32.156  22.071  19.126  0.0514  0.0605 -0.0459
 4387POPC   D2A90611  32.529  22.237  18.857  0.1016 -0.0019  0.0202
 4387POPC   C3A90612  32.865  21.972  18.731  0.0788 -0.0651 -0.2887
 4387POPC   C4A90613  33.185  21.655  18.693 -0.0702  0.2024 -0.2917
 4387POPC   C1B90614  32.666  21.895  19.211 -0.1252  0.1743 -0.1550
 4387POPC   C2B90615  32.756  21.497  19.025  0.3743 -0.1466  0.1204
 4387POPC   C3B90616  33.063  21.197  18.937 -0.0505  0.0955 -0.0856
 4387POPC   C4B90617  33.249  20.936  18.625 -0.3364 -0.0238 -0.0500
 4388POPC   NC390618  26.454  24.777  18.068  0.1059 -0.1814  0.1084
 4388POPC   PO490619  26.153  24.730  17.802  0.2903 -0.0141  0.2994
 4388POPC   GL190620  26.415  25.045  17.672  0.0285 -0.5150 -0.1218
 4388POPC   GL290621  26.275  25.291  17.847 -0.0434 -0.1590  0.1871
 4388POPC   C1A90622  26.553  25.442  17.365 -0.1643 -0.0119 -0.0761
 4388POPC   D2A90623  26.828  25.648  17.071  0.0481  0.0364  0.0033
 4388POPC   C3A90624  26.589  25.828  16.765  0.1515 -0.1430  0.0414
 4388POPC   C4A90625  26.731  26.179  16.478  0.1462 -0.0377  0.4087
 4388POPC   C1B90626  26.039  25.633  17.615 -0.3106 -0.0435 -0.2524
 4388POPC   C2B90627  25.938  25.940  17.299  0.1322  0.1965  0.5208
 4388POPC   C3B90628  25.947  26.407  17.271  0.2893 -0.0654  0.0465
 4388POPC   C4B90629  25.806  26.840  17.394  0.4528  0.1076  0.0202
 4389POPC   NC390630  18.204  30.215  20.586 -0.0432 -0.1502  0.3167
 4389POPC   PO490631  17.956  30.306  20.832 -0.0760  0.1241 -0.1536
 4389POPC   GL190632  17.924  30.625  20.501  0.1564 -0.1214  0.1434
 4389POPC   GL290633  17.930  30.874  20.420  0.0652 -0.0023  0.0783
 4389POPC   C1A90634  17.937  30.363  20.078 -0.0937 -0.2758 -0.1783
 4389POPC   D2A90635  17.945  29.969  19.806 -0.1904 -0.1091 -0.0940
 4389POPC   C3A90636  17.880  30.226  19.391 -0.1993 -0.0067  0.0926
 4389POPC   C4A90637  17.917  30.605  19.080 -0.3638 -0.0162 -0.0896
 4389POPC   C1B90638  17.879  30.850  19.938 -0.1776  0.0385  0.1783
 4389POPC   C2B90639  17.820  30.896  19.473 -0.1326  0.1017 -0.0077
 4389POPC   C3B90640  17.952  31.072  19.098  0.0294  0.0772 -0.0024
 4389POPC   C4B90641  18.159  31.193  18.720  0.1705 -0.1872 -0.1955
 4390POPC   NC390642  23.606  24.080  19.540 -0.2123  0.3251 -0.1600
 4390POPC   PO490643  23.484  24.319  19.291  0.2731 -0.3106 -0.4453
 4390POPC   GL190644  23.090  24.481  19.157 -0.4651 -0.0684 -0.2827
 4390POPC   GL290645  23.175  24.778  19.158 -0.1467  0.0865 -0.1777
 4390POPC   C1A90646  22.674  24.705  19.051 -0.2433  0.0966 -0.1877
 4390POPC   D2A90647  22.508  24.670  18.639  0.1965 -0.1434  0.0425
 4390POPC   C3A90648  22.480  24.837  18.177  0.1661  0.0393 -0.0415
 4390POPC   C4A90649  22.355  24.782  17.695  0.5111 -0.0752 -0.1295
 4390POPC   C1B90650  23.004  25.024  18.781 -0.3718  0.2392 -0.1373
 4390POPC   C2B90651  22.892  25.322  18.435 -0.0144  0.0376 -0.0162
 4390POPC   C3B90652  22.589  25.481  18.117  0.2940  0.2439  0.1278
 4390POPC   C4B90653  22.529  25.774  17.804  0.0296  0.2028 -0.1435
 4391POPC   NC390654  32.066  29.623  20.871 -0.1860 -0.0299 -0.1037
 4391POPC   PO490655  32.079  29.242  20.818 -0.1508 -0.1307 -0.0692
 4391POPC   GL190656  32.338  29.493  20.515  0.1382 -0.1587 -0.2551
 4391POPC   GL290657  32.462  29.196  20.433 -0.0057 -0.0589  0.1997
 4391POPC   C1A90658  32.315  29.603  20.083  0.0174  0.0456 -0.0864
 4391POPC   D2A90659  32.370  29.784  19.677  0.1899  0.0432  0.1888
 4391POPC   C3A90660  32.684  29.696  19.326  0.1219 -0.1071 -0.4268
 4391POPC   C4A90661  32.690  29.370  19.002 -0.1660 -0.0053 -0.0449
 4391POPC   C1B90662  32.470  29.135  20.017 -0.0138  0.0727  0.2516
 4391POPC   C2B90663  32.440  29.278  19.582 -0.1397  0.0650 -0.0552
 4391POPC   C3B90664  32.221  29.330  19.206 -0.2061  0.1919  0.0561
 4391POPC   C4B90665  32.198  29.507  18.808 -0.0362 -0.2919 -0.1211
 4392POPC   NC390666  19.235  26.481  20.309  0.3285 -0.0497 -0.0690
 4392POPC   PO490667  18.908  26.418  20.450  0.0898  0.2240 -0.0946
 4392POPC   GL190668  18.729  26.515  20.111 -0.0047  0.0605 -0.0972
 4392POPC   GL290669  18.885  26.704  19.960 -0.0180 -0.0014  0.1445
 4392POPC   C1A90670  18.490  26.427  19.731  0.4362 -0.0082 -0.0248
 4392POPC   D2A90671  18.331  26.523  19.295 -0.1020  0.4733  0.0623
 4392POPC   C3A90672  18.136  26.212  18.982 -0.1635  0.5162  0.0135
 4392POPC   C4A90673  18.148  25.924  18.629 -0.1341  0.0069 -0.1324
 4392POPC   C1B90674  19.198  26.716  19.608  0.1827  0.1430 -0.0976
 4392POPC   C2B90675  19.286  26.772  19.193 -0.2115 -0.2396  0.0390
 4392POPC   C3B90676  19.555  26.529  18.911  0.1875 -0.2427  0.1655
 4392POPC   C4B90677  19.723  26.127  18.810 -0.0535  0.0514  0.0275
 4393POPC   NC390678  27.790  22.367  13.872 -0.1238  0.3489  0.0886
 4393POPC   PO490679  27.716  22.030  14.087  0.0558  0.2219 -0.1991
 4393POPC   GL190680  27.959  21.970  13.775  0.2537  0.1342  0.1055
 4393POPC   GL290681  28.197  22.086  13.875  0.0749  0.0963  0.0701
 4393POPC   C1A90682  28.043  21.543  13.610  0.2303 -0.0073 -0.4140
 4393POPC   D2A90683  28.045  21.253  13.240  0.2360  0.1395  0.3556
 4393POPC   C3A90684  28.070  20.873  12.980  0.1892  0.0002  0.0599
 4393POPC   C4A90685  28.079  20.405  13.014  0.1507 -0.0732  0.1859
 4393POPC   C1B90686  28.626  21.995  13.837 -0.0624  0.0283  0.0928
 4393POPC   C2B90687  28.896  21.665  13.665  0.0078 -0.0739 -0.1091
 4393POPC   C3B90688  29.100  21.240  13.517 -0.2403 -0.0368  0.2276
 4393POPC   C4B90689  29.252  20.830  13.602 -0.3181 -0.1754  0.3479
 4394POPC   NC390690  29.932  28.368  20.502  0.0406 -0.0438  0.1282
 4394POPC   PO490691  29.790  28.034  20.390 -0.0377  0.1253 -0.0959
 4394POPC   GL190692  30.126  27.939  20.152 -0.2521  0.0243  0.2741
 4394POPC   GL290693  30.194  27.666  20.004  0.0425  0.2432  0.1397
 4394POPC   C1A90694  30.129  28.164  19.797 -0.1744  0.0666  0.2404
 4394POPC   D2A90695  30.467  28.290  19.481 -0.1988  0.0461  0.2324
 4394POPC   C3A90696  30.416  28.304  18.971  0.2108  0.0920  0.1539
 4394POPC   C4A90697  30.061  28.470  18.698  0.0219 -0.0280  0.0070
 4394POPC   C1B90698  29.915  27.776  19.608  0.3029  0.0701  0.2228
 4394POPC   C2B90699  29.768  27.573  19.263  0.2214 -0.1765  0.0404
 4394POPC   C3B90700  29.744  27.769  18.833  0.1413 -0.0991 -0.0479
 4394POPC   C4B90701  29.855  28.004  18.479  0.0592 -0.3588 -0.0266
 4395POPC   NC390702  22.514  17.273  19.566 -0.0411 -0.3041 -0.0651
 4395POPC   PO490703  22.442  16.878  19.651 -0.0778 -0.0500  0.0563
 4395POPC   GL190704  22.565  16.911  19.306 -0.2686 -0.1374 -0.0953
 4395POPC   GL290705  22.542  16.557  19.296  0.0701 -0.2572 -0.1199
 4395POPC   C1A90706  22.471  16.774  18.867 -0.1170 -0.2518 -0.3059
 4395POPC   D2A90707  22.353  16.978  18.405 -0.2221 -0.0003  0.0164
 4395POPC   C3A90708  22.256  16.737  18.098 -0.0562 -0.0319  0.1662
 4395POPC   C4A90709  22.084  16.531  17.726 -0.1527 -0.1946 -0.1465
 4395POPC   C1B90710  22.437  16.295  18.919  0.4590  0.0824  0.0662
 4395POPC   C2B90711  22.413  15.982  18.581  0.2862 -0.1571  0.2435
 4395POPC   C3B90712  22.373  15.687  18.206  0.1367  0.5098 -0.2146
 4395POPC   C4B90713  22.559  15.352  17.937 -0.1453  0.0191  0.1233
 4396POPC   NC390714  23.280  25.671  20.045 -0.0004 -0.1673  0.1389
 4396POPC   PO490715  23.261  25.529  19.680  0.3014  0.1437  0.2288
 4396POPC   GL190716  23.137  25.457  19.300  0.0320  0.0405  0.4334
 4396POPC   GL290717  22.934  25.207  19.340  0.1130  0.1651  0.0665
 4396POPC   C1A90718  23.077  25.548  18.883  0.2161 -0.0065  0.2904
 4396POPC   D2A90719  22.672  25.719  18.738  0.1593 -0.2196 -0.1641
 4396POPC   C3A90720  22.636  25.944  18.324  0.0817 -0.4521  0.3026
 4396POPC   C4A90721  22.398  26.211  17.994 -0.1941  0.1722 -0.0086
 4396POPC   C1B90722  22.664  25.289  18.987  0.0697  0.1055  0.1129
 4396POPC   C2B90723  22.454  25.176  18.608 -0.2225 -0.3051  0.1557
 4396POPC   C3B90724  22.110  25.234  18.298  0.1677  0.2870 -0.1178
 4396POPC   C4B90725  21.914  25.175  17.913 -0.2181 -0.1332 -0.1845
 4397POPC   NC390726  19.312  22.817  19.919 -0.0275 -0.3742  0.2779
 4397POPC   PO490727  19.606  23.139  19.853  0.0247  0.0313  0.1800
 4397POPC   GL190728  19.339  22.861  19.448 -0.5187 -0.0216 -0.4166
 4397POPC   GL290729  19.039  22.740  19.513 -0.0008  0.3196  0.2107
 4397POPC   C1A90730  19.496  22.872  18.986  0.0158  0.2354 -0.1687
 4397POPC   D2A90731  19.562  23.189  18.705 -0.0110 -0.1214  0.1139
 4397POPC   C3A90732  19.403  23.164  18.322 -0.4336 -0.0750 -0.0884
 4397POPC   C4A90733  19.301  23.523  18.101 -0.3031  0.4738  0.1522
 4397POPC   C1B90734  18.963  22.698  19.042  0.2844 -0.0471  0.1967
 4397POPC   C2B90735  19.059  22.900  18.623  0.0047 -0.3248 -0.1673
 4397POPC   C3B90736  19.190  22.668  18.239 -0.0557 -0.0180  0.2291
 4397POPC   C4B90737  18.978  22.347  18.072  0.1387  0.3180 -0.1926
 4398POPC   NC390738  24.566  16.265  19.628 -0.2859 -0.1024  0.3833
 4398POPC   PO490739  24.565  16.342  19.247  0.3243 -0.0053  0.1839
 4398POPC   GL190740  24.610  16.141  18.871 -0.4625  0.2351 -0.0490
 4398POPC   GL290741  24.792  15.926  18.902  0.0731 -0.1405 -0.0232
 4398POPC   C1A90742  24.467  15.908  18.510  0.1821 -0.0598 -0.2510
 4398POPC   D2A90743  24.109  15.748  18.224  0.0183  0.1338 -0.1239
 4398POPC   C3A90744  23.976  15.351  18.370  0.1348 -0.0177  0.0120
 4398POPC   C4A90745  23.593  15.105  18.312 -0.1314  0.2512  0.1383
 4398POPC   C1B90746  24.931  15.958  18.484  0.2786 -0.3135 -0.1278
 4398POPC   C2B90747  24.766  15.850  18.078  0.0116 -0.1919  0.5386
 4398POPC   C3B90748  24.457  15.607  17.832 -0.0275  0.0824  0.2281
 4398POPC   C4B90749  24.202  15.227  17.950  0.0738  0.1749 -0.0167
 4399POPC   NC390750  25.926  18.613  18.846  0.0580 -0.3174  0.0278
 4399POPC   PO490751  26.016  18.285  18.692 -0.2381  0.0862 -0.1118
 4399POPC   GL190752  26.216  18.054  18.459  0.4635 -0.2561 -0.0450
 4399POPC   GL290753  26.420  17.821  18.622  0.0283 -0.2001 -0.0480
 4399POPC   C1A90754  26.369  18.040  18.008 -0.1165 -0.3792 -0.2299
 4399POPC   D2A90755  26.346  17.962  17.570  0.1093 -0.0359 -0.0791
 4399POPC   C3A90756  26.664  18.005  17.223  0.1713 -0.2068 -0.4038
 4399POPC   C4A90757  26.981  18.085  16.862  0.4371  0.0622 -0.0079
 4399POPC   C1B90758  26.186  17.665  18.250  0.1402 -0.0510  0.1024
 4399POPC   C2B90759  26.238  17.434  17.840  0.1072  0.0214  0.0820
 4399POPC   C3B90760  26.258  17.220  17.483  0.1480  0.0289 -0.1037
 4399POPC   C4B90761  26.549  17.014  17.188 -0.2604 -0.0973 -0.3036
 4400POPC   NC390762  23.952  20.029  16.985  0.0195 -0.2703  0.0716
 4400POPC   PO490763  24.226  20.230  16.818  0.1297 -0.0211 -0.1435
 4400POPC   GL190764  23.996  20.003  16.534  0.1611 -0.0063 -0.0977
 4400POPC   GL290765  23.775  20.228  16.511  0.0991 -0.4960 -0.0500
 4400POPC   C1A90766  23.665  19.721  16.461  0.0588  0.0875 -0.2072
 4400POPC   D2A90767  23.458  19.444  16.122  0.1962 -0.0047 -0.0535
 4400POPC   C3A90768  23.069  19.188  16.202 -0.2583 -0.0031 -0.4171
 4400POPC   C4A90769  22.895  18.878  15.962 -0.0748  0.0642  0.4020
 4400POPC   C1B90770  23.750  20.061  16.104 -0.0192 -0.2358 -0.3330
 4400POPC   C2B90771  23.757  19.760  15.754  0.1551  0.0615 -0.0380
 4400POPC   C3B90772  23.473  19.463  15.545 -0.0317  0.3216  0.2945
 4400POPC   C4B90773  23.354  19.051  15.307  0.0939  0.0042  0.1624
 4401POPC   NC390774  30.077  30.309  20.358  0.3875 -0.0115  0.1129
 4401POPC   PO490775  30.210  30.684  20.337  0.1757  0.0779  0.1590
 4401POPC   GL190776  30.017  30.635  20.008 -0.0874  0.0835  0.1290
 4401POPC   GL290777  29.906  30.877  19.980 -0.1539  0.0732 -0.2585
 4401POPC   C1A90778  30.157  30.719  19.552 -0.0940 -0.0589 -0.1763
 4401POPC   D2A90779  30.224  30.680  19.097 -0.0485  0.0040  0.2308
 4401POPC   C3A90780  30.419  30.562  18.715 -0.3315  0.0497  0.1107
 4401POPC   C4A90781  30.264  30.278  18.364  0.0056 -0.2578 -0.2501
 4401POPC   C1B90782  29.808  31.161  19.621 -0.1819 -0.0739  0.1665
 4401POPC   C2B90783  29.633  31.379  19.253  0.0955  0.5021  0.1687
 4401POPC   C3B90784  29.649  31.390  18.772  0.1065  0.0032  0.1652
 4401POPC   C4B90785  29.819  31.180  18.381 -0.1135  0.0027 -0.1135
 4402POPC   NC390786  23.234  21.295  17.885  0.1354 -0.1004  0.3639
 4402POPC   PO490787  23.363  20.911  17.857  0.0431  0.0548  0.1266
 4402POPC   GL190788  23.056  20.939  17.588 -0.2866  0.0011  0.1477
 4402POPC   GL290789  23.169  20.906  17.337  0.1381 -0.0791  0.0994
 4402POPC   C1A90790  22.618  20.872  17.464 -0.2030  0.0163 -0.3540
 4402POPC   D2A90791  22.264  20.638  17.218 -0.1919 -0.0804  0.1897
 4402POPC   C3A90792  22.199  20.892  16.892  0.0762  0.1081 -0.2090
 4402POPC   C4A90793  22.391  21.180  16.642 -0.0952 -0.2744  0.2683
 4402POPC   C1B90794  22.910  21.206  17.212 -0.0544  0.0144  0.3183
 4402POPC   C2B90795  22.490  21.364  17.089  0.2711 -0.0677 -0.0067
 4402POPC   C3B90796  22.112  21.510  16.934 -0.3005  0.1260 -0.2332
 4402POPC   C4B90797  21.935  21.394  16.536 -0.0147  0.0298 -0.3233
 4403POPC   NC390798  27.000  22.971  13.606  0.1363  0.1455  0.0671
 4403POPC   PO490799  26.860  23.292  13.418 -0.0067  0.0883 -0.0530
 4403POPC   GL190800  27.154  23.351  13.139 -0.0448 -0.2485  0.1120
 4403POPC   GL290801  27.387  23.296  13.243  0.2304  0.2433 -0.3230
 4403POPC   C1A90802  27.356  23.789  13.083 -0.0141 -0.2736 -0.0811
 4403POPC   D2A90803  27.553  24.174  13.321  0.1975  0.3084 -0.1110
 4403POPC   C3A90804  27.481  24.596  13.357  0.1110  0.0415 -0.1342
 4403POPC   C4A90805  27.357  24.865  13.686  0.3255 -0.4284  0.0817
 4403POPC   C1B90806  27.846  23.120  13.174  0.1028  0.0011  0.2854
 4403POPC   C2B90807  28.298  23.263  13.121  0.0142 -0.1280  0.0834
 4403POPC   C3B90808  28.329  23.709  13.020  0.1020 -0.1666  0.0923
 4403POPC   C4B90809  28.468  23.925  12.653 -0.1035  0.0065  0.1887
 4404POPC   NC390810   1.549  29.147  20.593 -0.2755  0.2097  0.0680
 4404POPC   PO490811   1.170  28.996  20.683 -0.4129  0.1254  0.0304
 4404POPC   GL190812   1.191  28.946  20.360 -0.1411 -0.0280  0.1508
 4404POPC   GL290813   1.282  29.163  20.215 -0.0168 -0.1099  0.0046
 4404POPC   C1A90814   0.906  28.808  20.023 -0.5519 -0.1077 -0.2884
 4404POPC   D2A90815   0.884  28.741  19.560 -0.1042 -0.1136  0.0658
 4404POPC   C3A90816   0.427  28.643  19.377 -0.0227  0.0696 -0.4187
 4404POPC   C4A90817   0.050  28.649  19.073 -0.0610  0.0254  0.0204
 4404POPC   C1B90818   1.426  29.042  19.789  0.1324  0.0616  0.2355
 4404POPC   C2B90819   1.659  28.795  19.456  0.0168  0.0870 -0.2728
 4404POPC   C3B90820   1.875  28.461  19.172 -0.2728  0.0646 -0.0165
 4404POPC   C4B90821   2.197  28.186  19.183  0.1115  0.1185  0.0798
 4405POPC   NC390822  32.768  23.907  19.828  0.3114 -0.0322 -0.0336
 4405POPC   PO490823  32.563  24.195  20.002 -0.0481 -0.0764 -0.0748
 4405POPC   GL190824  32.486  24.317  19.730 -0.2728  0.2400  0.0774
 4405POPC   GL290825  32.237  24.193  19.623  0.2140 -0.0365 -0.0460
 4405POPC   C1A90826  32.739  24.485  19.346 -0.0974 -0.3661 -0.1916
 4405POPC   D2A90827  33.093  24.558  19.047  0.0096 -0.1211  0.7079
 4405POPC   C3A90828  33.195  24.389  18.632 -0.3644  0.1427  0.0325
 4405POPC   C4A90829  33.431  24.492  18.225 -0.0122 -0.0789 -0.1014
 4405POPC   C1B90830  32.467  24.109  19.227 -0.0252  0.0559 -0.0620
 4405POPC   C2B90831  32.569  23.906  18.862 -0.1878  0.4993  0.1541
 4405POPC   C3B90832  32.581  23.668  18.458  0.0208  0.0968  0.3970
 4405POPC   C4B90833  32.303  23.694  18.054 -0.0147  0.0972 -0.2840
 4406POPC   NC390834  27.866  22.231  15.964 -0.2324  0.0376 -0.2810
 4406POPC   PO490835  27.950  22.531  15.766 -0.0809  0.3247 -0.1843
 4406POPC   GL190836  28.230  22.708  15.762  0.2306  0.1574 -0.2477
 4406POPC   GL290837  28.346  22.934  15.986 -0.3835 -0.3359  0.0139
 4406POPC   C1A90838  28.676  22.529  15.638  0.0383  0.3265 -0.3500
 4406POPC   D2A90839  29.121  22.701  15.517  0.0883  0.0533 -0.4009
 4406POPC   C3A90840  29.116  23.058  15.259  0.1681 -0.0490  0.0383
 4406POPC   C4A90841  29.226  23.521  15.204 -0.2440  0.0133 -0.1514
 4406POPC   C1B90842  28.475  23.063  15.574  0.0918  0.2206 -0.0489
 4406POPC   C2B90843  28.671  22.778  15.213 -0.0860  0.0895 -0.0143
 4406POPC   C3B90844  28.944  22.665  14.885  0.0109 -0.3481 -0.0621
 4406POPC   C4B90845  29.163  22.434  14.565 -0.0091  0.1412 -0.2620
 4407POPC   NC390846  30.621  28.791  20.229  0.0294 -0.1403  0.1109
 4407POPC   PO490847  30.282  28.817  20.433  0.2169 -0.0518 -0.1636
 4407POPC   GL190848  30.148  28.653  20.061 -0.1619 -0.3864 -0.0548
 4407POPC   GL290849  29.903  28.597  20.038 -0.0314 -0.1040 -0.2142
 4407POPC   C1A90850  30.478  28.823  19.715  0.1443  0.0199 -0.1204
 4407POPC   D2A90851  30.850  29.099  19.606 -0.2567 -0.1150  0.2492
 4407POPC   C3A90852  30.830  29.483  19.312  0.0847 -0.1514  0.0297
 4407POPC   C4A90853  30.674  29.504  18.899  0.0010 -0.0404 -0.1860
 4407POPC   C1B90854  29.980  28.560  19.583  0.1003 -0.0418 -0.0133
 4407POPC   C2B90855  29.908  28.679  19.145  0.0388 -0.0841 -0.2504
 4407POPC   C3B90856  29.797  28.944  18.815 -0.0048  0.0155  0.0324
 4407POPC   C4B90857  29.664  28.780  18.400  0.2972  0.1873 -0.1286
 4408POPC   NC390858  24.920  21.607  16.711  0.2192  0.2454  0.0524
 4408POPC   PO490859  25.032  21.970  16.633 -0.1410  0.0417 -0.0006
 4408POPC   GL190860  24.692  22.175  16.517 -0.1608 -0.3692  0.0364
 4408POPC   GL290861  24.543  22.425  16.509  0.0468 -0.0867 -0.4971
 4408POPC   C1A90862  24.208  22.091  16.538  0.0734  0.1527  0.2731
 4408POPC   D2A90863  23.744  22.088  16.644  0.2078 -0.0715  0.1170
 4408POPC   C3A90864  23.361  22.257  16.408 -0.0549 -0.4735  0.0248
 4408POPC   C4A90865  23.054  22.377  16.097  0.2124  0.0603 -0.1626
 4408POPC   C1B90866  24.250  22.773  16.405  0.0375  0.1494 -0.3236
 4408POPC   C2B90867  24.003  23.109  16.400  0.2416  0.2327 -0.2961
 4408POPC   C3B90868  23.567  23.134  16.293  0.0930 -0.1601 -0.2134
 4408POPC   C4B90869  23.241  23.133  15.975  0.0008  0.1448  0.0535
 4409POPC   NC390870  30.362  27.431  20.457  0.2596 -0.2780  0.0488
 4409POPC   PO490871  30.478  27.798  20.419  0.1431 -0.3206 -0.2680
 4409POPC   GL190872  30.582  27.905  20.093  0.2398 -0.2956 -0.3846
 4409POPC   GL290873  30.838  27.734  20.021 -0.2049  0.0084 -0.0831
 4409POPC   C1A90874  30.540  27.850  19.684  0.0280  0.1068 -0.0297
 4409POPC   D2A90875  30.746  27.921  19.231  0.2857 -0.1898 -0.1179
 4409POPC   C3A90876  30.538  27.854  18.804 -0.2015 -0.2607 -0.2287
 4409POPC   C4A90877  30.394  28.156  18.451 -0.2593 -0.3142  0.0747
 4409POPC   C1B90878  31.040  27.953  19.708  0.2144  0.2737  0.0940
 4409POPC   C2B90879  31.107  28.219  19.297  0.0437 -0.1364  0.2459
 4409POPC   C3B90880  30.962  28.199  18.818 -0.2191  0.0503  0.0700
 4409POPC   C4B90881  30.872  27.995  18.460  0.0294 -0.1533  0.0439
 4410POPC   NC390882  26.060  23.869  16.557 -0.0432 -0.0355 -0.0860
 4410POPC   PO490883  26.043  23.561  16.338 -0.1144 -0.0359 -0.0627
 4410POPC   GL190884  25.850  23.863  16.123  0.0378  0.0088 -0.4727
 4410POPC   GL290885  25.915  24.072  15.861  0.3548 -0.0203 -0.0584
 4410POPC   C1A90886  25.402  24.003  16.019  0.2640  0.3488  0.1962
 4410POPC   D2A90887  24.959  24.146  15.835 -0.1380  0.0207  0.0968
 4410POPC   C3A90888  24.543  24.128  15.673  0.0586 -0.1420  0.0289
 4410POPC   C4A90889  24.211  24.431  15.643  0.0838 -0.1319 -0.0137
 4410POPC   C1B90890  25.561  24.387  15.796 -0.1565  0.2626  0.3968
 4410POPC   C2B90891  25.193  24.507  15.575 -0.0837 -0.0911  0.1363
 4410POPC   C3B90892  24.755  24.513  15.333  0.0394 -0.1285  0.1009
 4410POPC   C4B90893  24.383  24.572  15.041  0.1311  0.1006  0.2595
 4411POPC   NC390894  26.992  28.856  20.133 -0.2282 -0.0035 -0.1478
 4411POPC   PO490895  26.849  28.454  20.274 -0.4647 -0.0331  0.4257
 4411POPC   GL190896  26.926  28.488  19.828 -0.1108  0.0288 -0.0588
 4411POPC   GL290897  26.983  28.705  19.676  0.0673 -0.0895  0.0103
 4411POPC   C1A90898  27.114  28.166  19.530  0.2075 -0.0725 -0.2386
 4411POPC   D2A90899  27.288  27.709  19.519  0.0787 -0.1712  0.3532
 4411POPC   C3A90900  26.924  27.423  19.338  0.1225  0.0268  0.3931
 4411POPC   C4A90901  26.624  27.185  19.045 -0.0483 -0.0479  0.1758
 4411POPC   C1B90902  26.581  28.670  19.506 -0.1536 -0.0414  0.0422
 4411POPC   C2B90903  26.356  28.848  19.171 -0.0847 -0.1788 -0.0019
 4411POPC   C3B90904  26.527  29.011  18.791 -0.0230 -0.2647  0.1171
 4411POPC   C4B90905  26.824  28.966  18.470 -0.0692 -0.0653  0.0262
 4412POPC   NC390906   0.923  23.920  19.846 -0.1610  0.0222 -0.0746
 4412POPC   PO490907   0.842  24.273  20.023  0.0696  0.0352 -0.0860
 4412POPC   GL190908   0.851  24.606  19.702 -0.1958 -0.2545 -0.0743
 4412POPC   GL290909   1.076  24.796  19.788 -0.2270 -0.7263 -0.0311
 4412POPC   C1A90910   0.989  24.497  19.256  0.0829  0.0550 -0.2370
 4412POPC   D2A90911   0.795  24.601  18.860  0.3701 -0.3581 -0.1011
 4412POPC   C3A90912   0.977  24.903  18.497  0.2603 -0.1371 -0.0690
 4412POPC   C4A90913   0.972  25.277  18.233 -0.2153  0.0310 -0.4108
 4412POPC   C1B90914   1.289  24.939  19.414  0.0999 -0.0024  0.0750
 4412POPC   C2B90915   1.512  24.884  19.020  0.0671  0.0621 -0.2252
 4412POPC   C3B90916   1.435  25.093  18.612  0.0719 -0.0804  0.0723
 4412POPC   C4B90917   1.450  24.905  18.164 -0.0134 -0.3167 -0.0598
 4413POPC   NC390918  27.537  32.187  19.977 -0.0570 -0.0444  0.0517
 4413POPC   PO490919  27.238  31.956  19.910  0.0990  0.0615 -0.0521
 4413POPC   GL190920  27.360  31.946  19.535  0.0245  0.1318 -0.1234
 4413POPC   GL290921  27.165  32.154  19.355  0.4553  0.0179 -0.0514
 4413POPC   C1A90922  27.448  31.675  19.102  0.0080  0.1949 -0.2115
 4413POPC   D2A90923  27.693  31.688  18.743 -0.0255  0.0988  0.3468
 4413POPC   C3A90924  27.834  31.259  18.654  0.0135  0.0766 -0.2238
 4413POPC   C4A90925  28.005  30.875  18.581 -0.3412 -0.0077  0.0341
 4413POPC   C1B90926  27.298  32.350  18.977  0.1584 -0.0776 -0.1568
 4413POPC   C2B90927  27.579  32.204  18.627 -0.2278  0.0433  0.3836
 4413POPC   C3B90928  27.895  31.968  18.347 -0.1073 -0.2137 -0.4644
 4413POPC   C4B90929  28.215  31.986  18.015  0.0234 -0.0916 -0.1194
 4414POPC   NC390930  20.424  18.504  19.985 -0.0942 -0.0540 -0.2200
 4414POPC   PO490931  20.188  18.747  19.898  0.0348 -0.0849  0.3108
 4414POPC   GL190932  19.941  18.683  19.583 -0.1179  0.0450  0.3049
 4414POPC   GL290933  20.102  18.743  19.339 -0.6070  0.2184 -0.2741
 4414POPC   C1A90934  19.744  18.377  19.317 -0.1904  0.1594  0.2193
 4414POPC   D2A90935  19.672  18.154  18.916  0.1405 -0.1405 -0.1410
 4414POPC   C3A90936  19.735  18.107  18.491  0.5658  0.1534 -0.2709
 4414POPC   C4A90937  20.053  18.028  18.207  0.0627  0.2748 -0.3833
 4414POPC   C1B90938  20.255  18.484  18.989  0.4882 -0.0312 -0.1937
 4414POPC   C2B90939  20.187  18.235  18.651 -0.3869  0.0303 -0.0106
 4414POPC   C3B90940  20.502  17.893  18.449 -0.0875 -0.1057 -0.1617
 4414POPC   C4B90941  20.643  17.657  18.111 -0.0580 -0.1445  0.2376
 4415POPC   NC390942  27.628  23.456  16.071 -0.0347  0.3804 -0.0939
 4415POPC   PO490943  27.433  23.139  16.182  0.2749 -0.2108  0.0153
 4415POPC   GL190944  27.160  23.320  16.001 -0.2007 -0.0748  0.2887
 4415POPC   GL290945  27.197  23.238  15.725 -0.1000 -0.1839 -0.0018
 4415POPC   C1A90946  27.286  23.804  15.944 -0.2167  0.1341 -0.0605
 4415POPC   D2A90947  27.625  24.107  15.906  0.4015  0.1788 -0.1282
 4415POPC   C3A90948  27.611  24.555  16.037  0.3747 -0.1026  0.0273
 4415POPC   C4A90949  27.644  24.958  16.303  0.0854 -0.1787 -0.3094
 4415POPC   C1B90950  27.284  23.645  15.454  0.1241  0.0085  0.1945
 4415POPC   C2B90951  27.394  24.095  15.397 -0.0648  0.4635 -0.1760
 4415POPC   C3B90952  27.625  24.434  15.566 -0.1140 -0.4021 -0.0157
 4415POPC   C4B90953  27.784  24.885  15.579 -0.0908 -0.1579  0.0950
 4416POPC   NC390954  25.352  18.517  18.365 -0.0727  0.2738 -0.0323
 4416POPC   PO490955  25.427  18.717  18.028 -0.0587 -0.0324  0.3270
 4416POPC   GL190956  25.378  18.682  17.566 -0.1641  0.3170  0.0670
 4416POPC   GL290957  25.173  18.483  17.655  0.2535 -0.0103 -0.2977
 4416POPC   C1A90958  25.190  18.577  17.133  0.3266 -0.0304 -0.1953
 4416POPC   D2A90959  25.097  18.320  16.745  0.0565  0.2266 -0.2597
 4416POPC   C3A90960  24.845  17.964  16.648  0.0891 -0.0007  0.0119
 4416POPC   C4A90961  24.591  17.585  16.760  0.1349 -0.1880  0.1767
 4416POPC   C1B90962  25.053  18.174  17.355  0.2038  0.2354  0.4019
 4416POPC   C2B90963  24.652  18.282  17.024 -0.0416  0.0918 -0.0922
 4416POPC   C3B90964  24.271  18.162  16.838 -0.0774 -0.2304  0.0411
 4416POPC   C4B90965  23.810  18.063  16.850  0.0014 -0.0507 -0.0616
 4417POPC   NC390966  32.184  16.105  19.995 -0.0997  0.1741 -0.0578
 4417POPC   PO490967  31.842  16.125  19.805  0.0603 -0.1097  0.4339
 4417POPC   GL190968  31.747  16.087  19.460 -0.0661 -0.2124 -0.3456
 4417POPC   GL290969  31.613  15.806  19.563  0.3043  0.0883 -0.2458
 4417POPC   C1A90970  31.387  16.038  19.183 -0.0856 -0.1895  0.2830
 4417POPC   D2A90971  31.282  15.748  18.836  0.0272 -0.1994 -0.2835
 4417POPC   C3A90972  31.106  15.788  18.383 -0.0235  0.0221 -0.1416
 4417POPC   C4A90973  31.149  15.845  17.901  0.1133 -0.0620  0.1377
 4417POPC   C1B90974  31.805  15.708  19.173 -0.0957  0.1807  0.0714
 4417POPC   C2B90975  31.841  15.503  18.815  0.0491 -0.0444  0.1795
 4417POPC   C3B90976  32.241  15.482  18.565 -0.2567  0.1107  0.1653
 4417POPC   C4B90977  32.436  15.355  18.152 -0.0419  0.0148 -0.3750
 4418POPC   NC390978  29.588  26.100  19.730  0.1524  0.0165  0.3133
 4418POPC   PO490979  29.836  26.291  19.938  0.0585 -0.1294 -0.1711
 4418POPC   GL190980  29.913  26.403  19.601 -0.2352 -0.0827  0.2565
 4418POPC   GL290981  30.164  26.475  19.647  0.0277 -0.1932  0.0271
 4418POPC   C1A90982  29.840  26.217  19.166 -0.0656 -0.0928 -0.1925
 4418POPC   D2A90983  29.781  26.353  18.706 -0.1658  0.0963  0.1972
 4418POPC   C3A90984  29.964  26.543  18.360  0.1362  0.1730  0.2919
 4418POPC   C4A90985  30.101  26.522  17.936 -0.1046  0.0069  0.1397
 4418POPC   C1B90986  29.985  26.667  19.218  0.1373  0.2342 -0.0631
 4418POPC   C2B90987  30.036  26.892  18.816  0.2055 -0.0590 -0.0396
 4418POPC   C3B90988  30.111  27.045  18.407  0.1045 -0.2489  0.3813
 4418POPC   C4B90989  29.918  26.981  17.984  0.4777  0.0493 -0.3682
 4419POPC   NC390990  24.891  16.744  19.298 -0.0803  0.1749  0.0019
 4419POPC   PO490991  25.173  16.861  19.009  0.0328  0.3997  0.1385
 4419POPC   GL190992  24.929  16.797  18.647 -0.4057 -0.2487  0.0864
 4419POPC   GL290993  24.710  16.861  18.800 -0.2194 -0.1550 -0.1359
 4419POPC   C1A90994  24.631  17.021  18.346 -0.1489 -0.2506  0.0021
 4419POPC   D2A90995  24.580  16.724  18.024 -0.0639 -0.2652  0.0161
 4419POPC   C3A90996  24.493  16.626  17.639  0.3910 -0.1944 -0.0107
 4419POPC   C4A90997  24.307  16.680  17.205  0.1384 -0.2216 -0.1065
 4419POPC   C1B90998  24.628  16.499  18.544  0.2825  0.1019 -0.0928
 4419POPC   C2B90999  24.826  16.348  18.146  0.1493  0.1823 -0.0077
 4419POPC   C3B91000  25.089  16.372  17.717 -0.1237  0.1215 -0.0512
 4419POPC   C4B91001  25.472  16.619  17.568 -0.1068  0.1454  0.1842
 4420POPC   NC391002  26.976  30.408  20.348  0.2090  0.0317  0.0536
 4420POPC   PO491003  26.760  30.591  20.096 -0.0673 -0.1766 -0.3190
 4420POPC   GL191004  26.883  30.734  19.743 -0.2460  0.2619  0.1866
 4420POPC   GL291005  26.746  30.580  19.533 -0.0081  0.0442  0.2649
 4420POPC   C1A91006  26.994  30.992  19.322 -0.0387  0.2403  0.2592
 4420POPC   D2A91007  27.084  31.348  19.075  0.2619 -0.1197 -0.4459
 4420POPC   C3A91008  27.327  31.333  18.681  0.1658 -0.0556 -0.2137
 4420POPC   C4A91009  27.483  31.203  18.287  0.1193 -0.2757 -0.1635
 4420POPC   C1B91010  26.924  30.204  19.233 -0.0699  0.2870 -0.3755
 4420POPC   C2B91011  27.031  30.002  18.780  0.1555  0.0848  0.1058
 4420POPC   C3B91012  27.349  29.654  18.768 -0.0784 -0.3313  0.0054
 4420POPC   C4B91013  27.681  29.350  18.662  0.3800  0.0830 -0.1934
 4421POPC   NC391014  18.235  16.380  19.954 -0.0689 -0.1009 -0.0431
 4421POPC   PO491015  18.107  16.059  20.180  0.0006 -0.1525 -0.0712
 4421POPC   GL191016  18.173  15.893  19.796  0.1795 -0.0575 -0.0378
 4421POPC   GL291017  18.435  15.852  19.775 -0.1727 -0.2374  0.0969
 4421POPC   C1A91018  18.019  15.825  19.342  0.2592  0.3315 -0.0326
 4421POPC   D2A91019  18.396  15.794  19.105  0.1429  0.0168  0.3607
 4421POPC   C3A91020  18.582  15.503  18.860 -0.0257  0.1753  0.1038
 4421POPC   C4A91021  18.917  15.302  18.613 -0.2766  0.0523  0.2446
 4421POPC   C1B91022  18.519  16.095  19.412 -0.0191  0.0720 -0.3815
 4421POPC   C2B91023  18.655  16.213  19.043 -0.0475  0.1821 -0.1276
 4421POPC   C3B91024  18.780  16.316  18.681  0.2296 -0.2866 -0.3471
 4421POPC   C4B91025  19.102  16.411  18.352  0.2512 -0.1660  0.0302
 4422POPC   NC391026  16.274  25.519  20.155  0.1965 -0.1656 -0.0359
 4422POPC   PO491027  16.616  25.370  20.237  0.1231  0.1856  0.2368
 4422POPC   GL191028  16.664  25.498  19.943 -0.1616 -0.0714 -0.1954
 4422POPC   GL291029  16.512  25.486  19.631  0.0704  0.1092 -0.1394
 4422POPC   C1A91030  16.769  25.884  19.754  0.0461  0.0621  0.3405
 4422POPC   D2A91031  17.022  26.278  19.565 -0.0756 -0.2554  0.2870
 4422POPC   C3A91032  17.297  25.978  19.405  0.1734  0.3133  0.1930
 4422POPC   C4A91033  17.371  25.692  19.059 -0.0583  0.0441  0.2183
 4422POPC   C1B91034  16.243  25.292  19.298 -0.0040  0.0482 -0.0949
 4422POPC   C2B91035  16.059  25.273  18.835 -0.3850  0.0718 -0.2766
 4422POPC   C3B91036  15.619  25.162  18.776  0.0751  0.0147 -0.1008
 4422POPC   C4B91037  15.236  24.920  18.812  0.2125 -0.0143 -0.0771
 4423POPC   NC391038  17.543  26.568  20.577  0.0108  0.0245 -0.2455
 4423POPC   PO491039  17.700  26.162  20.550 -0.2788  0.2180 -0.1451
 4423POPC   GL191040  17.699  26.183  20.191  0.2052 -0.0165  0.1793
 4423POPC   GL291041  17.930  26.342  20.082 -0.0583 -0.2315  0.0980
 4423POPC   C1A91042  17.686  26.020  19.746  0.3270  0.0828 -0.0402
 4423POPC   D2A91043  17.830  25.940  19.271  0.1394 -0.1972 -0.2382
 4423POPC   C3A91044  17.674  25.964  18.833 -0.1832  0.1838 -0.1701
 4423POPC   C4A91045  17.657  26.210  18.447  0.3300 -0.0688 -0.1337
 4423POPC   C1B91046  17.983  26.338  19.637 -0.0690  0.0302  0.2578
 4423POPC   C2B91047  17.799  26.434  19.273 -0.0507 -0.1273  0.3637
 4423POPC   C3B91048  17.650  26.481  18.884  0.1004 -0.3806 -0.2210
 4423POPC   C4B91049  17.348  26.632  18.547 -0.1738 -0.2391  0.0577
 4424POPC   NC391050  19.316  28.139  20.899  0.0833 -0.0261  0.0833
 4424POPC   PO491051  19.065  28.131  20.591 -0.3190  0.0247 -0.1669
 4424POPC   GL191052  19.306  28.162  20.191  0.3999  0.2645  0.2818
 4424POPC   GL291053  19.263  28.017  19.973  0.0337  0.1291 -0.1754
 4424POPC   C1A91054  19.734  28.226  20.105  0.0996 -0.3828  0.2333
 4424POPC   D2A91055  20.125  28.303  19.908 -0.1403  0.1322  0.4112
 4424POPC   C3A91056  20.086  28.406  19.510  0.0794  0.2419  0.0791
 4424POPC   C4A91057  19.850  28.392  19.098  0.0172  0.0040 -0.0378
 4424POPC   C1B91058  19.288  27.536  19.942 -0.0552 -0.1455  0.0776
 4424POPC   C2B91059  19.552  27.343  19.630  0.0807 -0.0626  0.0531
 4424POPC   C3B91060  19.708  26.933  19.566 -0.1482 -0.0505 -0.1637
 4424POPC   C4B91061  19.598  26.546  19.775 -0.1324  0.0729 -0.3476
 4425POPC   NC391062  21.395  28.334  20.952  0.1043 -0.0301 -0.3570
 4425POPC   PO491063  21.679  28.602  20.766  0.0332 -0.3249 -0.4079
 4425POPC   GL191064  21.678  28.772  20.363  0.1664  0.1591  0.2200
 4425POPC   GL291065  21.802  28.649  20.184 -0.0492  0.2439  0.3417
 4425POPC   C1A91066  21.292  28.707  20.117  0.4510 -0.0511  0.1296
 4425POPC   D2A91067  20.795  28.713  20.020  0.0954 -0.1336  0.1358
 4425POPC   C3A91068  20.603  28.406  19.673  0.0545 -0.2639 -0.0239
 4425POPC   C4A91069  20.761  28.095  19.376 -0.0817 -0.0106 -0.1399
 4425POPC   C1B91070  22.094  28.718  19.828 -0.1648  0.5886  0.1827
 4425POPC   C2B91071  22.211  29.110  19.599 -0.0861 -0.3488 -0.0331
 4425POPC   C3B91072  22.471  29.459  19.410 -0.5395  0.4131  0.0507
 4425POPC   C4B91073  22.655  29.609  18.993 -0.3205  0.3042 -0.0236
 4426POPC   NC391074  30.918  15.822  19.905 -0.0186  0.0620  0.3762
 4426POPC   PO491075  30.579  15.944  20.050  0.0637  0.1249 -0.0043
 4426POPC   GL191076  30.356  15.862  19.680  0.0934  0.5033  0.0901
 4426POPC   GL291077  30.243  15.601  19.770  0.0762  0.0993 -0.0324
 4426POPC   C1A91078  30.562  15.692  19.269 -0.5009 -0.3301 -0.1481
 4426POPC   D2A91079  30.904  15.467  18.957 -0.0593  0.2240 -0.0716
 4426POPC   C3A91080  31.101  15.360  18.547  0.0318  0.1701 -0.0614
 4426POPC   C4A91081  30.958  15.243  18.173 -0.0986 -0.0456 -0.3838
 4426POPC   C1B91082  30.619  15.347  19.633 -0.1081 -0.3527 -0.1613
 4426POPC   C2B91083  31.007  15.121  19.403 -0.0934  0.0160 -0.0444
 4426POPC   C3B91084  31.063  14.983  18.937  0.1972 -0.2494 -0.1050
 4426POPC   C4B91085  31.188  14.853  18.524 -0.2015 -0.1437  0.3896
 4427POPC   NC391086  18.158  21.977  19.639  0.0557  0.3451 -0.3850
 4427POPC   PO491087  17.769  21.890  19.686 -0.1000  0.1685 -0.1600
 4427POPC   GL191088  17.544  22.088  19.393  0.2197  0.1380  0.0604
 4427POPC   GL291089  17.443  22.385  19.273  0.1655  0.2515  0.2646
 4427POPC   C1A91090  17.740  22.141  18.944  0.1804 -0.2821 -0.1711
 4427POPC   D2A91091  17.897  22.453  18.689  0.0298 -0.0983 -0.3391
 4427POPC   C3A91092  18.341  22.481  18.672  0.1051  0.0112 -0.1219
 4427POPC   C4A91093  18.797  22.428  18.575  0.2097 -0.1013 -0.1029
 4427POPC   C1B91094  17.753  22.700  19.084  0.0199 -0.2196  0.1141
 4427POPC   C2B91095  18.041  22.923  18.836  0.0362 -0.0843  0.0926
 4427POPC   C3B91096  18.135  23.119  18.368  0.0764 -0.0405 -0.1579
 4427POPC   C4B91097  18.055  23.406  18.012 -0.0839  0.2561 -0.1133
 4428POPC   NC391098  25.363  31.650  19.745  0.0059 -0.0303 -0.2669
 4428POPC   PO491099  25.762  31.636  19.741  0.0437 -0.3475 -0.4654
 4428POPC   GL191100  25.802  31.302  19.676  0.1950  0.0277  0.0756
 4428POPC   GL291101  25.463  31.152  19.592 -0.0694 -0.1200  0.0270
 4428POPC   C1A91102  25.989  31.257  19.280 -0.1707 -0.0771 -0.0406
 4428POPC   D2A91103  26.136  30.919  19.019 -0.1062 -0.3224  0.2169
 4428POPC   C3A91104  26.184  30.468  18.978 -0.1249  0.0118 -0.1003
 4428POPC   C4A91105  26.488  30.164  18.965 -0.1899  0.1583 -0.1307
 4428POPC   C1B91106  25.568  31.004  19.103 -0.2129 -0.1981 -0.1908
 4428POPC   C2B91107  25.733  30.884  18.716  0.2330  0.3321  0.0811
 4428POPC   C3B91108  25.891  30.449  18.623  0.0845 -0.1382  0.0794
 4428POPC   C4B91109  26.281  30.233  18.529  0.1982  0.0456 -0.2748
 4429POPC   NC391110  29.808  18.614  19.101  0.0957 -0.0238 -0.0501
 4429POPC   PO491111  30.176  18.724  19.254 -0.3862 -0.0725  0.4459
 4429POPC   GL191112  30.231  18.591  18.874 -0.0538  0.1491  0.1449
 4429POPC   GL291113  30.474  18.699  18.754  0.0645  0.0525  0.0038
 4429POPC   C1A91114  30.227  18.276  18.541  0.1227  0.0167 -0.1373
 4429POPC   D2A91115  30.425  18.042  18.206 -0.1510 -0.1139  0.1108
 4429POPC   C3A91116  30.269  18.229  17.797  0.0179 -0.0514  0.1737
 4429POPC   C4A91117  30.383  18.302  17.382  0.0798 -0.1577  0.0382
 4429POPC   C1B91118  30.543  18.563  18.311 -0.0937 -0.2342  0.1190
 4429POPC   C2B91119  30.779  18.355  17.997  0.0586  0.1654 -0.1010
 4429POPC   C3B91120  30.767  18.141  17.620  0.0134  0.2854 -0.3160
 4429POPC   C4B91121  30.856  18.030  17.179  0.1281 -0.1533  0.0047
 4430POPC   NC391122  24.193  28.761  20.857  0.1332 -0.1739 -0.4693
 4430POPC   PO491123  23.860  28.963  20.983 -0.0045 -0.2299  0.0224
 4430POPC   GL191124  23.924  29.031  20.595 -0.0360 -0.0409 -0.3691
 4430POPC   GL291125  23.999  29.352  20.483 -0.0095  0.2893 -0.0760
 4430POPC   C1A91126  23.589  29.048  20.291 -0.2403 -0.1600  0.0346
 4430POPC   D2A91127  23.245  29.228  20.021  0.4476 -0.0897  0.0971
 4430POPC   C3A91128  23.092  29.599  19.885  0.0381 -0.0301 -0.1883
 4430POPC   C4A91129  22.831  29.935  19.650 -0.3560 -0.0109 -0.0090
 4430POPC   C1B91130  23.900  29.368  20.052 -0.1277 -0.1687 -0.2732
 4430POPC   C2B91131  23.968  29.230  19.614  0.2198  0.2817  0.0283
 4430POPC   C3B91132  24.020  29.295  19.129 -0.0029  0.2950  0.0304
 4430POPC   C4B91133  24.057  29.458  18.714  0.1135  0.2296 -0.0219
 4431POPC   NC391134  29.383  26.562  20.293  0.0193 -0.0631 -0.0583
 4431POPC   PO491135  29.231  26.394  19.963 -0.0895  0.0045  0.0121
 4431POPC   GL191136  29.218  26.720  19.859 -0.0349  0.0579  0.1840
 4431POPC   GL291137  29.550  26.766  19.729 -0.1248  0.1082  0.1420
 4431POPC   C1A91138  29.272  27.118  19.581 -0.1680 -0.1320 -0.1936
 4431POPC   D2A91139  29.192  27.300  19.133  0.0282  0.0638 -0.3004
 4431POPC   C3A91140  29.252  27.735  18.986  0.2024  0.0427  0.1762
 4431POPC   C4A91141  29.306  28.042  18.623  0.3937 -0.0319  0.3317
 4431POPC   C1B91142  29.403  26.626  19.334 -0.3273 -0.0708  0.1640
 4431POPC   C2B91143  29.522  26.740  18.867 -0.1906  0.0282 -0.0141
 4431POPC   C3B91144  29.661  26.952  18.493 -0.0004  0.0703  0.0705
 4431POPC   C4B91145  29.517  27.249  18.152 -0.1107 -0.0612 -0.1329
 4432POPC   NC391146  30.505  24.406  19.124  0.1075 -0.2809  0.0003
 4432POPC   PO491147  30.104  24.431  19.104 -0.0006  0.1437  0.2198
 4432POPC   GL191148  30.223  24.356  18.729  0.1872  0.1553  0.0512
 4432POPC   GL291149  30.111  24.176  18.502 -0.4515 -0.2129  0.2704
 4432POPC   C1A91150  30.340  24.615  18.346  0.1402  0.2301 -0.2587
 4432POPC   D2A91151  30.154  24.743  18.040 -0.1693 -0.2744 -0.1905
 4432POPC   C3A91152  30.170  25.134  17.770 -0.1030 -0.0565  0.0604
 4432POPC   C4A91153  30.294  25.548  17.622  0.0366 -0.0875 -0.0704
 4432POPC   C1B91154  30.038  23.925  18.135  0.0588  0.1903  0.0085
 4432POPC   C2B91155  30.093  23.961  17.653  0.0089 -0.1957  0.1431
 4432POPC   C3B91156  30.130  24.185  17.234  0.1207 -0.1549  0.3102
 4432POPC   C4B91157  30.511  24.542  17.208 -0.1043 -0.2629 -0.0249
 4433POPC   NC391158  24.357  16.810  19.165 -0.1219  0.0350 -0.3114
 4433POPC   PO491159  24.212  17.177  19.250 -0.0502 -0.0978  0.0625
 4433POPC   GL191160  24.322  17.168  18.906  0.2052  0.5383  0.2285
 4433POPC   GL291161  24.423  17.270  18.722  0.1453 -0.6241 -0.1247
 4433POPC   C1A91162  24.275  16.791  18.620  0.3227  0.1685  0.4149
 4433POPC   D2A91163  24.145  16.750  18.149  0.3203  0.1571 -0.2620
 4433POPC   C3A91164  24.044  16.492  17.765  0.0192  0.2306  0.0642
 4433POPC   C4A91165  24.093  16.295  17.365 -0.0244 -0.1299  0.1822
 4433POPC   C1B91166  24.082  17.214  18.422 -0.1354 -0.1826 -0.3572
 4433POPC   C2B91167  23.772  17.053  18.066  0.1663 -0.1075  0.2360
 4433POPC   C3B91168  23.460  16.849  17.775  0.2706  0.4065 -0.0056
 4433POPC   C4B91169  23.158  16.818  17.447 -0.0683  0.2476 -0.1998
 4434POPC   NC391170  19.584  31.875  20.142  0.0384 -0.0228 -0.2623
 4434POPC   PO491171  19.677  32.159  20.383  0.0312 -0.0204  0.0086
 4434POPC   GL191172  19.718  32.345  20.003  0.0686 -0.2761 -0.2099
 4434POPC   GL291173  19.619  32.272  19.781  0.1711  0.0755  0.1404
 4434POPC   C1A91174  20.054  32.385  19.687 -0.3265  0.5356  0.0076
 4434POPC   D2A91175  20.272  32.479  19.322 -0.2091 -0.1249  0.1524
 4434POPC   C3A91176  20.440  32.278  18.935 -0.1718  0.0156 -0.0140
 4434POPC   C4A91177  20.449  32.029  18.532 -0.0011 -0.1847  0.0494
 4434POPC   C1B91178  19.367  32.096  19.472  0.3077 -0.0325 -0.4474
 4434POPC   C2B91179  19.154  31.881  19.163 -0.0396 -0.0878 -0.0735
 4434POPC   C3B91180  18.849  31.540  19.139  0.0837 -0.1178  0.0372
 4434POPC   C4B91181  18.631  31.171  19.035  0.1704  0.1820 -0.4544
 4435POPC   NC391182  22.809  27.297  20.314 -0.1706 -0.4147  0.1874
 4435POPC   PO491183  23.164  27.363  20.237 -0.2710  0.0618 -0.1157
 4435POPC   GL191184  23.144  27.402  19.878 -0.1564 -0.4899 -0.0274
 4435POPC   GL291185  22.884  27.282  19.775 -0.1934 -0.1369  0.1623
 4435POPC   C1A91186  23.484  27.436  19.572 -0.1080  0.0013  0.1119
 4435POPC   D2A91187  23.556  27.402  19.177 -0.3476  0.0167 -0.1723
 4435POPC   C3A91188  23.862  27.697  18.867 -0.2725  0.0209 -0.2574
 4435POPC   C4A91189  24.184  27.806  18.549 -0.0861  0.3105  0.0440
 4435POPC   C1B91190  22.924  27.487  19.339  0.0694  0.0617 -0.0071
 4435POPC   C2B91191  23.192  27.614  18.915  0.1941 -0.0819 -0.1181
 4435POPC   C3B91192  23.473  27.444  18.590  0.0960  0.0110 -0.1035
 4435POPC   C4B91193  23.171  27.435  18.210  0.2589  0.0887 -0.0472
 4436POPC   NC391194  25.486  24.948  18.124 -0.4283  0.0198 -0.3380
 4436POPC   PO491195  25.842  24.773  18.258  0.1388  0.2034 -0.0061
 4436POPC   GL191196  25.929  25.120  18.077 -0.1118 -0.0682 -0.2065
 4436POPC   GL291197  25.848  25.339  18.286 -0.0925 -0.0344  0.1674
 4436POPC   C1A91198  25.721  25.289  17.698 -0.1141  0.0363  0.1244
 4436POPC   D2A91199  25.549  25.683  17.513 -0.0058  0.2503  0.0539
 4436POPC   C3A91200  25.184  25.864  17.297  0.0258 -0.1879  0.0456
 4436POPC   C4A91201  24.949  26.221  17.077 -0.0687  0.1447  0.0078
 4436POPC   C1B91202  25.607  25.652  18.028  0.0272 -0.0229  0.1530
 4436POPC   C2B91203  25.301  25.938  17.862  0.0044 -0.0714 -0.0661
 4436POPC   C3B91204  25.063  26.264  17.632 -0.0438 -0.1577  0.1346
 4436POPC   C4B91205  24.713  26.507  17.436  0.1964  0.3705 -0.1978
 4437POPC   NC391206  24.607  22.450  17.698  0.0907 -0.1113 -0.0187
 4437POPC   PO491207  24.474  22.691  17.390 -0.1970  0.0295 -0.2903
 4437POPC   GL191208  24.166  22.552  17.308 -0.1526 -0.0603 -0.1299
 4437POPC   GL291209  24.203  22.383  17.090  0.0165 -0.1884  0.1900
 4437POPC   C1A91210  23.847  22.862  17.074  0.2418 -0.0107  0.1228
 4437POPC   D2A91211  23.551  23.100  16.767  0.0905  0.0491 -0.0794
 4437POPC   C3A91212  23.275  23.341  17.084  0.1891 -0.1434  0.0605
 4437POPC   C4A91213  22.805  23.384  17.146 -0.0332 -0.1293 -0.0469
 4437POPC   C1B91214  24.032  22.506  16.759  0.6293  0.1068 -0.0709
 4437POPC   C2B91215  23.775  22.645  16.419  0.1073 -0.4947 -0.1148
 4437POPC   C3B91216  23.579  22.693  15.990 -0.0264  0.2546  0.0376
 4437POPC   C4B91217  23.289  22.690  15.660 -0.0507  0.0896  0.0603
 4438POPC   NC391218  23.663  27.311  20.168  0.1000  0.2392 -0.0483
 4438POPC   PO491219  23.756  27.732  20.282  0.1036  0.0329 -0.1468
 4438POPC   GL191220  23.809  27.868  19.951  0.4336 -0.0349  0.0497
 4438POPC   GL291221  23.770  27.819  19.600  0.1669  0.0009  0.0136
 4438POPC   C1A91222  23.978  28.284  19.762 -0.6573  0.0480 -0.2312
 4438POPC   D2A91223  24.431  28.359  19.681 -0.3602 -0.0640  0.0393
 4438POPC   C3A91224  24.503  28.200  19.267 -0.1731 -0.0292 -0.0332
 4438POPC   C4A91225  24.205  28.222  18.889  0.3578 -0.0277 -0.0643
 4438POPC   C1B91226  23.908  28.071  19.310  0.1839 -0.1905 -0.2329
 4438POPC   C2B91227  23.806  28.446  19.115 -0.2507 -0.0216  0.0870
 4438POPC   C3B91228  23.751  28.400  18.672  0.2296  0.4146  0.1238
 4438POPC   C4B91229  23.572  28.636  18.314 -0.0069  0.2014  0.0799
 4439POPC   NC391230  25.294  20.472  16.172  0.3746  0.2790 -0.0821
 4439POPC   PO491231  25.371  20.229  16.382 -0.0413 -0.0820 -0.1662
 4439POPC   GL191232  25.334  19.867  16.240 -0.0316 -0.2752  0.0736
 4439POPC   GL291233  25.178  19.662  16.299 -0.0883  0.2666  0.0765
 4439POPC   C1A91234  25.637  19.594  15.998 -0.1164  0.2220  0.0662
 4439POPC   D2A91235  25.887  19.171  16.035  0.2044 -0.0607 -0.1138
 4439POPC   C3A91236  25.753  18.794  16.198 -0.1890 -0.1235 -0.0256
 4439POPC   C4A91237  25.435  18.498  16.061  0.0268  0.1145 -0.0148
 4439POPC   C1B91238  24.948  19.398  15.936  0.3725  0.1207 -0.0905
 4439POPC   C2B91239  24.807  19.084  15.539  0.0885  0.1175  0.0972
 4439POPC   C3B91240  24.810  18.651  15.387 -0.1003 -0.1516  0.2347
 4439POPC   C4B91241  24.825  18.172  15.337  0.1041 -0.1446  0.1351
 4440POPC   NC391242  29.688  24.250  18.823  0.2163 -0.2930  0.1006
 4440POPC   PO491243  29.423  24.397  18.612  0.2047  0.2019  0.1229
 4440POPC   GL191244  29.791  24.567  18.398 -0.1180 -0.1379 -0.3635
 4440POPC   GL291245  29.934  24.640  18.600 -0.1240 -0.2545  0.0604
 4440POPC   C1A91246  29.764  24.503  17.909  0.1238  0.3337  0.2616
 4440POPC   D2A91247  29.914  24.754  17.582  0.2956  0.5985 -0.3868
 4440POPC   C3A91248  30.229  24.905  17.351  0.0866  0.0638 -0.3230
 4440POPC   C4A91249  30.646  25.021  17.501 -0.2222  0.0186  0.2270
 4440POPC   C1B91250  30.036  25.062  18.532 -0.0530  0.1283  0.0423
 4440POPC   C2B91251  29.862  25.432  18.375  0.0196 -0.1631  0.2436
 4440POPC   C3B91252  29.884  25.598  17.957 -0.2022 -0.2355  0.2636
 4440POPC   C4B91253  29.805  25.650  17.472 -0.2607  0.0347  0.2005
 4441POPC   NC391254  25.882  23.697  17.696 -0.1090 -0.0333 -0.1728
 4441POPC   PO491255  25.902  23.834  17.314 -0.0776  0.0483 -0.2644
 4441POPC   GL191256  25.853  24.033  17.010 -0.0628  0.1378  0.1389
 4441POPC   GL291257  25.906  24.276  17.126 -0.0263  0.1537  0.2186
 4441POPC   C1A91258  25.475  24.208  16.903 -0.4331 -0.1264 -0.0222
 4441POPC   D2A91259  25.296  24.352  16.539  0.2208  0.1339  0.0978
 4441POPC   C3A91260  25.154  24.516  16.119 -0.1246 -0.0979  0.1265
 4441POPC   C4A91261  24.741  24.555  15.869 -0.0046 -0.0588 -0.1450
 4441POPC   C1B91262  25.659  24.674  16.900 -0.2253 -0.0194 -0.3558
 4441POPC   C2B91263  25.470  24.812  16.495  0.2370  0.0065  0.0196
 4441POPC   C3B91264  25.192  25.207  16.447 -0.1086  0.2990  0.0734
 4441POPC   C4B91265  25.039  25.652  16.278 -0.2827  0.0315 -0.2090
 4442POPC   NC391266   0.530  24.745  19.996 -0.1972 -0.2960 -0.4672
 4442POPC   PO491267   0.788  25.061  20.132  0.2983 -0.0070  0.1079
 4442POPC   GL191268   0.583  25.185  19.750  0.3450  0.0636  0.2246
 4442POPC   GL291269   0.430  25.474  19.780 -0.0086 -0.1526 -0.0593
 4442POPC   C1A91270   0.832  25.471  19.441 -0.1516 -0.0492  0.1908
 4442POPC   D2A91271   0.933  25.675  19.027  0.3220  0.1727  0.1478
 4442POPC   C3A91272   0.491  25.670  18.860  0.1419 -0.1642 -0.0214
 4442POPC   C4A91273   0.137  25.645  18.525  0.2233  0.3589 -0.1729
 4442POPC   C1B91274   0.360  25.261  19.362 -0.1532  0.2101  0.2652
 4442POPC   C2B91275   0.304  25.098  18.928 -0.3463 -0.2271  0.2648
 4442POPC   C3B91276   0.396  25.112  18.465  0.1813 -0.0887  0.4813
 4442POPC   C4B91277   0.347  24.864  18.047 -0.2193  0.0708  0.1765
 4443POPC   NC391278  26.938  24.334  17.671  0.3697 -0.0345 -0.1789
 4443POPC   PO491279  26.581  24.348  17.780  0.1413  0.2027  0.2109
 4443POPC   GL191280  26.349  24.462  17.434 -0.3439  0.0300 -0.1957
 4443POPC   GL291281  26.549  24.746  17.402 -0.0548  0.1072 -0.0537
 4443POPC   C1A91282  26.331  24.555  16.983 -0.2520  0.1683  0.1242
 4443POPC   D2A91283  26.054  24.551  16.632  0.0779 -0.3368 -0.0543
 4443POPC   C3A91284  26.159  24.842  16.267 -0.2891 -0.1874  0.1789
 4443POPC   C4A91285  26.037  25.026  15.872  0.0200  0.1131 -0.0726
 4443POPC   C1B91286  26.477  25.038  17.065  0.0902 -0.0353 -0.0570
 4443POPC   C2B91287  26.117  25.022  16.785 -0.0474  0.1043  0.5230
 4443POPC   C3B91288  25.690  25.265  16.779 -0.0087  0.0101 -0.1873
 4443POPC   C4B91289  25.633  25.659  16.944 -0.0042 -0.1808 -0.0202
 4444POPC   NC391290  29.262  30.099  20.275  0.0509 -0.3094 -0.0673
 4444POPC   PO491291  29.052  30.426  20.202  0.3551  0.1338  0.4568
 4444POPC   GL191292  28.754  30.299  19.866 -0.3372 -0.0388 -0.0829
 4444POPC   GL291293  28.577  30.568  19.932 -0.0814  0.0159 -0.0872
 4444POPC   C1A91294  28.719  30.352  19.406 -0.0675  0.1862  0.0113
 4444POPC   D2A91295  28.717  30.608  19.015  0.4445  0.2217 -0.1315
 4444POPC   C3A91296  28.457  30.676  18.670  0.0304 -0.0487  0.0586
 4444POPC   C4A91297  28.250  30.572  18.200 -0.1684 -0.3723  0.2945
 4444POPC   C1B91298  28.516  30.791  19.564  0.1467 -0.0265  0.2113
 4444POPC   C2B91299  28.367  30.893  19.152 -0.1733  0.2048 -0.0785
 4444POPC   C3B91300  28.379  31.140  18.762  0.5591 -0.1448 -0.1049
 4444POPC   C4B91301  28.388  31.060  18.290 -0.0255 -0.1724  0.1258
 4445POPC   NC391302   1.780  27.722  20.659 -0.2669  0.2914  0.1297
 4445POPC   PO491303   1.993  27.392  20.648 -0.1035 -0.3453 -0.0809
 4445POPC   GL191304   1.841  27.405  20.290  0.5785 -0.0959 -0.0199
 4445POPC   GL291305   1.718  27.662  20.144  0.1786 -0.1697  0.0189
 4445POPC   C1A91306   1.777  27.242  19.884 -0.3986 -0.0036  0.0958
 4445POPC   D2A91307   1.703  27.027  19.422 -0.1962  0.0924 -0.0677
 4445POPC   C3A91308   1.296  26.980  19.230 -0.2587 -0.1048 -0.3389
 4445POPC   C4A91309   0.816  26.804  19.256 -0.2170 -0.0266 -0.1705
 4445POPC   C1B91310   1.681  27.722  19.731 -0.4067 -0.2720  0.2081
 4445POPC   C2B91311   1.726  28.025  19.285  0.1595  0.0786  0.3117
 4445POPC   C3B91312   1.696  27.993  18.813  0.0275 -0.0606 -0.5753
 4445POPC   C4B91313   1.688  27.828  18.443 -0.2381 -0.2502 -0.0201
 4446POPC   NC391314  19.437  30.568  20.983  0.2415  0.0668 -0.1989
 4446POPC   PO491315  19.368  30.917  20.862  0.0565  0.0182 -0.0655
 4446POPC   GL191316  19.269  30.669  20.502  0.3805  0.2014 -0.4080
 4446POPC   GL291317  19.588  30.536  20.466 -0.0928 -0.2627 -0.3677
 4446POPC   C1A91318  18.933  30.683  20.254 -0.0196  0.1516  0.2468
 4446POPC   D2A91319  18.885  30.522  19.804 -0.1091  0.0358 -0.0441
 4446POPC   C3A91320  18.751  30.491  19.393 -0.0996  0.2757  0.0849
 4446POPC   C4A91321  18.398  30.441  19.029  0.0027  0.0784  0.3457
 4446POPC   C1B91322  19.765  30.389  20.034 -0.1494  0.0661 -0.0611
 4446POPC   C2B91323  19.705  30.537  19.533  0.0605  0.2053  0.2277
 4446POPC   C3B91324  19.688  30.402  19.095 -0.1318 -0.1218  0.3241
 4446POPC   C4B91325  20.004  30.421  18.743 -0.1915 -0.1067 -0.0903
 4447POPC   NC391326  25.916  23.474  11.969  0.3492 -0.2239 -0.0981
 4447POPC   PO491327  25.946  23.185  12.276 -0.0539 -0.3618 -0.0636
 4447POPC   GL191328  25.696  23.309  12.340 -0.0282  0.1643  0.2033
 4447POPC   GL291329  25.478  23.384  12.593  0.1524  0.0069 -0.1032
 4447POPC   C1A91330  25.451  23.597  12.092  0.1565  0.0648  0.1693
 4447POPC   D2A91331  24.986  23.638  12.145 -0.1796  0.1630 -0.0261
 4447POPC   C3A91332  24.676  23.364  12.283 -0.2008 -0.0325 -0.1021
 4447POPC   C4A91333  24.391  23.402  12.706  0.0539 -0.1091 -0.2937
 4447POPC   C1B91334  25.452  23.830  12.535 -0.0241  0.1117  0.3019
 4447POPC   C2B91335  25.050  24.052  12.393  0.0762 -0.0509  0.1071
 4447POPC   C3B91336  24.683  24.324  12.304  0.1648 -0.1805 -0.2906
 4447POPC   C4B91337  24.249  24.527  12.214  0.0747 -0.1898 -0.0207
 4448POPC   NC391338  28.810  19.662  18.465 -0.2147 -0.1819 -0.0528
 4448POPC   PO491339  28.777  19.821  18.076  0.0788 -0.0566  0.0701
 4448POPC   GL191340  28.875  19.789  17.776 -0.2033  0.4247  0.1671
 4448POPC   GL291341  28.718  19.612  17.615 -0.3300  0.1295 -0.0005
 4448POPC   C1A91342  29.269  19.597  17.562 -0.1403  0.2570  0.1467
 4448POPC   D2A91343  29.554  19.320  17.690  0.2372 -0.0121 -0.3180
 4448POPC   C3A91344  29.691  18.972  17.430 -0.1440  0.2375 -0.0948
 4448POPC   C4A91345  29.939  18.608  17.507  0.0679 -0.1998 -0.3331
 4448POPC   C1B91346  28.914  19.270  17.336  0.3652  0.0418  0.2015
 4448POPC   C2B91347  29.212  19.001  17.227 -0.0749  0.0533  0.1378
 4448POPC   C3B91348  29.449  18.615  17.183 -0.0463  0.0702 -0.1085
 4448POPC   C4B91349  29.865  18.547  17.020 -0.1247 -0.0833  0.0515
 4449POPC   NC391350  27.391  19.525  18.233  0.0730  0.0896 -0.0888
 4449POPC   PO491351  27.120  19.621  17.963  0.2771  0.0064 -0.1842
 4449POPC   GL191352  27.310  19.360  17.736  0.2550  0.2240  0.1754
 4449POPC   GL291353  27.590  19.241  17.779  0.0842 -0.0257  0.0429
 4449POPC   C1A91354  27.207  19.029  17.451 -0.2140 -0.0946  0.1108
 4449POPC   D2A91355  27.324  18.668  17.162  0.0805 -0.3416 -0.4091
 4449POPC   C3A91356  27.727  18.471  17.114  0.4561 -0.0299 -0.3930
 4449POPC   C4A91357  28.030  18.220  16.866 -0.0148 -0.0119 -0.0209
 4449POPC   C1B91358  28.048  19.217  17.702 -0.0591 -0.1070 -0.0706
 4449POPC   C2B91359  28.334  18.936  17.487  0.1847  0.1261 -0.0025
 4449POPC   C3B91360  28.745  18.786  17.306  0.0425  0.2105 -0.1008
 4449POPC   C4B91361  29.017  18.452  17.088 -0.1368 -0.1988 -0.2660
 4450POPC   NC391362  26.538  19.862  16.990  0.1703  0.0838 -0.0913
 4450POPC   PO491363  26.495  19.646  17.357 -0.1287 -0.1601  0.2866
 4450POPC   GL191364  26.481  19.200  17.239 -0.0091 -0.0232  0.2723
 4450POPC   GL291365  26.763  19.136  17.245  0.2278 -0.1768 -0.2083
 4450POPC   C1A91366  26.352  18.920  16.885 -0.0731  0.0434 -0.0019
 4450POPC   D2A91367  26.268  18.728  16.439  0.0385  0.0274 -0.0441
 4450POPC   C3A91368  26.351  18.286  16.343  0.1674 -0.0499  0.0124
 4450POPC   C4A91369  26.522  17.878  16.344  0.1496 -0.1982 -0.0664
 4450POPC   C1B91370  26.955  18.964  16.879 -0.1715  0.2590  0.0995
 4450POPC   C2B91371  27.144  18.512  16.687  0.5001 -0.0148  0.1899
 4450POPC   C3B91372  27.017  18.182  16.381  0.1131  0.2438  0.0284
 4450POPC   C4B91373  27.010  17.941  15.970 -0.0296 -0.1805  0.1305
 4451POPC   NC391374  26.510  15.603  19.334 -0.2119  0.0330 -0.3613
 4451POPC   PO491375  26.214  15.854  19.325  0.1109 -0.0194 -0.1115
 4451POPC   GL191376  26.273  15.846  18.857  0.5397  0.3340 -0.1923
 4451POPC   GL291377  26.335  15.587  18.836  0.1778  0.1098  0.0228
 4451POPC   C1A91378  25.853  15.717  18.675 -0.1735 -0.0451  0.2093
 4451POPC   D2A91379  25.593  15.706  18.285  0.2556 -0.1420  0.0108
 4451POPC   C3A91380  25.777  15.816  17.866  0.1947  0.0336  0.1944
 4451POPC   C4A91381  26.063  15.589  17.564  0.2465 -0.0288  0.0118
 4451POPC   C1B91382  26.493  15.567  18.429  0.0143  0.0379 -0.3179
 4451POPC   C2B91383  26.810  15.566  18.053  0.0821  0.0738  0.2316
 4451POPC   C3B91384  27.070  15.868  17.678 -0.1401 -0.1667  0.1044
 4451POPC   C4B91385  26.984  16.222  17.473 -0.1213  0.4974  0.3198
 4452POPC   NC391386  28.321  24.568  18.022 -0.2253 -0.1367  0.0600
 4452POPC   PO491387  27.942  24.620  18.058  0.0479 -0.0439  0.3065
 4452POPC   GL191388  27.812  24.952  17.797  0.0971  0.2080  0.0883
 4452POPC   GL291389  27.695  24.864  17.553 -0.0406  0.3666  0.0643
 4452POPC   C1A91390  28.092  25.340  17.658 -0.2372  0.0908  0.0806
 4452POPC   D2A91391  28.028  25.603  17.309 -0.5023  0.0739  0.2372
 4452POPC   C3A91392  27.785  25.391  16.946  0.3862  0.1301 -0.2235
 4452POPC   C4A91393  27.832  25.405  16.514  0.1019 -0.2852 -0.1029
 4452POPC   C1B91394  28.018  25.055  17.230 -0.0820  0.0371  0.2891
 4452POPC   C2B91395  28.379  25.243  16.980 -0.0049 -0.2015 -0.2158
 4452POPC   C3B91396  28.710  25.329  16.660  0.4366  0.2112 -0.1883
 4452POPC   C4B91397  28.591  25.054  16.264  0.0157  0.1135 -0.1382
 4453POPC   NC391398  16.499  16.317  19.776 -0.1429  0.1163  0.2135
 4453POPC   PO491399  16.180  16.135  19.971  0.0139 -0.3348  0.0585
 4453POPC   GL191400  16.018  16.257  19.632 -0.0536  0.1428  0.1829
 4453POPC   GL291401  15.745  16.333  19.585 -0.0882  0.1192  0.0871
 4453POPC   C1A91402  16.015  16.289  19.117  0.1679  0.1509 -0.0100
 4453POPC   D2A91403  15.905  16.101  18.719 -0.0924 -0.0137  0.0952
 4453POPC   C3A91404  16.243  15.907  18.430 -0.0682  0.0850 -0.3548
 4453POPC   C4A91405  16.597  15.731  18.157  0.0863 -0.1687  0.2993
 4453POPC   C1B91406  15.543  16.194  19.180  0.1451 -0.0409  0.1282
 4453POPC   C2B91407  15.383  16.152  18.723 -0.0853  0.2693 -0.1889
 4453POPC   C3B91408  15.193  16.007  18.353 -0.3132 -0.1443 -0.2793
 4453POPC   C4B91409  14.843  15.712  18.320  0.6296  0.0353  0.3391
 4454POPC   NC391410  31.211  29.064  20.626  0.2188  0.2111  0.2494
 4454POPC   PO491411  31.495  29.266  20.791  0.0200  0.0804 -0.4127
 4454POPC   GL191412  31.742  29.238  20.528  0.2117  0.2627  0.2918
 4454POPC   GL291413  31.916  29.478  20.358 -0.4263  0.0218 -0.0099
 4454POPC   C1A91414  31.998  28.975  20.225 -0.0889  0.2209 -0.0000
 4454POPC   D2A91415  32.172  28.775  19.816  0.0414  0.0804 -0.0501
 4454POPC   C3A91416  32.604  28.802  19.618  0.1529 -0.0826  0.0165
 4454POPC   C4A91417  32.956  28.533  19.778 -0.1246 -0.0871 -0.0822
 4454POPC   C1B91418  31.732  29.732  20.010  0.1626 -0.0823 -0.1305
 4454POPC   C2B91419  31.885  29.798  19.557  0.1274  0.4699 -0.1294
 4454POPC   C3B91420  31.804  29.707  19.101 -0.2045  0.2100  0.0175
 4454POPC   C4B91421  31.598  29.514  18.752  0.1046  0.2497  0.3714
 4455POPC   NC391422  20.586  18.380  19.435  0.0109  0.0427 -0.1216
 4455POPC   PO491423  20.616  18.744  19.521 -0.0470 -0.0469 -0.2727
 4455POPC   GL191424  20.549  18.790  19.137 -0.1111 -0.2278 -0.2708
 4455POPC   GL291425  20.447  19.053  19.147  0.0034 -0.5702  0.1178
 4455POPC   C1A91426  20.721  18.886  18.695 -0.1217  0.0207  0.2129
 4455POPC   D2A91427  20.828  18.801  18.268 -0.1245 -0.1637  0.0630
 4455POPC   C3A91428  20.639  18.835  17.921  0.2284 -0.1227 -0.0942
 4455POPC   C4A91429  20.196  18.879  17.768  0.0286  0.2017  0.4046
 4455POPC   C1B91430  20.320  19.374  18.843  0.0088  0.1438 -0.1176
 4455POPC   C2B91431  20.614  19.599  18.574 -0.0057  0.2458  0.0029
 4455POPC   C3B91432  20.549  19.808  18.164 -0.1933 -0.1255 -0.1927
 4455POPC   C4B91433  20.413  19.818  17.669 -0.1597  0.0987  0.0971
 4456POPC   NC391434  21.543  29.899  20.338 -0.0659 -0.0891 -0.1199
 4456POPC   PO491435  21.803  30.135  20.482  0.2682 -0.1521 -0.0953
 4456POPC   GL191436  22.035  29.948  20.211  0.2282 -0.0882 -0.2160
 4456POPC   GL291437  21.971  29.605  20.245  0.0642  0.1863  0.0743
 4456POPC   C1A91438  21.806  29.945  19.813  0.2930 -0.1168 -0.0557
 4456POPC   D2A91439  21.656  29.956  19.351  0.0557  0.3918  0.0197
 4456POPC   C3A91440  21.473  29.583  19.170  0.1249  0.1587  0.1019
 4456POPC   C4A91441  21.456  29.134  19.208  0.0255 -0.1308 -0.1080
 4456POPC   C1B91442  21.868  29.484  19.754  0.0794  0.1203  0.4163
 4456POPC   C2B91443  21.932  29.392  19.343 -0.1407 -0.0441  0.1819
 4456POPC   C3B91444  22.153  29.418  18.965 -0.0280 -0.0968 -0.1571
 4456POPC   C4B91445  22.233  29.271  18.566  0.0512 -0.0249 -0.3859
 4457POPC   NC391446  21.822  27.789  20.398 -0.2148  0.1919  0.0534
 4457POPC   PO491447  21.642  27.896  20.748 -0.0891 -0.0849  0.1206
 4457POPC   GL191448  21.397  27.790  20.474 -0.1716 -0.0780 -0.1432
 4457POPC   GL291449  21.154  27.711  20.479 -0.1736  0.2831  0.0237
 4457POPC   C1A91450  21.490  27.915  20.022 -0.1774 -0.1533 -0.0943
 4457POPC   D2A91451  21.357  27.873  19.515  0.0483 -0.0747  0.0012
 4457POPC   C3A91452  21.187  28.041  19.131 -0.2066 -0.1486  0.3669
 4457POPC   C4A91453  20.804  28.126  18.876  0.0786  0.3916  0.0479
 4457POPC   C1B91454  20.747  27.869  20.410  0.2317 -0.2640 -0.1103
 4457POPC   C2B91455  20.468  28.012  20.070 -0.1298  0.1398 -0.1099
 4457POPC   C3B91456  20.353  27.965  19.650  0.0681 -0.0270 -0.3255
 4457POPC   C4B91457  20.019  27.924  19.348 -0.3189  0.0989 -0.0409
 4458POPC   NC391458  25.770  23.456  15.226  0.1429 -0.1965  0.0506
 4458POPC   PO491459  25.972  23.701  15.454  0.2129  0.1179 -0.2203
 4458POPC   GL191460  25.792  23.926  15.200  0.1165 -0.1922  0.0676
 4458POPC   GL291461  25.878  24.113  15.019  0.0799 -0.0449  0.0380
 4458POPC   C1A91462  25.379  23.764  14.998  0.0695 -0.0201  0.0573
 4458POPC   D2A91463  24.910  23.848  14.846 -0.0475 -0.0376  0.2897
 4458POPC   C3A91464  24.500  24.017  15.043 -0.0170 -0.2188  0.0465
 4458POPC   C4A91465  24.081  24.131  15.091  0.1445 -0.0873  0.0337
 4458POPC   C1B91466  25.951  24.395  15.367  0.0923 -0.0315 -0.1320
 4458POPC   C2B91467  25.819  24.806  15.477  0.0020  0.1167  0.1674
 4458POPC   C3B91468  25.523  25.075  15.649  0.0108 -0.0213 -0.1674
 4458POPC   C4B91469  25.191  25.041  15.970  0.1368  0.0763 -0.0680
 4459POPC   NC391470  25.784  19.041  18.106  0.0511  0.1614  0.1984
 4459POPC   PO491471  25.804  18.767  18.421  0.0569  0.0378 -0.2326
 4459POPC   GL191472  25.865  18.577  18.106  0.1303  0.2012  0.0171
 4459POPC   GL291473  25.815  18.316  18.195  0.1996 -0.0989 -0.1746
 4459POPC   C1A91474  26.167  18.449  17.756 -0.0611  0.1122 -0.0148
 4459POPC   D2A91475  26.590  18.399  17.569  0.0163  0.0084  0.1334
 4459POPC   C3A91476  26.773  18.604  17.182 -0.1043 -0.0506  0.1249
 4459POPC   C4A91477  26.651  18.444  16.720 -0.1472  0.3840  0.0030
 4459POPC   C1B91478  25.902  17.959  17.901 -0.0063  0.4498  0.0069
 4459POPC   C2B91479  25.690  17.547  17.894  0.1239  0.0234  0.0590
 4459POPC   C3B91480  25.690  17.224  17.537  0.1069 -0.2254 -0.0349
 4459POPC   C4B91481  25.575  16.974  17.211 -0.1681  0.0623 -0.0479
 4460POPC   NC391482  22.958  19.413  18.411  0.0246 -0.1190 -0.0990
 4460POPC   PO491483  22.842  19.064  18.263  0.0193 -0.0595 -0.0747
 4460POPC   GL191484  22.643  19.307  17.956  0.1179 -0.1815 -0.3290
 4460POPC   GL291485  22.661  19.589  18.037  0.0471  0.0587 -0.2520
 4460POPC   C1A91486  22.494  19.243  17.502 -0.3067  0.1584  0.1002
 4460POPC   D2A91487  22.177  19.438  17.262  0.0134  0.0734  0.0464
 4460POPC   C3A91488  21.850  19.272  16.993 -0.1523 -0.1447  0.1985
 4460POPC   C4A91489  21.426  19.019  16.968 -0.0234 -0.1151 -0.1664
 4460POPC   C1B91490  22.411  19.847  17.714  0.0175  0.2318  0.0947
 4460POPC   C2B91491  22.336  19.888  17.210  0.1125  0.2268 -0.2703
 4460POPC   C3B91492  22.242  19.609  16.786 -0.1637 -0.0564 -0.1013
 4460POPC   C4B91493  22.258  19.151  16.681 -0.3585 -0.1942  0.4577
 4461POPC   NC391494  31.902  23.915  19.383 -0.3055 -0.0412 -0.0233
 4461POPC   PO491495  31.847  23.599  19.631  0.0211 -0.0156  0.0054
 4461POPC   GL191496  31.922  23.528  19.163 -0.2643  0.1720  0.0012
 4461POPC   GL291497  32.022  23.256  19.233 -0.0996  0.1609 -0.1726
 4461POPC   C1A91498  31.879  23.577  18.673 -0.2038  0.2993 -0.4111
 4461POPC   D2A91499  32.084  23.849  18.432 -0.2025  0.1336  0.2440
 4461POPC   C3A91500  32.415  24.201  18.420 -0.1169 -0.0180 -0.0075
 4461POPC   C4A91501  32.658  24.360  18.759 -0.1133  0.0905 -0.0607
 4461POPC   C1B91502  32.318  22.878  19.054 -0.1799  0.3521 -0.0040
 4461POPC   C2B91503  32.494  22.667  18.645  0.1209 -0.0124  0.0283
 4461POPC   C3B91504  32.652  22.720  18.202 -0.2244 -0.0984 -0.4354
 4461POPC   C4B91505  32.949  22.452  17.978 -0.2180  0.0878 -0.2926
 4462POPC   NC391506  29.451  32.214  20.214  0.0684  0.1482 -0.3303
 4462POPC   PO491507  29.284  31.859  20.138  0.2394  0.1358  0.1265
 4462POPC   GL191508  29.439  31.969  19.753 -0.0706 -0.2743 -0.1786
 4462POPC   GL291509  29.559  32.226  19.704  0.0868  0.3338  0.1339
 4462POPC   C1A91510  29.425  31.933  19.290 -0.0258 -0.0126  0.2911
 4462POPC   D2A91511  29.081  32.036  19.042  0.2240  0.1421 -0.1599
 4462POPC   C3A91512  29.037  32.090  18.559 -0.1531  0.0861  0.1742
 4462POPC   C4A91513  28.776  32.064  18.193  0.2972  0.1637  0.2311
 4462POPC   C1B91514  29.386  32.397  19.304  0.2546 -0.0759  0.0761
 4462POPC   C2B91515  29.489  32.278  18.843  0.1223  0.1372  0.0671
 4462POPC   C3B91516  29.805  32.374  18.482 -0.1602 -0.0584  0.1600
 4462POPC   C4B91517  29.852  32.300  18.024 -0.0526  0.0054 -0.5044
 4463POPC   NC391518  32.736  28.928  20.739  0.1356 -0.1906  0.1622
 4463POPC   PO491519  33.001  28.772  20.482 -0.0158  0.0870  0.1135
 4463POPC   GL191520  33.104  29.024  20.239  0.1529  0.1164 -0.2396
 4463POPC   GL291521  33.265  28.913  20.047 -0.0917 -0.1724 -0.1119
 4463POPC   C1A91522  32.968  29.218  19.798 -0.0880  0.0161  0.2338
 4463POPC   D2A91523  32.913  29.072  19.363  0.0120  0.0546 -0.1536
 4463POPC   C3A91524  32.497  28.943  19.107 -0.2752 -0.0219  0.2651
 4463POPC   C4A91525  32.339  28.661  18.787  0.0787 -0.2633 -0.0938
 4463POPC   C1B91526  33.457  29.142  19.670  0.1430 -0.2320 -0.1945
 4463POPC   C2B91527  33.888  29.215  19.512 -0.1886  0.3428  0.2103
 4463POPC   C3B91528  34.298  29.241  19.319  0.0241 -0.2032  0.0125
 4463POPC   C4B91529  34.736  29.259  19.304  0.3265  0.0476 -0.1070
 4464POPC   NC391530  28.094  16.140  19.986 -0.2619 -0.0206  0.1378
 4464POPC   PO491531  27.971  16.048  19.635  0.0651  0.2336 -0.1099
 4464POPC   GL191532  27.971  15.929  19.175 -0.4244  0.1002  0.2698
 4464POPC   GL291533  27.754  15.683  19.188 -0.0606 -0.0019 -0.1093
 4464POPC   C1A91534  27.763  16.094  18.800  0.1707 -0.4590  0.0704
 4464POPC   D2A91535  27.698  16.290  18.410  0.1178  0.3627  0.1885
 4464POPC   C3A91536  27.753  16.052  18.040  0.2922  0.1087 -0.2777
 4464POPC   C4A91537  27.640  16.048  17.603  0.1451  0.2061 -0.2979
 4464POPC   C1B91538  28.037  15.582  18.806  0.3214  0.2498 -0.2688
 4464POPC   C2B91539  28.153  15.274  18.543 -0.1171  0.0551 -0.1075
 4464POPC   C3B91540  28.364  15.227  18.089  0.4555 -0.0252 -0.1787
 4464POPC   C4B91541  28.517  14.986  17.693  0.1186 -0.2668  0.0532
 4465POPC   NC391542  29.625  16.907  19.785 -0.1059  0.0790  0.0984
 4465POPC   PO491543  29.764  17.235  19.749 -0.1047 -0.2323  0.0283
 4465POPC   GL191544  29.898  17.138  19.415 -0.2446  0.0602 -0.2835
 4465POPC   GL291545  29.749  16.947  19.291 -0.3252 -0.3351 -0.0427
 4465POPC   C1A91546  30.120  17.201  18.982 -0.1725 -0.1909  0.4970
 4465POPC   D2A91547  30.437  17.370  18.582 -0.1809 -0.1183 -0.1445
 4465POPC   C3A91548  30.331  17.478  18.123  0.1559 -0.0707  0.1761
 4465POPC   C4A91549  30.374  17.226  17.725 -0.1168  0.0985 -0.1345
 4465POPC   C1B91550  29.902  16.686  18.914 -0.1521 -0.4578  0.0720
 4465POPC   C2B91551  30.021  16.564  18.464  0.0746  0.0350 -0.3433
 4465POPC   C3B91552  30.133  16.352  18.088 -0.2594  0.2238 -0.1287
 4465POPC   C4B91553  30.444  16.391  17.726  0.2524  0.0902 -0.0104
 4466POPC   NC391554  28.104  22.589  16.255  0.0970 -0.2508  0.0648
 4466POPC   PO491555  28.011  22.678  16.635 -0.1539  0.0347  0.3086
 4466POPC   GL191556  28.353  22.904  16.559 -0.0571  0.4209  0.0161
 4466POPC   GL291557  28.534  22.897  16.774 -0.1230  0.0032 -0.1285
 4466POPC   C1A91558  28.706  23.010  16.299  0.2043  0.0888 -0.1242
 4466POPC   D2A91559  28.893  22.991  15.878 -0.0030 -0.2492 -0.3048
 4466POPC   C3A91560  29.072  23.391  15.706 -0.2694  0.2541  0.2738
 4466POPC   C4A91561  29.076  23.794  15.614 -0.1565  0.1674 -0.1383
 4466POPC   C1B91562  28.429  23.349  16.589 -0.0579  0.0321  0.1536
 4466POPC   C2B91563  28.481  23.701  16.325  0.1300 -0.2215  0.0300
 4466POPC   C3B91564  28.661  23.989  16.010 -0.2426 -0.0022 -0.1126
 4466POPC   C4B91565  28.620  24.287  15.672 -0.3933  0.1783  0.0711
 4467POPC   NC391566  28.507  21.143  17.014 -0.1604  0.0864  0.0996
 4467POPC   PO491567  28.727  21.060  17.308 -0.0992 -0.0600 -0.0925
 4467POPC   GL191568  29.117  20.888  17.178 -0.1268 -0.0730  0.1041
 4467POPC   GL291569  28.940  20.635  17.082 -0.3168  0.2086  0.0977
 4467POPC   C1A91570  29.270  20.831  16.737  0.0309 -0.4087  0.4463
 4467POPC   D2A91571  29.434  21.062  16.372  0.1351 -0.2025 -0.1688
 4467POPC   C3A91572  29.869  21.074  16.164  0.1994  0.1282 -0.0231
 4467POPC   C4A91573  30.286  20.946  16.364 -0.1092 -0.1197 -0.3176
 4467POPC   C1B91574  29.178  20.293  16.979 -0.0495  0.0506 -0.1406
 4467POPC   C2B91575  29.447  19.941  16.799  0.1590 -0.1613 -0.0345
 4467POPC   C3B91576  29.782  19.626  16.560  0.1747 -0.3909  0.0173
 4467POPC   C4B91577  29.988  19.308  16.345 -0.0323  0.2898  0.0296
 4468POPC   NC391578  21.011  17.493  19.665 -0.1158  0.3040 -0.2401
 4468POPC   PO491579  21.398  17.359  19.730 -0.1585 -0.1955 -0.2806
 4468POPC   GL191580  21.354  17.029  19.563  0.3102  0.3418  0.2362
 4468POPC   GL291581  21.638  16.926  19.435  0.0576  0.2039 -0.1701
 4468POPC   C1A91582  21.267  16.858  19.089  0.2923 -0.4136 -0.0120
 4468POPC   D2A91583  21.027  16.748  18.707 -0.0882  0.0769  0.0237
 4468POPC   C3A91584  20.868  17.040  18.380 -0.1764 -0.0000 -0.1345
 4468POPC   C4A91585  20.781  17.247  17.940 -0.0855 -0.0215  0.1088
 4468POPC   C1B91586  21.791  16.817  18.982 -0.1000 -0.1503 -0.0688
 4468POPC   C2B91587  21.890  16.815  18.531  0.1183 -0.0226 -0.1400
 4468POPC   C3B91588  21.854  17.017  18.130  0.2006 -0.3209  0.1220
 4468POPC   C4B91589  21.906  17.052  17.669  0.1390  0.2563  0.0222
 4469POPC   NC391590  23.051  18.546  18.985  0.0351 -0.1275 -0.0449
 4469POPC   PO491591  22.953  18.156  18.880  0.1580 -0.0186  0.0936
 4469POPC   GL191592  22.792  18.281  18.564  0.2920 -0.0353  0.2463
 4469POPC   GL291593  22.806  18.620  18.532  0.2151  0.0110 -0.3176
 4469POPC   C1A91594  22.652  17.956  18.259 -0.3247  0.0628 -0.1070
 4469POPC   D2A91595  22.928  17.740  17.877 -0.0369 -0.4296 -0.0825
 4469POPC   C3A91596  22.646  17.756  17.533 -0.0017 -0.1899  0.0284
 4469POPC   C4A91597  22.573  17.494  17.181 -0.2579  0.1359 -0.1128
 4469POPC   C1B91598  22.616  18.459  18.140  0.1406 -0.2063  0.0473
 4469POPC   C2B91599  22.371  18.189  17.830 -0.1119 -0.1969  0.0387
 4469POPC   C3B91600  22.053  17.949  17.507 -0.3597 -0.0671 -0.2482
 4469POPC   C4B91601  21.623  17.814  17.302 -0.1281  0.1227 -0.0027
 4470POPC   NC391602  22.293  25.812  20.145  0.3181  0.1415 -0.1269
 4470POPC   PO491603  22.179  26.035  20.419 -0.0750 -0.1988 -0.3930
 4470POPC   GL191604  21.961  26.096  20.100  0.0488 -0.1817 -0.1860
 4470POPC   GL291605  22.131  26.326  20.030 -0.0535  0.1948 -0.0148
 4470POPC   C1A91606  21.783  25.709  19.875 -0.1797  0.1317 -0.2996
 4470POPC   D2A91607  21.452  25.679  19.506 -0.1282 -0.1148  0.0127
 4470POPC   C3A91608  21.442  25.837  19.026  0.1955  0.1929  0.0259
 4470POPC   C4A91609  21.743  26.037  18.781 -0.5003 -0.2184  0.0115
 4470POPC   C1B91610  22.024  26.449  19.590  0.1548 -0.0044 -0.0722
 4470POPC   C2B91611  21.851  26.640  19.183  0.1118 -0.3944 -0.0017
 4470POPC   C3B91612  21.549  26.804  18.858 -0.1479  0.0578  0.1446
 4470POPC   C4B91613  21.313  26.968  18.508  0.0790 -0.2280 -0.2420
 4471POPC   NC391614  23.622  18.210  18.979 -0.1179  0.1820 -0.2972
 4471POPC   PO491615  23.675  17.849  18.794 -0.2267 -0.0752 -0.2075
 4471POPC   GL191616  23.503  18.033  18.433  0.2633 -0.0998  0.5692
 4471POPC   GL291617  23.282  18.234  18.558 -0.0423  0.5820  0.1835
 4471POPC   C1A91618  23.472  17.906  17.977 -0.3034 -0.0505  0.1454
 4471POPC   D2A91619  23.339  17.863  17.559 -0.2009  0.1598 -0.0234
 4471POPC   C3A91620  23.472  17.820  17.139  0.3846 -0.5460 -0.0102
 4471POPC   C4A91621  23.486  17.675  16.751 -0.0783  0.1304  0.0155
 4471POPC   C1B91622  23.153  18.263  18.085 -0.1918  0.2679  0.0376
 4471POPC   C2B91623  22.938  18.245  17.650  0.1750  0.1754 -0.0578
 4471POPC   C3B91624  22.761  18.241  17.239  0.3649 -0.0718  0.2570
 4471POPC   C4B91625  22.529  18.018  16.955 -0.1622 -0.0384 -0.1706
 4472POPC   NC391626  19.194  27.682  20.463  0.3039  0.4403  0.3829
 4472POPC   PO491627  19.220  27.310  20.647  0.3552  0.1680  0.0180
 4472POPC   GL191628  19.137  27.299  20.243 -0.3371 -0.0641  0.1606
 4472POPC   GL291629  19.191  26.968  20.241 -0.0775 -0.0291  0.3902
 4472POPC   C1A91630  19.129  27.138  19.792  0.3150 -0.2395  0.1692
 4472POPC   D2A91631  19.164  27.212  19.359 -0.2247  0.0912  0.2035
 4472POPC   C3A91632  19.607  27.210  19.161  0.0556 -0.1773  0.0691
 4472POPC   C4A91633  19.952  27.431  18.942 -0.3979  0.0527 -0.3836
 4472POPC   C1B91634  19.559  27.011  20.068 -0.2016 -0.0713 -0.3148
 4472POPC   C2B91635  19.971  27.287  19.979  0.1723  0.1469 -0.1452
 4472POPC   C3B91636  20.121  27.369  19.526  0.3143  0.2582 -0.1755
 4472POPC   C4B91637  20.414  27.631  19.314 -0.2913 -0.2374  0.2469
 4473POPC   NC391638  28.043  21.266  16.329 -0.0520 -0.0779  0.0102
 4473POPC   PO491639  27.996  21.068  15.984 -0.0066 -0.0022  0.0734
 4473POPC   GL191640  28.318  21.027  15.757 -0.2968 -0.2243 -0.0541
 4473POPC   GL291641  28.210  20.994  15.490  0.1511 -0.0614  0.0854
 4473POPC   C1A91642  28.730  20.861  15.614 -0.1942  0.1457  0.0119
 4473POPC   D2A91643  29.166  21.010  15.439  0.0133 -0.1217 -0.1044
 4473POPC   C3A91644  29.115  21.307  15.048  0.2428  0.2501 -0.1500
 4473POPC   C4A91645  28.866  21.439  14.654 -0.0671  0.0662  0.1097
 4473POPC   C1B91646  28.339  20.706  15.171 -0.0309 -0.0345  0.2546
 4473POPC   C2B91647  28.351  20.385  14.844 -0.3097 -0.0509 -0.0840
 4473POPC   C3B91648  28.239  20.245  14.409  0.2868  0.2131  0.1068
 4473POPC   C4B91649  28.115  20.154  13.992 -0.3188  0.1023 -0.1134
 4474POPC   NC391650  19.983  31.777  20.372 -0.1326  0.0492 -0.2250
 4474POPC   PO491651  20.129  31.699  20.001 -0.0333 -0.1164 -0.1304
 4474POPC   GL191652  20.009  31.366  19.769 -0.2391 -0.1567 -0.4525
 4474POPC   GL291653  20.276  31.193  19.867  0.0884  0.1334 -0.0242
 4474POPC   C1A91654  19.831  31.112  19.400  0.0260 -0.1644 -0.2549
 4474POPC   D2A91655  19.499  31.043  19.167  0.0135 -0.1380  0.0722
 4474POPC   C3A91656  19.146  31.091  18.900  0.0164 -0.0381  0.1920
 4474POPC   C4A91657  18.951  31.327  18.549 -0.0625  0.0203 -0.3074
 4474POPC   C1B91658  20.322  31.084  19.437 -0.0310  0.1691  0.4221
 4474POPC   C2B91659  20.161  30.756  19.124  0.1072  0.1144  0.1390
 4474POPC   C3B91660  19.807  30.890  18.866 -0.2061  0.2500  0.1580
 4474POPC   C4B91661  19.751  30.954  18.384  0.1986 -0.0201 -0.4085
 4475POPC   NC391662  28.031  25.674  19.380 -0.1689  0.0389  0.1194
 4475POPC   PO491663  28.343  25.794  19.116  0.3121  0.0183  0.2990
 4475POPC   GL191664  28.468  25.979  18.864  0.0970 -0.3484 -0.5579
 4475POPC   GL291665  28.219  26.220  18.781 -0.1720  0.0138 -0.1147
 4475POPC   C1A91666  28.519  25.872  18.450  0.0958  0.2289  0.0560
 4475POPC   D2A91667  28.680  25.917  18.034 -0.0749 -0.1100  0.2239
 4475POPC   C3A91668  28.734  25.582  17.650  0.0536 -0.0833 -0.2456
 4475POPC   C4A91669  28.592  25.237  17.444  0.2925 -0.0549 -0.0339
 4475POPC   C1B91670  28.289  26.312  18.352  0.1781 -0.0616  0.1540
 4475POPC   C2B91671  28.412  26.293  17.899 -0.0448  0.0767 -0.0820
 4475POPC   C3B91672  28.749  26.154  17.593  0.1629 -0.1689  0.1421
 4475POPC   C4B91673  29.067  25.959  17.344  0.1342 -0.0060 -0.4107
 4476POPC   NC391674  17.380  29.299  20.523  0.1416  0.0955 -0.1997
 4476POPC   PO491675  17.011  29.223  20.355 -0.3700 -0.0221  0.0843
 4476POPC   GL191676  17.023  29.263  19.992  0.1051  0.3044 -0.2800
 4476POPC   GL291677  16.745  29.267  19.845  0.3307 -0.1527  0.2023
 4476POPC   C1A91678  17.288  29.229  19.651 -0.0906 -0.3344  0.2482
 4476POPC   D2A91679  17.740  29.348  19.497 -0.2090 -0.0592  0.1869
 4476POPC   C3A91680  17.885  29.748  19.334  0.0905  0.1204  0.2449
 4476POPC   C4A91681  18.291  30.007  19.211  0.2888 -0.1812 -0.0604
 4476POPC   C1B91682  16.847  29.100  19.398  0.2475  0.3019 -0.3313
 4476POPC   C2B91683  17.118  28.805  19.263 -0.4356 -0.1127  0.5545
 4476POPC   C3B91684  17.400  28.466  19.101  0.3113 -0.0352  0.1136
 4476POPC   C4B91685  17.678  28.206  18.884  0.1255  0.1438  0.1368
 4477POPC   NC391686  22.703  24.207  19.263  0.0097  0.2277  0.2614
 4477POPC   PO491687  22.721  23.938  19.010 -0.0435 -0.1369 -0.0860
 4477POPC   GL191688  22.353  24.039  18.823 -0.1328 -0.4004  0.2296
 4477POPC   GL291689  22.301  24.281  18.791  0.2832 -0.0590  0.2515
 4477POPC   C1A91690  22.310  23.851  18.418 -0.2215  0.3126  0.0477
 4477POPC   D2A91691  22.144  23.491  18.076 -0.1127 -0.2757  0.3051
 4477POPC   C3A91692  22.229  23.332  17.687 -0.0937  0.4285  0.2367
 4477POPC   C4A91693  22.279  23.448  17.260  0.2996 -0.0566 -0.2093
 4477POPC   C1B91694  21.947  24.299  18.470 -0.2018  0.2647 -0.0632
 4477POPC   C2B91695  21.596  24.386  18.121 -0.1987  0.0427 -0.0684
 4477POPC   C3B91696  21.335  24.756  17.986 -0.2098  0.0055 -0.0185
 4477POPC   C4B91697  21.388  25.114  17.702 -0.4574 -0.1082  0.1905
 4478POPC   NC391698  30.939  20.659  19.007  0.0564 -0.0423  0.1708
 4478POPC   PO491699  31.077  20.972  19.180 -0.3227 -0.0453  0.1214
 4478POPC   GL191700  31.187  21.001  18.763  0.0845 -0.0849  0.0470
 4478POPC   GL291701  31.004  20.868  18.550  0.1516 -0.3976  0.0492
 4478POPC   C1A91702  31.559  21.114  18.526  0.0124 -0.1973 -0.0055
 4478POPC   D2A91703  31.929  21.249  18.284  0.2897 -0.1244  0.0292
 4478POPC   C3A91704  32.089  21.643  18.243 -0.2577 -0.3469  0.0596
 4478POPC   C4A91705  32.173  22.082  18.090 -0.2602 -0.0142 -0.0611
 4478POPC   C1B91706  31.090  21.045  18.137 -0.1056  0.0207  0.0033
 4478POPC   C2B91707  31.098  21.330  17.701 -0.1497 -0.1672  0.0557
 4478POPC   C3B91708  30.912  21.404  17.253 -0.1111 -0.1169 -0.1812
 4478POPC   C4B91709  30.486  21.476  17.109 -0.1177  0.1395  0.1440
 4479POPC   NC391710  25.302  22.797  13.478  0.3169  0.0499 -0.0970
 4479POPC   PO491711  25.651  22.970  13.534 -0.0239 -0.1790  0.4175
 4479POPC   GL191712  25.481  23.323  13.284 -0.4233  0.0868  0.0587
 4479POPC   GL291713  25.163  23.275  13.227  0.1227 -0.1494 -0.1902
 4479POPC   C1A91714  25.474  23.702  13.024 -0.0741  0.1271  0.0322
 4479POPC   D2A91715  25.547  24.162  12.901 -0.1279  0.2598 -0.1608
 4479POPC   C3A91716  25.461  24.321  13.313 -0.0528 -0.1031  0.0016
 4479POPC   C4A91717  25.364  24.229  13.763 -0.0397  0.1506  0.1630
 4479POPC   C1B91718  24.713  23.413  13.158  0.1495  0.1556  0.1466
 4479POPC   C2B91719  24.563  23.807  13.137 -0.0316 -0.1619 -0.1627
 4479POPC   C3B91720  24.562  24.224  13.072  0.1298  0.0711  0.1299
 4479POPC   C4B91721  24.426  24.675  13.235 -0.2084 -0.0500  0.0619
 4480POPC   NC391722  23.595  30.329  20.370 -0.2763 -0.0461  0.0539
 4480POPC   PO491723  23.716  30.689  20.441  0.0522  0.0855 -0.0463
 4480POPC   GL191724  23.612  30.658  20.044 -0.0571  0.4332 -0.1525
 4480POPC   GL291725  23.876  30.739  19.903 -0.0262  0.0192 -0.1664
 4480POPC   C1A91726  23.277  30.450  19.812  0.0223 -0.0107  0.3327
 4480POPC   D2A91727  22.867  30.501  19.583  0.1417  0.2732  0.4038
 4480POPC   C3A91728  22.694  30.185  19.253 -0.1994  0.0094 -0.0909
 4480POPC   C4A91729  22.398  30.127  18.942 -0.1400  0.1363 -0.0001
 4480POPC   C1B91730  23.977  30.939  19.510 -0.3154  0.1827  0.1521
 4480POPC   C2B91731  24.136  30.933  19.104 -0.0956  0.1512  0.1334
 4480POPC   C3B91732  24.136  30.757  18.693  0.0837  0.0751  0.1569
 4480POPC   C4B91733  24.066  30.491  18.332 -0.0554 -0.0939 -0.4011
 4481POPC   NC391734  21.868  22.052  19.608  0.0952  0.1866 -0.4230
 4481POPC   PO491735  22.031  22.270  19.347 -0.3594  0.1567 -0.1841
 4481POPC   GL191736  21.957  22.469  19.021 -0.1017 -0.1637 -0.0012
 4481POPC   GL291737  21.628  22.540  18.932 -0.0837  0.1146 -0.0764
 4481POPC   C1A91738  21.943  22.321  18.578 -0.2646  0.1223 -0.0984
 4481POPC   D2A91739  21.947  22.349  18.123  0.1273  0.0279 -0.1356
 4481POPC   C3A91740  21.892  22.541  17.695  0.1472  0.2352  0.2177
 4481POPC   C4A91741  21.506  22.625  17.377  0.0100 -0.1101 -0.2236
 4481POPC   C1B91742  21.922  22.758  18.658  0.0210 -0.1223 -0.2155
 4481POPC   C2B91743  21.828  22.886  18.189 -0.0057 -0.0250  0.0823
 4481POPC   C3B91744  21.849  23.072  17.767 -0.2401 -0.1276  0.2621
 4481POPC   C4B91745  21.728  23.327  17.350  0.1320  0.1360 -0.0429
 4482POPC   NC391746  23.935  23.053  17.584 -0.2995 -0.1859  0.0931
 4482POPC   PO491747  24.086  22.703  17.746 -0.4117 -0.0539 -0.2035
 4482POPC   GL191748  23.749  22.485  17.546  0.0873 -0.5064  0.0677
 4482POPC   GL291749  23.451  22.580  17.415  0.1919 -0.0193 -0.0400
 4482POPC   C1A91750  23.761  22.234  17.151 -0.0145 -0.1756  0.0348
 4482POPC   D2A91751  23.485  21.840  17.091 -0.0085 -0.3471  0.0922
 4482POPC   C3A91752  23.244  21.887  16.674 -0.3102  0.1419  0.2239
 4482POPC   C4A91753  22.883  22.048  16.483 -0.3274 -0.0018  0.1895
 4482POPC   C1B91754  23.104  22.796  17.190 -0.1167  0.1624  0.2625
 4482POPC   C2B91755  22.940  23.008  16.793 -0.0567 -0.0199 -0.3106
 4482POPC   C3B91756  23.147  23.325  16.549  0.0743  0.0674 -0.3299
 4482POPC   C4B91757  23.282  23.646  16.252 -0.0076 -0.0731  0.2616
 4483POPC   NC391758  28.818  21.490  17.610  0.1625 -0.3128  0.1442
 4483POPC   PO491759  28.801  21.599  17.203 -0.0225  0.1869  0.1142
 4483POPC   GL191760  29.078  21.553  17.075  0.0970  0.2512  0.1009
 4483POPC   GL291761  29.082  21.244  16.940 -0.2404 -0.3035  0.0711
 4483POPC   C1A91762  29.206  21.953  16.890 -0.0416 -0.1625 -0.0637
 4483POPC   D2A91763  29.256  22.338  16.665 -0.3562  0.1674 -0.0410
 4483POPC   C3A91764  29.656  22.338  16.341  0.0973 -0.2388 -0.2607
 4483POPC   C4A91765  30.100  22.153  16.267 -0.0513 -0.1275 -0.2542
 4483POPC   C1B91766  29.271  21.527  16.603 -0.3343  0.1519  0.0793
 4483POPC   C2B91767  29.303  21.952  16.379 -0.2098  0.2937  0.0040
 4483POPC   C3B91768  29.423  22.008  15.955  0.1730  0.0357 -0.3620
 4483POPC   C4B91769  29.567  21.845  15.484 -0.0393 -0.0700 -0.2443
 4484POPC   NC391770  17.448  30.294  20.766  0.0502 -0.3184  0.0916
 4484POPC   PO491771  17.119  30.391  20.559 -0.2034  0.1091  0.2002
 4484POPC   GL191772  17.031  30.131  20.136 -0.1758  0.3482  0.2907
 4484POPC   GL291773  16.884  30.321  20.123  0.1501 -0.2541 -0.1272
 4484POPC   C1A91774  16.900  29.933  19.780 -0.2234 -0.0516  0.3887
 4484POPC   D2A91775  16.951  29.645  19.448  0.0566  0.2556 -0.0226
 4484POPC   C3A91776  17.344  29.533  19.279  0.2619 -0.2324  0.0361
 4484POPC   C4A91777  17.646  29.645  18.922  0.0440  0.0446  0.2177
 4484POPC   C1B91778  16.977  30.429  19.666 -0.0525 -0.2751  0.3357
 4484POPC   C2B91779  17.045  30.317  19.225 -0.3984 -0.0766  0.2303
 4484POPC   C3B91780  17.071  29.869  19.026  0.3051  0.2042  0.4024
 4484POPC   C4B91781  16.932  29.448  18.938 -0.0863  0.4072 -0.2065
 4485POPC   NC391782  25.932  23.481  13.404  0.3372  0.0026 -0.0033
 4485POPC   PO491783  26.229  23.326  13.195  0.0377 -0.0676  0.0865
 4485POPC   GL191784  26.293  23.676  12.986  0.0376 -0.2135 -0.6191
 4485POPC   GL291785  25.995  23.648  12.897  0.2077 -0.3610  0.0182
 4485POPC   C1A91786  26.520  24.026  13.058 -0.0438  0.0861 -0.3230
 4485POPC   D2A91787  26.934  24.213  13.134 -0.0221 -0.2648 -0.1432
 4485POPC   C3A91788  27.012  24.496  13.507  0.1262  0.2336  0.0133
 4485POPC   C4A91789  26.768  24.600  13.809 -0.2392  0.0027 -0.1749
 4485POPC   C1B91790  26.066  24.083  12.791 -0.1361 -0.0522 -0.0865
 4485POPC   C2B91791  26.292  24.464  12.889 -0.1915 -0.0235  0.0388
 4485POPC   C3B91792  26.641  24.674  13.177  0.2718 -0.0500  0.2662
 4485POPC   C4B91793  27.097  24.799  13.016 -0.1890 -0.2171 -0.1670
 4486POPC   NC391794  16.937  21.693  19.614 -0.3476  0.1508 -0.0958
 4486POPC   PO491795  17.025  21.325  19.717 -0.1711 -0.2405 -0.1226
 4486POPC   GL191796  16.984  21.279  19.307  0.1090  0.1843 -0.1918
 4486POPC   GL291797  17.278  21.263  19.126  0.2335  0.2628  0.1532
 4486POPC   C1A91798  16.751  21.079  18.947 -0.1022  0.2695  0.3919
 4486POPC   D2A91799  16.617  20.792  18.541 -0.0234  0.0807 -0.1141
 4486POPC   C3A91800  16.168  20.837  18.351  0.1632  0.1997 -0.0194
 4486POPC   C4A91801  15.712  20.707  18.247  0.0046  0.2216 -0.5104
 4486POPC   C1B91802  17.394  21.243  18.687 -0.0600 -0.0324 -0.2238
 4486POPC   C2B91803  17.559  21.159  18.248 -0.0633 -0.0446  0.1461
 4486POPC   C3B91804  17.491  20.986  17.930 -0.3140 -0.1108 -0.3804
 4486POPC   C4B91805  17.254  20.848  17.503 -0.2828  0.1172  0.1490
 4487POPC   NC391806  21.708  26.323  20.387  0.0888 -0.0425  0.2228
 4487POPC   PO491807  21.382  26.529  20.543  0.1290 -0.1127 -0.1834
 4487POPC   GL191808  21.265  26.640  20.186 -0.0788 -0.2915 -0.1846
 4487POPC   GL291809  21.529  26.580  19.992  0.2869  0.1466 -0.0497
 4487POPC   C1A91810  21.219  27.020  19.842  0.1641 -0.0041 -0.1066
 4487POPC   D2A91811  21.226  27.412  19.644  0.1802 -0.2177 -0.2909
 4487POPC   C3A91812  20.946  27.590  19.336 -0.1918  0.2185 -0.3074
 4487POPC   C4A91813  20.788  27.616  18.924  0.0661  0.2713 -0.0380
 4487POPC   C1B91814  21.401  26.610  19.565  0.0234 -0.0521 -0.0029
 4487POPC   C2B91815  21.020  26.508  19.264  0.1596  0.0738 -0.0415
 4487POPC   C3B91816  20.659  26.347  18.986 -0.1016 -0.0928 -0.2559
 4487POPC   C4B91817  20.488  26.451  18.605  0.0615 -0.2835  0.0221
 4488POPC   NC391818  25.201  22.318  14.075  0.0975  0.0897 -0.2399
 4488POPC   PO491819  25.236  22.489  14.419 -0.1901  0.1974  0.2161
 4488POPC   GL191820  24.818  22.414  14.338  0.2786 -0.0532  0.0835
 4488POPC   GL291821  24.785  22.130  14.439  0.1712  0.2607  0.2369
 4488POPC   C1A91822  24.428  22.540  14.306 -0.4868 -0.0204 -0.1952
 4488POPC   D2A91823  23.986  22.372  14.260 -0.0518  0.2199 -0.3951
 4488POPC   C3A91824  23.821  22.294  13.842  0.0088  0.0077 -0.1121
 4488POPC   C4A91825  23.694  22.006  13.472  0.1501 -0.1826 -0.2498
 4488POPC   C1B91826  24.419  21.936  14.220 -0.1942 -0.0867  0.0746
 4488POPC   C2B91827  24.064  21.867  13.958  0.1635 -0.1132 -0.2983
 4488POPC   C3B91828  24.055  21.597  13.616  0.0747 -0.0577  0.0545
 4488POPC   C4B91829  23.906  21.608  13.201  0.0660  0.0619 -0.0864
 4489POPC   NC391830  24.636  30.653  20.181  0.1905  0.0392  0.3120
 4489POPC   PO491831  24.414  30.969  20.220 -0.1872 -0.0548  0.1311
 4489POPC   GL191832  24.613  30.999  19.859 -0.1135  0.2150 -0.0564
 4489POPC   GL291833  24.433  30.811  19.687 -0.1045 -0.0564  0.0142
 4489POPC   C1A91834  24.959  30.788  19.648  0.1666 -0.1649 -0.1091
 4489POPC   D2A91835  25.287  30.722  19.358  0.0842 -0.0833  0.1487
 4489POPC   C3A91836  25.209  30.446  19.000 -0.1709  0.1817 -0.0080
 4489POPC   C4A91837  25.405  30.221  18.604 -0.0249  0.0007  0.1437
 4489POPC   C1B91838  24.644  30.761  19.294 -0.2516  0.0311  0.2728
 4489POPC   C2B91839  24.799  30.658  18.900  0.1852 -0.1719  0.1672
 4489POPC   C3B91840  24.887  30.325  18.600  0.0041  0.0251  0.1162
 4489POPC   C4B91841  24.930  29.862  18.527 -0.0008 -0.4705  0.0951
 4490POPC   NC391842  25.002  26.212  19.665  0.0627 -0.1488 -0.1097
 4490POPC   PO491843  24.736  26.442  19.880 -0.1404  0.0483 -0.2347
 4490POPC   GL191844  24.856  26.652  19.559 -0.2334 -0.1135  0.2002
 4490POPC   GL291845  25.015  26.840  19.605 -0.0527  0.0325 -0.1672
 4490POPC   C1A91846  25.038  26.567  19.126 -0.0613 -0.1168  0.1628
 4490POPC   D2A91847  25.298  26.767  18.785  0.1002  0.3755  0.1047
 4490POPC   C3A91848  25.509  26.626  18.420  0.0703 -0.0200  0.1813
 4490POPC   C4A91849  25.576  26.776  18.024 -0.0161 -0.1263 -0.1209
 4490POPC   C1B91850  25.094  27.047  19.200 -0.2971  0.0015 -0.0219
 4490POPC   C2B91851  25.016  27.217  18.807  0.2173  0.1642  0.0325
 4490POPC   C3B91852  25.070  26.989  18.434  0.3822 -0.1112  0.3651
 4490POPC   C4B91853  25.024  26.856  17.990  0.0676 -0.0175 -0.0531
 4491POPC   NC391854  30.865  27.591  20.593 -0.2797 -0.2102 -0.4140
 4491POPC   PO491855  30.790  27.299  20.337  0.0499  0.1392  0.1683
 4491POPC   GL191856  30.586  27.185  19.998 -0.3546  0.0347 -0.3347
 4491POPC   GL291857  30.327  27.190  20.032 -0.2159  0.0396 -0.1030
 4491POPC   C1A91858  30.668  27.177  19.548 -0.0908  0.2505  0.0795
 4491POPC   D2A91859  30.410  27.060  19.137 -0.1889  0.0111  0.0448
 4491POPC   C3A91860  30.528  26.729  18.785  0.1789  0.1234  0.0526
 4491POPC   C4A91861  30.574  26.884  18.371 -0.0774 -0.1361  0.3712
 4491POPC   C1B91862  29.870  27.221  19.847  0.3731  0.0641  0.0303
 4491POPC   C2B91863  29.766  27.076  19.393  0.0415 -0.0421 -0.0831
 4491POPC   C3B91864  29.662  27.203  18.914 -0.1040 -0.3165 -0.2687
 4491POPC   C4B91865  29.846  27.415  18.541  0.1633 -0.3846 -0.1231
 4492POPC   NC391866  18.056  24.364  20.323  0.2437 -0.1838  0.1959
 4492POPC   PO491867  17.742  24.394  20.537 -0.0481 -0.1988 -0.1536
 4492POPC   GL191868  17.582  24.348  20.148  0.0427  0.0032 -0.0867
 4492POPC   GL291869  17.488  24.467  19.910 -0.0600 -0.0678 -0.1004
 4492POPC   C1A91870  17.908  24.256  19.805  0.2789 -0.0338 -0.3172
 4492POPC   D2A91871  18.230  24.260  19.450 -0.0451 -0.0840  0.1236
 4492POPC   C3A91872  18.108  24.347  19.030  0.4833 -0.1978 -0.3513
 4492POPC   C4A91873  17.853  24.374  18.675 -0.2403 -0.2115 -0.2020
 4492POPC   C1B91874  17.595  24.463  19.446 -0.2411  0.0978  0.2400
 4492POPC   C2B91875  17.451  24.302  19.042  0.3246  0.1069 -0.2106
 4492POPC   C3B91876  17.373  24.376  18.649 -0.2788 -0.0216 -0.0019
 4492POPC   C4B91877  17.248  24.287  18.238  0.0257 -0.2551 -0.2389
 4493POPC   NC391878  18.923  20.287  20.253  0.3194 -0.1612  0.0276
 4493POPC   PO491879  18.999  20.170  19.867  0.1071 -0.0585 -0.1121
 4493POPC   GL191880  18.935  20.092  19.528  0.1005  0.0555 -0.0941
 4493POPC   GL291881  19.126  19.904  19.452 -0.3581 -0.0371  0.0965
 4493POPC   C1A91882  18.809  20.288  19.141 -0.0292  0.0132 -0.0017
 4493POPC   D2A91883  18.863  20.496  18.789 -0.0455  0.0877 -0.0843
 4493POPC   C3A91884  18.922  20.610  18.402 -0.1313  0.1238  0.2279
 4493POPC   C4A91885  18.701  20.693  18.060 -0.3740 -0.0751 -0.4418
 4493POPC   C1B91886  18.845  19.807  19.050  0.0599 -0.4531 -0.3075
 4493POPC   C2B91887  18.625  19.718  18.649 -0.3412  0.0208 -0.1701
 4493POPC   C3B91888  18.294  20.001  18.418 -0.1150  0.0502 -0.2789
 4493POPC   C4B91889  18.060  20.154  18.061  0.0197 -0.2944  0.1796
 4494POPC   NC391890  22.598  31.267  20.717 -0.1305  0.1442  0.0402
 4494POPC   PO491891  22.860  31.107  20.498 -0.2474 -0.2268 -0.3581
 4494POPC   GL191892  22.590  31.110  20.217  0.1895  0.1299  0.0907
 4494POPC   GL291893  22.317  31.304  20.246  0.0631 -0.1188 -0.2482
 4494POPC   C1A91894  22.692  31.018  19.760  0.0084 -0.1046  0.0020
 4494POPC   D2A91895  22.680  31.005  19.273  0.1269 -0.0510 -0.0869
 4494POPC   C3A91896  22.924  30.580  19.047 -0.2783 -0.2236 -0.1196
 4494POPC   C4A91897  22.828  30.284  18.783  0.1133 -0.2129 -0.0305
 4494POPC   C1B91898  22.538  31.566  19.945 -0.1857  0.0517  0.0592
 4494POPC   C2B91899  22.791  31.487  19.530 -0.0373 -0.0594  0.2879
 4494POPC   C3B91900  23.074  31.311  19.213 -0.1306 -0.0967  0.4825
 4494POPC   C4B91901  23.237  31.032  18.968  0.2444 -0.0536  0.1739
 4495POPC   NC391902  17.078  30.778  20.078  0.2958 -0.0897 -0.0789
 4495POPC   PO491903  17.345  31.014  20.239  0.1036 -0.1863 -0.0873
 4495POPC   GL191904  17.481  31.048  19.858 -0.0349  0.0914 -0.2711
 4495POPC   GL291905  17.613  31.310  19.795 -0.1556 -0.0950 -0.1511
 4495POPC   C1A91906  17.396  31.196  19.393  0.0683  0.1659 -0.1313
 4495POPC   D2A91907  17.168  31.245  18.968 -0.0933 -0.0014  0.0622
 4495POPC   C3A91908  17.265  31.125  18.486  0.3552  0.1931 -0.3106
 4495POPC   C4A91909  17.085  31.107  18.065 -0.2070  0.2136  0.1506
 4495POPC   C1B91910  17.374  31.662  19.540  0.0178  0.2373 -0.1820
 4495POPC   C2B91911  17.402  32.128  19.321 -0.0964  0.0635 -0.0333
 4495POPC   C3B91912  17.275  32.338  18.894  0.1945 -0.0652 -0.0460
 4495POPC   C4B91913  17.003  32.348  18.502 -0.1924  0.0879 -0.2418
 4496POPC   NC391914  19.595  25.114  20.415  0.1368  0.2018 -0.2007
 4496POPC   PO491915  19.893  25.154  20.166 -0.1710 -0.4814 -0.0405
 4496POPC   GL191916  19.776  25.030  19.818  0.0202  0.0872 -0.0720
 4496POPC   GL291917  19.945  25.272  19.681 -0.2393  0.0107 -0.1587
 4496POPC   C1A91918  19.662  25.054  19.358  0.1006  0.2500 -0.0452
 4496POPC   D2A91919  19.830  25.007  18.906 -0.2067  0.1101  0.0757
 4496POPC   C3A91920  19.943  24.832  18.557 -0.1344 -0.1719 -0.0409
 4496POPC   C4A91921  19.717  24.493  18.316  0.0048  0.1400  0.0449
 4496POPC   C1B91922  19.874  25.531  19.307  0.0747  0.1863  0.0567
 4496POPC   C2B91923  19.663  25.531  18.880 -0.0834 -0.0141  0.2942
 4496POPC   C3B91924  19.489  25.725  18.505 -0.1125 -0.3761  0.0877
 4496POPC   C4B91925  19.398  25.794  18.034 -0.2553 -0.1834 -0.0594
 4497POPC   NC391926  23.623  19.533  17.722  0.1043 -0.1444 -0.0452
 4497POPC   PO491927  23.606  19.954  17.752 -0.2391  0.0193 -0.0050
 4497POPC   GL191928  23.509  20.090  17.316  0.0926  0.0552  0.1542
 4497POPC   GL291929  23.544  19.829  17.262  0.2848 -0.1144  0.0082
 4497POPC   C1A91930  23.418  20.007  16.839 -0.2950  0.2254  0.2085
 4497POPC   D2A91931  23.315  20.089  16.429 -0.2247 -0.2134 -0.0972
 4497POPC   C3A91932  22.938  20.311  16.240  0.1345 -0.1433  0.1495
 4497POPC   C4A91933  22.803  20.525  15.877  0.0267 -0.1127  0.2000
 4497POPC   C1B91934  23.065  19.922  17.198 -0.0841 -0.0736 -0.0361
 4497POPC   C2B91935  22.750  19.707  16.906 -0.2151 -0.0024 -0.1171
 4497POPC   C3B91936  22.584  19.464  16.493  0.1430 -0.1815  0.0744
 4497POPC   C4B91937  22.523  19.268  16.072 -0.1153 -0.1243 -0.5301
 4498POPC   NC391938  20.659  17.849  20.080  0.3875 -0.1346 -0.1466
 4498POPC   PO491939  20.752  17.956  19.723 -0.1330 -0.0859 -0.0202
 4498POPC   GL191940  20.639  17.932  19.320  0.0507  0.4588  0.0648
 4498POPC   GL291941  20.644  17.618  19.314 -0.1684 -0.0523 -0.3876
 4498POPC   C1A91942  20.738  18.196  18.940  0.3627 -0.3865 -0.0928
 4498POPC   D2A91943  20.811  18.408  18.545 -0.1381 -0.1607 -0.4881
 4498POPC   C3A91944  20.467  18.361  18.272  0.3946  0.0345 -0.0089
 4498POPC   C4A91945  20.038  18.491  18.154 -0.1105 -0.0900 -0.3737
 4498POPC   C1B91946  20.656  17.689  18.867 -0.3563  0.1426 -0.0739
 4498POPC   C2B91947  20.563  17.413  18.492 -0.1712  0.5336  0.2068
 4498POPC   C3B91948  20.295  17.032  18.281 -0.1139 -0.1691  0.0289
 4498POPC   C4B91949  20.185  16.658  18.066 -0.1002 -0.1001 -0.0404
 4499POPC   NC391950  18.143  22.630  19.774  0.0213  0.0744  0.1244
 4499POPC   PO491951  18.378  22.328  19.913  0.1442 -0.3682  0.2970
 4499POPC   GL191952  18.472  22.190  19.505 -0.3934  0.2290  0.7335
 4499POPC   GL291953  18.602  22.439  19.464 -0.2141 -0.0152 -0.2285
 4499POPC   C1A91954  18.383  22.120  19.085 -0.0961  0.2842 -0.0216
 4499POPC   D2A91955  18.234  21.968  18.674 -0.0189  0.1242  0.1971
 4499POPC   C3A91956  18.112  22.212  18.271  0.2860 -0.0086 -0.1266
 4499POPC   C4A91957  18.073  22.655  18.166  0.1605  0.0304  0.0756
 4499POPC   C1B91958  18.430  22.874  19.350  0.1374 -0.1142 -0.2911
 4499POPC   C2B91959  18.534  22.898  18.887 -0.1484 -0.0761  0.0124
 4499POPC   C3B91960  18.581  22.930  18.460  0.0771 -0.1869  0.1060
 4499POPC   C4B91961  18.611  22.693  18.047  0.1040  0.1995 -0.1804
 4500POPC   NC391962  24.289  19.765  17.773  0.2634 -0.1156 -0.0201
 4500POPC   PO491963  24.066  19.612  17.504 -0.1540 -0.0718  0.0889
 4500POPC   GL191964  23.939  19.314  17.215 -0.0303  0.1572 -0.1047
 4500POPC   GL291965  24.111  19.466  17.004 -0.0468 -0.2024 -0.0647
 4500POPC   C1A91966  23.816  18.870  17.138 -0.1542 -0.0272  0.1924
 4500POPC   D2A91967  23.600  18.536  16.925 -0.0312 -0.0283  0.0241
 4500POPC   C3A91968  23.693  18.385  16.506  0.5438 -0.0670 -0.2541
 4500POPC   C4A91969  23.824  18.549  16.076 -0.0888 -0.0937  0.1331
 4500POPC   C1B91970  23.667  19.390  16.835 -0.0607 -0.1683 -0.3595
 4500POPC   C2B91971  23.313  19.064  16.840 -0.0081  0.0418  0.2846
 4500POPC   C3B91972  23.140  18.672  16.525 -0.1551  0.1779  0.1197
 4500POPC   C4B91973  23.293  18.391  16.229  0.0513 -0.2890 -0.0066
 4501POPC   NC391974  31.866  19.152  19.631 -0.1567 -0.0917  0.1805
 4501POPC   PO491975  32.222  18.935  19.638 -0.4437  0.2105  0.0249
 4501POPC   GL191976  32.236  19.255  19.308 -0.2974  0.0484 -0.0398
 4501POPC   GL291977  32.125  19.062  19.175 -0.1083 -0.0071 -0.0894
 4501POPC   C1A91978  32.172  19.587  19.012 -0.2930 -0.3158  0.0712
 4501POPC   D2A91979  32.158  19.652  18.545 -0.1164  0.0634  0.1403
 4501POPC   C3A91980  32.524  19.837  18.400 -0.1782  0.1652  0.3741
 4501POPC   C4A91981  32.717  20.234  18.257 -0.0043 -0.0232  0.0957
 4501POPC   C1B91982  32.288  18.667  18.943  0.2672 -0.1573 -0.0687
 4501POPC   C2B91983  32.715  18.521  18.796 -0.0638  0.2311 -0.0816
 4501POPC   C3B91984  33.151  18.511  18.596  0.3414  0.2273 -0.0852
 4501POPC   C4B91985  33.276  18.465  18.109 -0.3071  0.0646 -0.1676
 4502POPC   NC391986  24.708  20.568  16.173  0.0920  0.1517  0.1720
 4502POPC   PO491987  24.565  20.714  16.516  0.0539  0.1604 -0.1552
 4502POPC   GL191988  24.320  20.888  16.296 -0.2323  0.1227  0.1226
 4502POPC   GL291989  24.157  20.665  16.167  0.1808 -0.0803  0.2974
 4502POPC   C1A91990  24.144  21.222  16.026  0.2348 -0.0097  0.0218
 4502POPC   D2A91991  23.717  21.404  16.025  0.2611 -0.0227  0.2036
 4502POPC   C3A91992  23.437  21.234  15.708 -0.0859 -0.0349 -0.1075
 4502POPC   C4A91993  23.109  21.400  15.401  0.0242  0.0059 -0.2812
 4502POPC   C1B91994  23.877  20.451  15.823  0.1288 -0.0023  0.2642
 4502POPC   C2B91995  23.738  20.161  15.520  0.0870  0.2784  0.3094
 4502POPC   C3B91996  23.582  19.844  15.193 -0.4133 -0.1032  0.0192
 4502POPC   C4B91997  23.807  19.565  14.882  0.0647 -0.0232 -0.0718
 4503POPC   NC391998   1.250  22.409  20.055 -0.3346  0.0840  0.1568
 4503POPC   PO491999   1.030  22.700  19.879  0.4751 -0.1375 -0.1460
 4503POPC   GL192000   1.167  22.765  19.539 -0.0452  0.0347  0.0638
 4503POPC   GL292001   1.443  22.680  19.526  0.1301 -0.3946  0.0016
 4503POPC   C1A92002   1.218  23.135  19.215 -0.0912  0.2681 -0.2016
 4503POPC   D2A92003   1.466  23.483  19.052  0.0176  0.0169  0.2650
 4503POPC   C3A92004   1.522  23.830  18.709 -0.0991 -0.1112 -0.3043
 4503POPC   C4A92005   1.709  24.224  18.742  0.0952  0.1540 -0.3686
 4503POPC   C1B92006   1.204  22.652  19.102 -0.1648 -0.1236  0.1686
 4503POPC   C2B92007   1.037  22.689  18.637  0.4196 -0.0903 -0.1107
 4503POPC   C3B92008   1.153  22.927  18.286 -0.0492 -0.0670  0.4988
 4503POPC   C4B92009   1.186  23.080  17.871 -0.1671 -0.0359 -0.1641
 4504POPC   NC392010  26.076  23.443  16.964 -0.0324  0.2541 -0.0749
 4504POPC   PO492011  25.763  23.591  16.802 -0.0763  0.2238 -0.1430
 4504POPC   GL192012  25.484  23.767  16.668  0.0014 -0.1842 -0.4101
 4504POPC   GL292013  25.561  23.959  16.509  0.2222 -0.2487 -0.2607
 4504POPC   C1A92014  25.050  23.902  16.803  0.2700  0.2296  0.1101
 4504POPC   D2A92015  24.629  24.140  17.001 -0.0640 -0.0616 -0.0717
 4504POPC   C3A92016  24.308  24.310  16.665 -0.0802 -0.0634  0.3242
 4504POPC   C4A92017  23.953  24.045  16.475 -0.0288  0.1326  0.0467
 4504POPC   C1B92018  25.709  24.337  16.236  0.2049  0.0880 -0.1827
 4504POPC   C2B92019  25.671  24.781  16.049 -0.3351 -0.0190 -0.0819
 4504POPC   C3B92020  25.673  25.189  16.267 -0.1395  0.4134 -0.0245
 4504POPC   C4B92021  25.488  25.573  16.455 -0.3511  0.1939 -0.0923
 4505POPC   NC392022  22.901  14.070  20.257  0.0979 -0.1430 -0.0709
 4505POPC   PO492023  23.263  14.180  20.121 -0.1817  0.0989  0.0456
 4505POPC   GL192024  23.308  14.426  19.744 -0.0952  0.0833 -0.0020
 4505POPC   GL292025  23.082  14.279  19.592  0.0473  0.1136  0.0643
 4505POPC   C1A92026  23.473  14.225  19.354  0.2427 -0.1854 -0.4340
 4505POPC   D2A92027  23.700  14.409  19.055 -0.3015  0.1402  0.0679
 4505POPC   C3A92028  23.732  14.770  18.711 -0.0074  0.1132 -0.1587
 4505POPC   C4A92029  24.142  14.911  18.589 -0.0441 -0.1561 -0.2040
 4505POPC   C1B92030  22.963  14.430  19.160 -0.2239 -0.1468  0.0647
 4505POPC   C2B92031  22.904  14.324  18.721  0.2950  0.2199 -0.0786
 4505POPC   C3B92032  23.059  14.109  18.348 -0.0063  0.1644 -0.2875
 4505POPC   C4B92033  22.839  13.701  18.226 -0.2190 -0.0636 -0.2382
 4506POPC   NC392034  25.096  23.082  16.527 -0.0313 -0.4329  0.0576
 4506POPC   PO492035  25.371  23.304  16.656 -0.0629 -0.1306  0.0727
 4506POPC   GL192036  25.098  23.541  16.434  0.0627  0.0374 -0.2334
 4506POPC   GL292037  25.091  23.775  16.320 -0.2797 -0.0270 -0.5429
 4506POPC   C1A92038  24.716  23.551  16.157  0.1567  0.2345 -0.0840
 4506POPC   D2A92039  24.482  23.541  15.757 -0.1892 -0.0116  0.0435
 4506POPC   C3A92040  24.504  23.530  15.313 -0.1594  0.2548  0.0333
 4506POPC   C4A92041  24.659  23.472  14.888 -0.0765 -0.3540  0.3344
 4506POPC   C1B92042  24.672  24.032  16.297  0.0547 -0.0024 -0.4585
 4506POPC   C2B92043  24.378  24.378  16.149  0.1290 -0.2913 -0.2857
 4506POPC   C3B92044  23.954  24.569  16.154 -0.3032 -0.0443  0.4032
 4506POPC   C4B92045  23.634  24.581  16.450  0.0831  0.1304 -0.2611
 4507POPC   NC392046  26.294  30.677  20.281 -0.0433  0.1014  0.1501
 4507POPC   PO492047  25.966  30.466  20.328 -0.1150  0.1321  0.0710
 4507POPC   GL192048  26.033  30.355  20.021 -0.2903 -0.1597  0.4722
 4507POPC   GL292049  25.796  30.275  19.867 -0.2390  0.0155 -0.0728
 4507POPC   C1A92050  26.178  29.956  19.774  0.1550  0.1872 -0.0782
 4507POPC   D2A92051  26.570  29.763  19.598 -0.0359 -0.1780  0.4394
 4507POPC   C3A92052  26.722  29.740  19.166 -0.1502 -0.2153  0.0285
 4507POPC   C4A92053  26.849  29.467  18.817 -0.2375 -0.2007  0.1094
 4507POPC   C1B92054  25.724  29.867  19.649 -0.0361 -0.1658 -0.0296
 4507POPC   C2B92055  25.573  29.705  19.231 -0.0480 -0.2490  0.0878
 4507POPC   C3B92056  25.551  29.366  18.929  0.0048 -0.0513  0.1108
 4507POPC   C4B92057  25.499  29.269  18.483 -0.0727  0.0071 -0.0521
 4508POPC   NC392058  31.812  26.623  20.091 -0.0045 -0.0127  0.2233
 4508POPC   PO492059  31.777  26.976  20.285  0.0847 -0.1306 -0.1226
 4508POPC   GL192060  32.109  27.089  20.061 -0.0312  0.1764 -0.0547
 4508POPC   GL292061  32.150  26.891  19.810  0.0419  0.2689  0.2262
 4508POPC   C1A92062  32.229  27.429  19.773  0.0716  0.0873  0.1267
 4508POPC   D2A92063  32.269  27.606  19.376  0.0958  0.0110 -0.2669
 4508POPC   C3A92064  32.473  27.759  19.017  0.0618  0.2262 -0.0804
 4508POPC   C4A92065  32.806  27.880  18.723 -0.0870  0.0367  0.0242
 4508POPC   C1B92066  32.244  27.060  19.411 -0.1548  0.0139 -0.0375
 4508POPC   C2B92067  32.602  27.202  19.209  0.1858  0.0317  0.0587
 4508POPC   C3B92068  32.947  27.028  18.923 -0.2210 -0.2061 -0.1190
 4508POPC   C4B92069  33.169  26.798  18.579  0.0058  0.0856  0.3814
 4509POPC   NC392070  24.693  20.212  16.928 -0.0237 -0.1711 -0.4430
 4509POPC   PO492071  24.873  20.272  16.556  0.3058 -0.1629 -0.0685
 4509POPC   GL192072  24.934  20.002  16.175 -0.1957  0.0931 -0.3955
 4509POPC   GL292073  24.685  19.913  16.080  0.1977  0.1141  0.0070
 4509POPC   C1A92074  25.204  19.886  15.830  0.3829 -0.0622  0.1698
 4509POPC   D2A92075  25.526  19.875  15.573  0.2590 -0.2843 -0.1515
 4509POPC   C3A92076  25.891  20.079  15.295  0.0983  0.3462  0.0685
 4509POPC   C4A92077  26.013  19.916  14.907  0.0470 -0.0017  0.0345
 4509POPC   C1B92078  24.729  19.806  15.608 -0.0806 -0.0369 -0.0564
 4509POPC   C2B92079  25.061  19.628  15.348 -0.1484  0.1388  0.1490
 4509POPC   C3B92080  25.286  19.218  15.382  0.0197  0.2024  0.0460
 4509POPC   C4B92081  25.270  18.808  15.173  0.2332 -0.1659 -0.0918
 4510POPC   NC392082  18.343  27.774  20.296 -0.0868 -0.0021  0.0302
 4510POPC   PO492083  18.621  27.943  20.540  0.1548 -0.0484  0.0643
 4510POPC   GL192084  18.585  28.132  20.167  0.4146 -0.2455 -0.5957
 4510POPC   GL292085  18.832  28.247  20.095 -0.0034  0.2049  0.0912
 4510POPC   C1A92086  18.393  27.943  19.821  0.1558 -0.1968  0.0627
 4510POPC   D2A92087  18.259  27.535  19.659 -0.0880  0.4215  0.0545
 4510POPC   C3A92088  18.192  27.503  19.219 -0.0073  0.1614  0.0658
 4510POPC   C4A92089  18.388  27.478  18.835  0.2556  0.4486  0.1298
 4510POPC   C1B92090  18.715  28.472  19.716 -0.0158 -0.0359 -0.0724
 4510POPC   C2B92091  18.855  28.690  19.324  0.1551 -0.2727 -0.1589
 4510POPC   C3B92092  19.229  28.816  19.074 -0.0003 -0.1601  0.2162
 4510POPC   C4B92093  19.734  28.879  19.134 -0.0596  0.0953 -0.0610
 4511POPC   NC392094  27.718  22.661  15.250  0.0742 -0.1734 -0.0898
 4511POPC   PO492095  27.406  22.898  15.223  0.0701  0.0398 -0.1148
 4511POPC   GL192096  27.566  23.237  15.351  0.1720 -0.0928 -0.1958
 4511POPC   GL292097  27.640  23.324  15.577  0.0703 -0.1164  0.2391
 4511POPC   C1A92098  27.678  23.657  15.143 -0.0709  0.0680  0.0076
 4511POPC   D2A92099  27.711  23.986  14.838 -0.0898  0.4486  0.0442
 4511POPC   C3A92100  27.324  23.850  14.658 -0.1570  0.1513  0.2821
 4511POPC   C4A92101  26.940  24.072  14.501 -0.2049  0.1510 -0.0847
 4511POPC   C1B92102  27.875  23.696  15.603  0.1784  0.2310  0.3735
 4511POPC   C2B92103  28.053  24.052  15.423  0.0546 -0.1415  0.0836
 4511POPC   C3B92104  28.265  24.141  15.073  0.2812 -0.1000 -0.1132
 4511POPC   C4B92105  28.543  24.101  14.705 -0.1448 -0.0718  0.1097
 4512POPC   NC392106  30.181  17.662  19.766 -0.2336 -0.1720  0.0122
 4512POPC   PO492107  30.487  17.900  19.644 -0.0772  0.3054  0.2599
 4512POPC   GL192108  30.727  18.047  19.319  0.1733 -0.0165 -0.0362
 4512POPC   GL292109  31.054  18.139  19.333  0.1510  0.1254 -0.0677
 4512POPC   C1A92110  30.656  18.204  18.899  0.2433 -0.2835  0.0059
 4512POPC   D2A92111  30.892  18.406  18.574  0.1547 -0.0627 -0.0459
 4512POPC   C3A92112  31.161  18.154  18.264  0.0894 -0.2683  0.0384
 4512POPC   C4A92113  31.356  17.796  18.070 -0.1499  0.2347 -0.0207
 4512POPC   C1B92114  31.267  18.007  18.907 -0.0172 -0.3606 -0.0466
 4512POPC   C2B92115  31.236  17.629  18.616  0.0932 -0.1374  0.3708
 4512POPC   C3B92116  31.139  17.328  18.259  0.2475  0.0928 -0.1519
 4512POPC   C4B92117  30.931  17.322  17.808 -0.0684  0.1812  0.1728
 4513POPC   NC392118  22.322  28.521  20.275  0.0403  0.0709  0.0550
 4513POPC   PO492119  22.579  28.833  20.398 -0.1335  0.0704 -0.0281
 4513POPC   GL192120  22.577  28.800  19.979 -0.1433  0.1231 -0.0826
 4513POPC   GL292121  22.845  28.679  19.937 -0.2875 -0.3474  0.2287
 4513POPC   C1A92122  22.561  28.808  19.509  0.5270  0.0438 -0.3951
 4513POPC   D2A92123  22.338  28.973  19.169 -0.1339 -0.1210  0.1811
 4513POPC   C3A92124  22.577  29.055  18.785 -0.0772 -0.2672 -0.0333
 4513POPC   C4A92125  22.805  29.358  18.561  0.2878 -0.3259  0.0190
 4513POPC   C1B92126  22.901  28.455  19.505  0.2547  0.0909  0.0521
 4513POPC   C2B92127  22.810  28.166  19.177  0.1837  0.2635 -0.0406
 4513POPC   C3B92128  22.907  28.170  18.767 -0.2838 -0.0086 -0.2200
 4513POPC   C4B92129  23.083  28.334  18.346 -0.0659 -0.1341  0.1336
 4514POPC   NC392130  24.595  28.443  20.136  0.2047 -0.0378  0.0006
 4514POPC   PO492131  24.321  28.574  20.436  0.1692 -0.1176 -0.0012
 4514POPC   GL192132  24.135  28.606  20.106 -0.0471  0.3310  0.0035
 4514POPC   GL292133  23.874  28.714  20.045  0.1084  0.0143  0.0032
 4514POPC   C1A92134  24.241  28.836  19.732  0.1663  0.1990 -0.3077
 4514POPC   D2A92135  24.147  28.654  19.342 -0.2473 -0.1736  0.1714
 4514POPC   C3A92136  24.277  28.879  18.959  0.2176 -0.0016 -0.0713
 4514POPC   C4A92137  24.557  29.145  18.803 -0.0923 -0.1918 -0.1725
 4514POPC   C1B92138  23.747  28.778  19.592 -0.0131  0.1286 -0.5147
 4514POPC   C2B92139  23.647  28.940  19.114  0.0620 -0.4026 -0.1473
 4514POPC   C3B92140  23.707  29.016  18.669 -0.1994 -0.1416  0.1817
 4514POPC   C4B92141  23.869  29.323  18.248 -0.3163  0.3124 -0.2140
 4515POPC   NC392142  21.991  23.489  20.043  0.0323 -0.2612 -0.2019
 4515POPC   PO492143  21.683  23.621  19.849 -0.0095 -0.1146  0.0931
 4515POPC   GL192144  21.311  23.640  19.539 -0.1178 -0.0649  0.1951
 4515POPC   GL292145  21.120  23.414  19.480 -0.0354 -0.0366 -0.0889
 4515POPC   C1A92146  21.225  23.751  19.075 -0.0136  0.1227 -0.1109
 4515POPC   D2A92147  21.383  24.010  18.694 -0.2032  0.1723  0.0488
 4515POPC   C3A92148  21.136  24.377  18.461 -0.3821 -0.1530 -0.0088
 4515POPC   C4A92149  20.858  24.661  18.110 -0.1755  0.3442  0.0424
 4515POPC   C1B92150  21.115  23.234  19.078  0.2741  0.0801  0.1070
 4515POPC   C2B92151  20.963  23.008  18.736 -0.0232  0.0214  0.2168
 4515POPC   C3B92152  20.706  23.016  18.372 -0.1672 -0.2146 -0.1128
 4515POPC   C4B92153  20.792  22.836  17.932 -0.0950 -0.0996 -0.1920
 4516POPC   NC392154  27.583  25.235  18.770  0.3070 -0.2189 -0.0370
 4516POPC   PO492155  27.381  25.105  18.427 -0.0899 -0.0062 -0.0061
 4516POPC   GL192156  27.170  25.147  18.050 -0.2939 -0.0023  0.0372
 4516POPC   GL292157  26.932  25.136  18.196 -0.0599 -0.1490 -0.1173
 4516POPC   C1A92158  27.548  25.290  17.794  0.1150  0.2127  0.3208
 4516POPC   D2A92159  27.557  25.380  17.368  0.2053  0.2206 -0.0641
 4516POPC   C3A92160  27.342  25.615  17.008  0.2156 -0.2086  0.0899
 4516POPC   C4A92161  27.029  25.815  16.663 -0.1396 -0.3426  0.2502
 4516POPC   C1B92162  26.682  25.535  18.016 -0.3921  0.1443 -0.0403
 4516POPC   C2B92163  26.545  25.879  17.736 -0.0077 -0.1440 -0.1533
 4516POPC   C3B92164  26.405  26.092  17.358  0.0691 -0.3079  0.0155
 4516POPC   C4B92165  26.669  26.298  17.045  0.0167 -0.1938 -0.2267
 4517POPC   NC392166  30.243  24.514  19.642  0.2524 -0.1594 -0.0505
 4517POPC   PO492167  30.383  24.785  19.390  0.0889 -0.0329  0.0594
 4517POPC   GL192168  30.620  24.852  19.045 -0.1988  0.4205  0.2761
 4517POPC   GL292169  30.500  24.863  18.774  0.2133  0.1702 -0.2518
 4517POPC   C1A92170  31.035  24.935  18.820 -0.2237 -0.0595 -0.1184
 4517POPC   D2A92171  31.159  25.104  18.409  0.1400  0.0520  0.0553
 4517POPC   C3A92172  31.419  25.186  18.055  0.1335 -0.1235 -0.0172
 4517POPC   C4A92173  31.803  25.411  17.990 -0.5112 -0.1195  0.2906
 4517POPC   C1B92174  30.579  25.021  18.355 -0.0154 -0.0935  0.0311
 4517POPC   C2B92175  30.675  24.808  17.925  0.2887  0.3710 -0.0386
 4517POPC   C3B92176  30.874  24.590  17.549  0.1388  0.2666  0.0032
 4517POPC   C4B92177  31.019  24.761  17.122 -0.2949  0.1057 -0.0840
 4518POPC   NC392178  27.656  23.025  16.652  0.0096 -0.1301  0.1156
 4518POPC   PO492179  27.630  23.396  16.602  0.0261  0.1243  0.2475
 4518POPC   GL192180  27.679  23.812  16.455  0.2343  0.1890  0.0219
 4518POPC   GL292181  28.003  23.723  16.478 -0.0938  0.2655  0.1203
 4518POPC   C1A92182  27.806  24.278  16.420  0.0448  0.0011 -0.0207
 4518POPC   D2A92183  27.925  24.574  16.733 -0.2269 -0.2174  0.0208
 4518POPC   C3A92184  28.139  24.972  16.523 -0.1067  0.2498 -0.0435
 4518POPC   C4A92185  28.280  25.375  16.484 -0.2090 -0.1004 -0.1348
 4518POPC   C1B92186  28.104  23.986  16.093  0.1735  0.3455 -0.3622
 4518POPC   C2B92187  28.113  24.350  15.789 -0.1856  0.0023  0.2839
 4518POPC   C3B92188  28.471  24.745  15.638 -0.1185  0.0548  0.3064
 4518POPC   C4B92189  28.658  25.091  15.780  0.1379 -0.0790 -0.2768
 4519POPC   NC392190  27.096  22.679  11.811  0.3407  0.0556 -0.2627
 4519POPC   PO492191  27.061  22.969  12.059 -0.2377  0.1669  0.1806
 4519POPC   GL192192  27.365  23.189  12.112 -0.0696 -0.0110 -0.0672
 4519POPC   GL292193  27.518  22.987  12.217  0.0469  0.0883  0.1369
 4519POPC   C1A92194  27.427  23.645  12.135 -0.2568 -0.0082 -0.2024
 4519POPC   D2A92195  27.309  24.089  12.214  0.0326 -0.0531  0.3814
 4519POPC   C3A92196  27.551  24.467  12.292 -0.0975 -0.0340  0.0082
 4519POPC   C4A92197  27.921  24.654  12.528  0.0257  0.2799  0.0180
 4519POPC   C1B92198  27.792  23.364  12.353 -0.1841  0.1839  0.0125
 4519POPC   C2B92199  27.922  23.845  12.369  0.3058  0.1209 -0.1342
 4519POPC   C3B92200  28.003  24.015  12.750  0.2932 -0.1169 -0.0497
 4519POPC   C4B92201  28.078  24.094  13.210  0.2441  0.0067 -0.0469
 4520POPC   NC392202  24.908  23.106  17.421 -0.1528  0.0291  0.0354
 4520POPC   PO492203  24.844  23.050  17.025  0.0370  0.0464  0.0975
 4520POPC   GL192204  24.874  23.443  16.869  0.2640 -0.5166 -0.0984
 4520POPC   GL292205  24.726  23.547  17.179 -0.2066 -0.0690 -0.0276
 4520POPC   C1A92206  24.576  23.704  16.692  0.3200 -0.1924 -0.1858
 4520POPC   D2A92207  24.231  23.546  16.361 -0.1193  0.3764  0.2905
 4520POPC   C3A92208  24.259  23.914  16.046 -0.0376 -0.1380  0.2362
 4520POPC   C4A92209  23.873  24.144  15.960 -0.0459  0.5275  0.1040
 4520POPC   C1B92210  24.285  23.853  17.150  0.2739  0.1541 -0.1102
 4520POPC   C2B92211  23.853  23.982  17.033  0.1812  0.1940 -0.1244
 4520POPC   C3B92212  23.542  24.207  16.803  0.1502 -0.2187  0.1866
 4520POPC   C4B92213  23.090  24.200  16.876 -0.1744  0.2671 -0.3581
 4521POPC   NC392214  25.305  32.477  20.188  0.0362  0.0563  0.1349
 4521POPC   PO492215  25.190  32.155  19.948  0.2023  0.4273 -0.0755
 4521POPC   GL192216  25.066  32.187  19.516  0.1159 -0.1068 -0.2717
 4521POPC   GL292217  25.295  32.361  19.279  0.1571 -0.1613 -0.1647
 4521POPC   C1A92218  25.143  31.804  19.317  0.1871  0.4541 -0.1492
 4521POPC   D2A92219  25.546  31.556  19.244  0.0721  0.1941  0.0479
 4521POPC   C3A92220  25.868  31.733  19.010 -0.0944  0.3261  0.2421
 4521POPC   C4A92221  26.116  32.067  18.846 -0.2323  0.1347 -0.0671
 4521POPC   C1B92222  25.168  32.488  18.842 -0.5514 -0.1817 -0.1232
 4521POPC   C2B92223  25.077  32.267  18.462  0.1573  0.2259  0.1639
 4521POPC   C3B92224  24.979  32.219  18.031  0.1568  0.1010  0.0479
 4521POPC   C4B92225  25.196  31.991  17.704  0.2803 -0.1289 -0.2620
 4522POPC   NC392226  31.508  22.758  19.086 -0.2402  0.0251 -0.4616
 4522POPC   PO492227  31.157  22.856  19.261  0.3118 -0.2734  0.1165
 4522POPC   GL192228  31.240  23.123  18.956 -0.2387  0.3338 -0.1696
 4522POPC   GL292229  31.172  23.011  18.744 -0.3937  0.0626 -0.0547
 4522POPC   C1A92230  31.676  23.140  18.733 -0.1822  0.0253  0.1422
 4522POPC   D2A92231  32.113  23.053  18.542 -0.0014 -0.0555 -0.1034
 4522POPC   C3A92232  32.380  23.311  18.765 -0.0897 -0.0558 -0.0262
 4522POPC   C4A92233  32.485  23.517  19.179  0.1308  0.0298 -0.0286
 4522POPC   C1B92234  31.327  22.530  18.596 -0.0794  0.1396  0.0596
 4522POPC   C2B92235  31.190  22.215  18.331 -0.1275  0.0187 -0.2609
 4522POPC   C3B92236  31.199  21.869  18.053 -0.0651  0.0430 -0.2729
 4522POPC   C4B92237  30.832  21.569  18.032  0.1997  0.0060  0.0529
 4523POPC   NC392238  28.093  22.232  14.339  0.2539 -0.3062  0.2096
 4523POPC   PO492239  27.978  21.947  14.562 -0.1170 -0.0983  0.2052
 4523POPC   GL192240  28.343  21.769  14.357 -0.0371  0.0705 -0.3853
 4523POPC   GL292241  28.540  21.972  14.337  0.0593 -0.2969  0.1456
 4523POPC   C1A92242  28.415  21.553  13.928  0.0791 -0.3370  0.1112
 4523POPC   D2A92243  28.500  21.307  13.530 -0.1193  0.1922 -0.1860
 4523POPC   C3A92244  28.821  21.482  13.189  0.1349  0.0111 -0.1111
 4523POPC   C4A92245  28.963  21.800  12.871 -0.2348  0.0124  0.0211
 4523POPC   C1B92246  28.956  22.128  14.198  0.1638 -0.1110  0.0650
 4523POPC   C2B92247  29.123  22.111  13.786 -0.4257  0.3183 -0.1664
 4523POPC   C3B92248  29.217  22.099  13.298  0.0892  0.1869  0.2307
 4523POPC   C4B92249  29.074  22.392  12.946 -0.0448  0.0735 -0.0117
 4524POPC   NC392250  23.277  28.015  20.490 -0.1870  0.4544  0.0040
 4524POPC   PO492251  23.347  28.355  20.629 -0.4214  0.4290  0.0304
 4524POPC   GL192252  23.440  28.480  20.264 -0.0257  0.1704  0.0181
 4524POPC   GL292253  23.621  28.225  20.155 -0.1487  0.0980 -0.0821
 4524POPC   C1A92254  23.363  28.722  19.863  0.2945 -0.0829 -0.0465
 4524POPC   D2A92255  23.256  28.993  19.503 -0.0221  0.0787  0.1641
 4524POPC   C3A92256  22.925  28.826  19.208  0.0027  0.0049  0.0391
 4524POPC   C4A92257  22.575  28.615  18.948 -0.1395  0.0546 -0.1524
 4524POPC   C1B92258  23.495  28.272  19.732  0.1707  0.0160  0.1907
 4524POPC   C2B92259  23.350  28.417  19.302  0.0470 -0.0150 -0.1387
 4524POPC   C3B92260  23.275  28.533  18.888 -0.0221  0.3778  0.1933
 4524POPC   C4B92261  23.169  28.862  18.587  0.0103 -0.3190  0.2297
 4525POPC   NC392262  21.186  30.469  20.067 -0.0804  0.3487 -0.2269
 4525POPC   PO492263  21.140  30.262  20.380 -0.0537 -0.0366  0.0386
 4525POPC   GL192264  21.089  29.950  20.177 -0.0778 -0.0379  0.1717
 4525POPC   GL292265  21.265  30.003  19.917 -0.2324  0.1837  0.0140
 4525POPC   C1A92266  20.959  29.624  19.910  0.2155  0.1875 -0.2806
 4525POPC   D2A92267  20.943  29.433  19.477 -0.0527 -0.2024  0.0465
 4525POPC   C3A92268  21.006  29.570  19.045 -0.3469  0.0255 -0.1535
 4525POPC   C4A92269  21.275  29.748  18.699  0.1366 -0.0311 -0.1473
 4525POPC   C1B92270  21.376  30.340  19.603  0.5616  0.0144 -0.0436
 4525POPC   C2B92271  21.427  30.579  19.195 -0.0961  0.0185 -0.1165
 4525POPC   C3B92272  21.110  30.845  18.945 -0.1185  0.2643  0.0729
 4525POPC   C4B92273  21.159  31.320  18.915 -0.1364 -0.0487  0.3107
 4526POPC   NC392274  28.528  30.602  20.412 -0.0179  0.0040  0.0798
 4526POPC   PO492275  28.583  30.198  20.374  0.0966 -0.1891  0.0365
 4526POPC   GL192276  28.278  30.145  20.064  0.1093 -0.0225  0.1542
 4526POPC   GL292277  28.331  29.883  19.992  0.1716 -0.1506  0.0471
 4526POPC   C1A92278  28.214  30.360  19.679 -0.0894 -0.2997  0.0249
 4526POPC   D2A92279  28.203  30.350  19.200 -0.3118 -0.0580 -0.1408
 4526POPC   C3A92280  28.319  30.165  18.814 -0.1580 -0.0728 -0.1185
 4526POPC   C4A92281  28.299  30.025  18.377  0.2560 -0.1930  0.0862
 4526POPC   C1B92282  28.456  29.951  19.571 -0.0778 -0.1449  0.1651
 4526POPC   C2B92283  28.550  29.969  19.133  0.1831 -0.0858 -0.1072
 4526POPC   C3B92284  28.830  30.110  18.805  0.4546  0.1636 -0.2095
 4526POPC   C4B92285  29.056  30.540  18.667 -0.0979  0.1037 -0.0960
 4527POPC   NC392286  26.376  17.973  19.079 -0.0972 -0.2611 -0.2256
 4527POPC   PO492287  26.798  18.012  19.032  0.4321 -0.0551  0.1667
 4527POPC   GL192288  26.848  17.901  18.605 -0.2638  0.0315  0.2357
 4527POPC   GL292289  27.093  17.735  18.715 -0.4319 -0.2044  0.1145
 4527POPC   C1A92290  26.929  17.802  18.144  0.2836  0.0775 -0.0455
 4527POPC   D2A92291  27.215  17.536  17.874  0.1369 -0.1860 -0.0648
 4527POPC   C3A92292  27.246  17.198  17.524  0.1803 -0.1924 -0.0097
 4527POPC   C4A92293  27.047  17.158  17.117  0.0308 -0.3692 -0.0122
 4527POPC   C1B92294  26.796  17.484  18.473 -0.0084  0.0464 -0.0283
 4527POPC   C2B92295  26.718  17.346  18.019  0.2153 -0.1057  0.1829
 4527POPC   C3B92296  26.728  17.405  17.554 -0.0925  0.0817 -0.2159
 4527POPC   C4B92297  26.702  17.505  17.052 -0.0363  0.1055 -0.2922
 4528POPC   NC392298  22.837  21.326  18.213  0.1211 -0.0280  0.1511
 4528POPC   PO492299  22.925  21.645  18.017  0.0495  0.0594  0.0277
 4528POPC   GL192300  22.921  21.486  17.618  0.1212 -0.1576  0.0097
 4528POPC   GL292301  22.744  21.343  17.655  0.1974  0.0642 -0.2053
 4528POPC   C1A92302  22.967  21.711  17.204 -0.4372 -0.2439  0.0595
 4528POPC   D2A92303  22.778  22.128  17.032  0.2784  0.0055  0.2587
 4528POPC   C3A92304  22.670  22.613  17.122  0.1205  0.1945 -0.2308
 4528POPC   C4A92305  22.610  22.987  17.365 -0.0406  0.0768  0.0683
 4528POPC   C1B92306  22.279  21.406  17.644 -0.0125 -0.0401 -0.2897
 4528POPC   C2B92307  21.976  21.606  17.401 -0.0402  0.1121 -0.0031
 4528POPC   C3B92308  21.584  21.673  17.323  0.1804  0.2110  0.1791
 4528POPC   C4B92309  21.277  21.993  17.423 -0.1978 -0.1113 -0.0432
 4529POPC   NC392310  28.650  28.953  20.296  0.0786 -0.0848  0.2530
 4529POPC   PO492311  28.983  29.159  20.347 -0.2141 -0.1613  0.2018
 4529POPC   GL192312  29.147  28.948  19.972 -0.1764 -0.0864  0.1282
 4529POPC   GL292313  29.241  29.194  19.840  0.1876  0.0827 -0.2309
 4529POPC   C1A92314  29.422  28.710  19.677  0.2852  0.1175  0.1586
 4529POPC   D2A92315  29.426  28.272  19.422  0.2825 -0.2165  0.1770
 4529POPC   C3A92316  29.804  28.196  19.222 -0.0226  0.1429 -0.0437
 4529POPC   C4A92317  30.189  27.924  19.196 -0.2048 -0.1904 -0.1303
 4529POPC   C1B92318  29.209  29.443  19.532 -0.0405 -0.4102 -0.2565
 4529POPC   C2B92319  29.480  29.528  19.169  0.2705  0.3265  0.2991
 4529POPC   C3B92320  29.498  29.668  18.752  0.0637  0.0681 -0.2179
 4529POPC   C4B92321  29.499  29.747  18.292  0.1681  0.2513  0.1285
 4530POPC   NC392322  27.485  24.771  18.085  0.2561  0.0554  0.0948
 4530POPC   PO492323  27.112  24.555  18.145  0.0664  0.2494 -0.2474
 4530POPC   GL192324  27.113  24.740  17.825 -0.1971 -0.0845  0.2691
 4530POPC   GL292325  26.915  24.856  17.807  0.1569  0.1522  0.0684
 4530POPC   C1A92326  27.225  24.791  17.333 -0.1448 -0.3387  0.0430
 4530POPC   D2A92327  27.558  24.939  17.016 -0.2275  0.1951  0.0084
 4530POPC   C3A92328  27.401  25.221  16.682 -0.0567 -0.1722 -0.0890
 4530POPC   C4A92329  27.184  25.339  16.312 -0.1431  0.2383  0.2814
 4530POPC   C1B92330  27.056  25.244  17.528 -0.0675  0.1377  0.0158
 4530POPC   C2B92331  27.038  25.214  17.062  0.1598  0.3238  0.0993
 4530POPC   C3B92332  26.796  25.254  16.715  0.1297 -0.0761 -0.1999
 4530POPC   C4B92333  26.433  25.459  16.468  0.1551  0.1784  0.2136
 4531POPC   NC392334  25.965  23.451  15.867  0.1490  0.2777  0.0369
 4531POPC   PO492335  25.650  23.222  15.738 -0.1524 -0.0883 -0.2390
 4531POPC   GL192336  25.378  23.427  15.493 -0.0389  0.1026 -0.2217
 4531POPC   GL292337  25.497  23.685  15.634 -0.2150  0.0567  0.0409
 4531POPC   C1A92338  25.012  23.360  15.258 -0.0853 -0.2259  0.1447
 4531POPC   D2A92339  24.781  23.007  15.086  0.1261 -0.1036  0.0877
 4531POPC   C3A92340  24.325  23.147  15.036  0.0203  0.0769 -0.0292
 4531POPC   C4A92341  23.925  23.174  14.945 -0.0124 -0.1835 -0.1802
 4531POPC   C1B92342  25.441  24.063  15.373  0.0716  0.1833 -0.0579
 4531POPC   C2B92343  25.507  24.475  15.167 -0.0865  0.4332  0.0106
 4531POPC   C3B92344  25.208  24.788  15.017 -0.0095 -0.2034  0.2875
 4531POPC   C4B92345  24.786  24.938  15.081  0.0645 -0.1961  0.0991
 4532POPC   NC392346  29.635  19.733  18.496 -0.0365  0.0284 -0.2767
 4532POPC   PO492347  29.231  19.657  18.697  0.1093 -0.2715  0.4545
 4532POPC   GL192348  29.398  19.256  18.565  0.3650 -0.1897  0.2440
 4532POPC   GL292349  29.634  19.182  18.457 -0.3759  0.1778  0.4472
 4532POPC   C1A92350  29.188  19.100  18.159  0.0658 -0.1203 -0.2391
 4532POPC   D2A92351  29.124  19.030  17.719  0.1492  0.1459  0.0237
 4532POPC   C3A92352  29.161  18.571  17.573  0.1059 -0.0926 -0.2853
 4532POPC   C4A92353  29.274  18.168  17.401 -0.3354 -0.1055  0.1669
 4532POPC   C1B92354  29.847  18.837  18.280 -0.0349  0.0134  0.0863
 4532POPC   C2B92355  30.162  18.681  17.948  0.1455 -0.2230 -0.0198
 4532POPC   C3B92356  30.517  18.863  17.806  0.1395 -0.0205 -0.2109
 4532POPC   C4B92357  30.820  19.152  17.997 -0.0367 -0.0868 -0.0887
 4533POPC   NC392358  26.020  31.982  20.005  0.1139  0.4076 -0.1856
 4533POPC   PO492359  26.309  32.122  19.808 -0.1443  0.1059 -0.0518
 4533POPC   GL192360  26.507  31.827  19.544 -0.2427 -0.0243  0.0062
 4533POPC   GL292361  26.775  31.877  19.542  0.2559  0.1747 -0.0886
 4533POPC   C1A92362  26.685  31.424  19.408  0.0170  0.0094 -0.4911
 4533POPC   D2A92363  26.638  31.254  19.013  0.0125 -0.3391  0.0195
 4533POPC   C3A92364  26.777  31.285  18.570 -0.1186  0.2962  0.0603
 4533POPC   C4A92365  27.067  31.519  18.272 -0.1126 -0.1273  0.2316
 4533POPC   C1B92366  26.885  31.822  19.117  0.0327  0.2217 -0.0794
 4533POPC   C2B92367  27.237  31.868  18.734  0.2047  0.3087 -0.1851
 4533POPC   C3B92368  27.467  31.807  18.296 -0.3488 -0.1453 -0.0443
 4533POPC   C4B92369  27.817  31.559  18.019  0.0448 -0.1112 -0.1525
 4534POPC   NC392370  25.039  28.881  21.039  0.1884  0.1603 -0.1395
 4534POPC   PO492371  25.131  29.132  20.754 -0.1235 -0.0326  0.2346
 4534POPC   GL192372  24.976  29.092  20.364 -0.0189  0.0989  0.1806
 4534POPC   GL292373  24.828  28.841  20.393  0.2009 -0.0828 -0.0205
 4534POPC   C1A92374  24.919  29.416  19.996 -0.1449 -0.0434  0.1874
 4534POPC   D2A92375  24.470  29.371  19.811 -0.0528 -0.2153  0.1152
 4534POPC   C3A92376  24.509  29.281  19.375  0.2535  0.0954 -0.1777
 4534POPC   C4A92377  24.672  29.554  19.032 -0.1002  0.1946  0.0876
 4534POPC   C1B92378  24.821  28.898  19.910 -0.0324 -0.0765 -0.0957
 4534POPC   C2B92379  24.734  28.662  19.493  0.0311 -0.1395 -0.3007
 4534POPC   C3B92380  24.822  28.694  19.025  0.0131  0.0536  0.1178
 4534POPC   C4B92381  24.743  28.732  18.580 -0.0867  0.3030 -0.1193
 4535POPC   NC392382  18.598  31.636  20.480 -0.0891 -0.0491 -0.2090
 4535POPC   PO492383  18.954  31.624  20.619 -0.0124  0.1231  0.2211
 4535POPC   GL192384  18.977  31.523  20.184  0.3406  0.2553 -0.0567
 4535POPC   GL292385  19.261  31.510  20.065  0.0201  0.0665  0.3861
 4535POPC   C1A92386  19.025  31.098  19.924  0.1701  0.0593  0.3133
 4535POPC   D2A92387  19.312  30.795  19.714 -0.2190  0.0215 -0.3411
 4535POPC   C3A92388  19.257  30.623  19.268  0.0162 -0.1732 -0.3854
 4535POPC   C4A92389  19.079  30.610  18.852  0.0780  0.1762 -0.0004
 4535POPC   C1B92390  19.033  31.792  19.788 -0.0327  0.1327 -0.0285
 4535POPC   C2B92391  18.767  31.932  19.502 -0.1089  0.0210  0.1302
 4535POPC   C3B92392  18.705  32.104  19.065 -0.3053 -0.0910  0.1151
 4535POPC   C4B92393  18.899  31.925  18.674  0.0474  0.2716 -0.0207
 4536POPC   NC392394  18.974  17.619  19.618  0.0297  0.0555  0.0547
 4536POPC   PO492395  18.608  17.637  19.773  0.1764  0.0455 -0.1031
 4536POPC   GL192396  18.503  17.464  19.401  0.0336  0.3272 -0.0917
 4536POPC   GL292397  18.435  17.712  19.259  0.2075 -0.0185 -0.1447
 4536POPC   C1A92398  18.869  17.326  19.244  0.0106 -0.2674  0.1858
 4536POPC   D2A92399  19.168  17.320  18.900 -0.2817 -0.2753 -0.1442
 4536POPC   C3A92400  19.172  17.297  18.415  0.2494  0.4635  0.0208
 4536POPC   C4A92401  19.248  17.462  17.953  0.0691  0.1148  0.1313
 4536POPC   C1B92402  18.538  18.032  18.948  0.3062  0.4382 -0.0186
 4536POPC   C2B92403  18.269  18.261  18.626  0.2696 -0.3723  0.0912
 4536POPC   C3B92404  18.111  18.575  18.270  0.4328  0.2733  0.0840
 4536POPC   C4B92405  18.059  18.839  17.933  0.3430  0.0937  0.1517
 4537POPC   NC392406  29.430  29.351  20.314  0.2481  0.1907 -0.2376
 4537POPC   PO492407  29.293  29.648  20.114  0.0696  0.1229 -0.1042
 4537POPC   GL192408  29.078  29.903  19.821 -0.3753  0.0883 -0.2319
 4537POPC   GL292409  28.836  29.862  19.886 -0.0186 -0.2388  0.2510
 4537POPC   C1A92410  29.169  30.231  19.543 -0.0847 -0.2100  0.0896
 4537POPC   D2A92411  29.245  30.510  19.159  0.0218 -0.1548 -0.0623
 4537POPC   C3A92412  29.612  30.498  18.949  0.3581 -0.0982  0.0527
 4537POPC   C4A92413  29.914  30.706  18.630 -0.0053 -0.1399 -0.1039
 4537POPC   C1B92414  28.919  29.831  19.439  0.0166 -0.1195  0.1579
 4537POPC   C2B92415  29.017  29.652  18.998 -0.0795 -0.0662  0.2786
 4537POPC   C3B92416  29.045  29.606  18.526  0.2215  0.1585  0.1534
 4537POPC   C4B92417  29.118  29.410  18.107 -0.0652 -0.1754 -0.2033
 4538POPC   NC392418  25.580  19.845  16.582  0.0666  0.1011  0.0342
 4538POPC   PO492419  25.611  19.795  16.961 -0.2178 -0.1817  0.0128
 4538POPC   GL192420  25.759  19.450  16.752 -0.3574 -0.0281 -0.0119
 4538POPC   GL292421  25.690  19.197  16.839 -0.0119 -0.0172 -0.1353
 4538POPC   C1A92422  25.504  19.264  16.350 -0.0100  0.0532 -0.0331
 4538POPC   D2A92423  25.392  19.127  15.947  0.0307 -0.2370 -0.2679
 4538POPC   C3A92424  25.479  18.788  15.669 -0.2222 -0.0719  0.2879
 4538POPC   C4A92425  25.446  18.387  15.444  0.2262  0.2314 -0.1210
 4538POPC   C1B92426  25.561  18.815  16.761  0.0176 -0.0844  0.0189
 4538POPC   C2B92427  25.545  18.435  16.544 -0.2239  0.1332  0.1362
 4538POPC   C3B92428  25.861  18.244  16.230  0.0956  0.3563 -0.2457
 4538POPC   C4B92429  26.045  18.045  15.898  0.0785  0.0835  0.1103
 4539POPC   NC392430  24.086  31.823  19.931 -0.1009 -0.2282  0.1564
 4539POPC   PO492431  24.465  31.779  20.021  0.2324  0.0175  0.1321
 4539POPC   GL192432  24.421  31.696  19.604 -0.1529  0.4049 -0.2381
 4539POPC   GL292433  24.306  31.882  19.458  0.0285 -0.1302  0.3236
 4539POPC   C1A92434  24.688  31.669  19.190  0.0685 -0.1337 -0.3064
 4539POPC   D2A92435  24.991  31.461  18.891 -0.1945 -0.0115  0.1068
 4539POPC   C3A92436  24.818  31.118  18.546 -0.2589  0.0972 -0.0039
 4539POPC   C4A92437  24.575  30.733  18.431  0.2704 -0.2898 -0.3530
 4539POPC   C1B92438  24.002  31.990  19.159  0.3309  0.1376  0.0220
 4539POPC   C2B92439  23.665  32.096  18.793 -0.2344  0.0592 -0.0323
 4539POPC   C3B92440  23.385  31.947  18.490 -0.0799 -0.0329  0.1048
 4539POPC   C4B92441  22.966  31.922  18.421 -0.0841  0.1332  0.1205
 4540POPC   NC392442  17.597  20.241  19.766 -0.2819  0.0932 -0.0592
 4540POPC   PO492443  17.265  20.325  19.575  0.1100  0.0037 -0.5120
 4540POPC   GL192444  17.355  20.190  19.293  0.0644  0.3905  0.0344
 4540POPC   GL292445  17.203  20.269  19.086 -0.0563  0.2235 -0.0514
 4540POPC   C1A92446  17.681  20.255  18.979 -0.1908  0.2831  0.1803
 4540POPC   D2A92447  17.837  20.089  18.535  0.1148  0.1019 -0.0218
 4540POPC   C3A92448  17.658  19.770  18.229  0.1695 -0.0736 -0.2082
 4540POPC   C4A92449  17.812  19.388  18.061  0.1249  0.1950  0.0094
 4540POPC   C1B92450  17.354  20.277  18.613 -0.0686 -0.2361  0.0668
 4540POPC   C2B92451  17.511  20.267  18.161 -0.0487  0.0415  0.2940
 4540POPC   C3B92452  17.691  20.515  17.814  0.1302  0.2692  0.1821
 4540POPC   C4B92453  18.040  20.329  17.562 -0.0832 -0.3566  0.0945
 4541POPC   NC392454  19.246  16.857  20.133  0.1031  0.2705 -0.0864
 4541POPC   PO492455  18.897  16.719  20.193  0.3468  0.1333  0.4714
 4541POPC   GL192456  18.802  16.631  19.859 -0.0603 -0.5395  0.3409
 4541POPC   GL292457  18.662  16.774  19.679 -0.1874 -0.0908 -0.1268
 4541POPC   C1A92458  18.964  16.361  19.504  0.4638 -0.1258  0.0501
 4541POPC   D2A92459  19.158  16.379  19.062  0.0129 -0.1216  0.0450
 4541POPC   C3A92460  19.592  16.480  18.897 -0.4601  0.0460  0.0362
 4541POPC   C4A92461  19.862  16.675  18.549  0.1284 -0.2967  0.1213
 4541POPC   C1B92462  18.724  16.722  19.241  0.0646 -0.1803 -0.1073
 4541POPC   C2B92463  18.461  16.729  18.884 -0.0331 -0.1954  0.1542
 4541POPC   C3B92464  18.321  16.397  18.665 -0.0437  0.0331  0.1421
 4541POPC   C4B92465  18.155  16.000  18.710  0.2069  0.0305  0.3461
 4542POPC   NC392466  18.130  23.730  20.260  0.0909  0.1599 -0.0332
 4542POPC   PO492467  18.372  24.004  20.420 -0.2807 -0.0276  0.2134
 4542POPC   GL192468  18.435  24.177  20.068  0.3687 -0.2503 -0.0433
 4542POPC   GL292469  18.352  24.018  19.863 -0.0733 -0.3467  0.1300
 4542POPC   C1A92470  18.660  24.404  19.773 -0.3526  0.1557 -0.0825
 4542POPC   D2A92471  18.709  24.629  19.359  0.5148 -0.0234  0.0521
 4542POPC   C3A92472  18.396  24.716  18.971  0.1597 -0.1899 -0.0126
 4542POPC   C4A92473  18.117  24.875  18.645  0.3954 -0.2165  0.2263
 4542POPC   C1B92474  18.312  23.769  19.484  0.0198  0.1229 -0.1018
 4542POPC   C2B92475  18.209  23.877  19.065  0.0060  0.0639 -0.0144
 4542POPC   C3B92476  18.129  23.893  18.597  0.3300  0.0367 -0.2518
 4542POPC   C4B92477  18.010  24.134  18.270  0.0388 -0.2513 -0.0629
 4543POPC   NC392478  27.461  25.581  19.581 -0.1035 -0.2570 -0.0348
 4543POPC   PO492479  27.390  25.538  19.206 -0.0984 -0.2432  0.3356
 4543POPC   GL192480  27.299  25.659  18.795 -0.1425 -0.2499  0.1101
 4543POPC   GL292481  27.116  25.469  18.736 -0.3465 -0.2163 -0.0880
 4543POPC   C1A92482  27.522  25.959  18.431  0.4074  0.0857  0.1050
 4543POPC   D2A92483  27.414  26.105  17.966 -0.2178 -0.0268  0.2656
 4543POPC   C3A92484  27.029  26.150  17.832  0.0332 -0.0087  0.1355
 4543POPC   C4A92485  26.749  26.431  17.519  0.4102  0.0571 -0.0142
 4543POPC   C1B92486  27.069  25.664  18.341  0.1419  0.0794  0.2107
 4543POPC   C2B92487  27.194  25.602  17.923  0.2235  0.0221  0.0234
 4543POPC   C3B92488  27.208  25.792  17.514 -0.0252 -0.2729 -0.1454
 4543POPC   C4B92489  27.090  26.171  17.297  0.0947 -0.0536  0.2206
 4544POPC   NC392490  24.390  24.935  18.694  0.0942 -0.1855 -0.0619
 4544POPC   PO492491  24.069  24.748  18.857 -0.0781 -0.2991  0.2590
 4544POPC   GL192492  23.934  24.756  18.517  0.1578 -0.0759 -0.1304
 4544POPC   GL292493  24.130  24.930  18.276  0.0443 -0.2742 -0.1612
 4544POPC   C1A92494  23.511  24.716  18.350  0.2663  0.0060 -0.0089
 4544POPC   D2A92495  23.070  24.886  18.228  0.0085 -0.2448  0.0798
 4544POPC   C3A92496  22.796  25.092  17.940 -0.1005 -0.3631  0.0082
 4544POPC   C4A92497  22.400  25.246  17.739 -0.0101 -0.1724  0.0295
 4544POPC   C1B92498  24.340  25.031  17.866  0.1237 -0.6056  0.4281
 4544POPC   C2B92499  24.308  24.890  17.445  0.3466 -0.1165 -0.2122
 4544POPC   C3B92500  24.072  25.002  17.094 -0.0682  0.1210 -0.0537
 4544POPC   C4B92501  23.717  25.051  16.860 -0.3027 -0.2081 -0.4852
 4545POPC   NC392502  20.164  24.791  19.873  0.0795 -0.1395 -0.1207
 4545POPC   PO492503  19.881  24.551  20.015 -0.1357 -0.4114  0.0234
 4545POPC   GL192504  19.892  24.629  19.581  0.1804  0.1422 -0.1107
 4545POPC   GL292505  20.125  24.410  19.592  0.1120 -0.2347  0.0824
 4545POPC   C1A92506  19.647  24.515  19.157  0.0769 -0.2967  0.1633
 4545POPC   D2A92507  19.510  24.681  18.756  0.1893  0.0056  0.0220
 4545POPC   C3A92508  19.277  24.507  18.375  0.1074  0.2411 -0.0560
 4545POPC   C4A92509  19.172  24.360  17.938 -0.1047 -0.1087 -0.1378
 4545POPC   C1B92510  20.083  24.129  19.200  0.0006 -0.0384 -0.1979
 4545POPC   C2B92511  20.240  23.980  18.796  0.2180 -0.0599 -0.1514
 4545POPC   C3B92512  20.190  23.900  18.310  0.1482 -0.1019  0.1677
 4545POPC   C4B92513  20.268  23.620  17.952 -0.0400 -0.1554  0.1407
 4546POPC   NC392514  27.612  20.864  16.141 -0.0480  0.1230 -0.0281
 4546POPC   PO492515  27.812  20.792  16.504  0.0053  0.2177  0.1357
 4546POPC   GL192516  28.179  20.747  16.266 -0.1425 -0.0466 -0.1664
 4546POPC   GL292517  28.124  20.535  16.125 -0.0848  0.0494  0.0263
 4546POPC   C1A92518  28.633  20.525  16.193  0.0684 -0.0068 -0.2051
 4546POPC   D2A92519  28.893  20.146  16.237  0.0151 -0.0151  0.2474
 4546POPC   C3A92520  28.962  19.953  16.665  0.0905 -0.0193 -0.4480
 4546POPC   C4A92521  28.978  19.761  17.084  0.2144 -0.1186  0.2548
 4546POPC   C1B92522  27.834  20.250  15.898  0.1466 -0.1488 -0.2369
 4546POPC   C2B92523  27.670  19.888  15.702 -0.0552  0.2284  0.0483
 4546POPC   C3B92524  27.632  19.432  15.598 -0.1323  0.0767 -0.1324
 4546POPC   C4B92525  27.516  19.007  15.437 -0.0798 -0.0967 -0.2578
 4547POPC   NC392526  18.097  29.090  20.740 -0.0763  0.3659  0.1588
 4547POPC   PO492527  17.798  29.317  20.761 -0.0576  0.0294 -0.1008
 4547POPC   GL192528  17.894  29.306  20.363  0.0519  0.0326  0.1317
 4547POPC   GL292529  17.684  29.608  20.255 -0.0691  0.1544 -0.0586
 4547POPC   C1A92530  17.806  29.098  19.973  0.1448 -0.0588  0.0501
 4547POPC   D2A92531  17.603  28.801  19.625  0.1935  0.1504  0.0370
 4547POPC   C3A92532  17.597  28.907  19.204  0.0350 -0.1883 -0.0291
 4547POPC   C4A92533  17.428  29.197  18.915 -0.0298 -0.4974  0.1060
 4547POPC   C1B92534  17.432  29.704  19.829  0.2611 -0.2254  0.0563
 4547POPC   C2B92535  17.358  29.990  19.473  0.1552  0.2580  0.1902
 4547POPC   C3B92536  17.571  30.100  19.046  0.2156  0.1419 -0.2488
 4547POPC   C4B92537  17.658  30.400  18.635 -0.1161  0.0865 -0.4779
 4548POPC   NC392538   0.852   0.827  19.992  0.2095 -0.0528 -0.1686
 4548POPC   PO492539   0.425   0.817  19.978 -0.3180  0.4665  0.0268
 4548POPC   GL192540   0.332   0.871  19.589  0.0216 -0.0051 -0.0037
 4548POPC   GL292541   0.615   1.002  19.576 -0.1566  0.2432 -0.3854
 4548POPC   C1A92542   0.393   0.623  19.241  0.3183 -0.0014  0.1498
 4548POPC   D2A92543   0.639   0.640  18.777 -0.2586  0.0558 -0.3290
 4548POPC   C3A92544   0.625   0.417  18.404 -0.1275 -0.0802 -0.0487
 4548POPC   C4A92545   0.440   0.176  18.147 -0.0324 -0.0015  0.0197
 4548POPC   C1B92546   0.699   1.009  19.120  0.2612 -0.2193  0.4054
 4548POPC   C2B92547   0.895   1.141  18.716  0.1168  0.4850 -0.0797
 4548POPC   C3B92548   1.145   1.262  18.290  0.0844 -0.0504 -0.1599
 4548POPC   C4B92549   1.512   1.126  18.102  0.0186 -0.0801 -0.5943
 4549POPC   NC392550  29.162  22.765  17.630 -0.0988 -0.1617  0.0722
 4549POPC   PO492551  28.916  22.610  17.383  0.0810 -0.1515 -0.2785
 4549POPC   GL192552  29.167  22.877  17.157  0.0535  0.2384 -0.3974
 4549POPC   GL292553  29.308  23.068  17.245 -0.2119  0.2634 -0.0036
 4549POPC   C1A92554  29.487  22.753  16.904 -0.0583  0.0218  0.2463
 4549POPC   D2A92555  29.882  22.845  16.736  0.0808  0.0482  0.1210
 4549POPC   C3A92556  30.266  22.570  16.657  0.0287 -0.0283  0.0970
 4549POPC   C4A92557  30.507  22.415  16.279  0.0931  0.0482 -0.1312
 4549POPC   C1B92558  29.400  23.403  16.900  0.0744  0.1123  0.1222
 4549POPC   C2B92559  29.410  23.692  16.536 -0.1592  0.2094  0.1482
 4549POPC   C3B92560  29.347  23.802  16.117  0.1556  0.0916  0.0047
 4549POPC   C4B92561  29.133  24.200  15.897 -0.0055 -0.0682 -0.0781
 4550POPC   NC392562  23.637  22.051  17.699 -0.0393  0.2503 -0.0305
 4550POPC   PO492563  23.376  21.721  17.778 -0.1577 -0.0165 -0.1840
 4550POPC   GL192564  23.019  21.979  17.663 -0.3775 -0.0056  0.0899
 4550POPC   GL292565  23.179  22.169  17.413  0.2080 -0.2963  0.2137
 4550POPC   C1A92566  22.541  21.874  17.479  0.0773 -0.5071  0.1258
 4550POPC   D2A92567  22.283  21.980  17.104  0.1015 -0.1371 -0.4242
 4550POPC   C3A92568  22.448  22.308  16.779  0.0061  0.0655  0.3380
 4550POPC   C4A92569  22.727  22.557  16.528  0.2423 -0.0875  0.0526
 4550POPC   C1B92570  23.202  22.290  17.018  0.1275 -0.1328  0.0723
 4550POPC   C2B92571  23.351  22.617  16.790  0.1212 -0.0449  0.2111
 4550POPC   C3B92572  23.184  22.825  16.393 -0.1987 -0.1098 -0.0158
 4550POPC   C4B92573  22.759  23.091  16.262 -0.3039  0.1999 -0.1412
 4551POPC   NC392574  23.599  22.722  17.886  0.1605  0.2321  0.0393
 4551POPC   PO492575  23.348  22.398  17.899 -0.3095  0.0825 -0.1923
 4551POPC   GL192576  23.084  22.695  17.840  0.1365 -0.1224 -0.1254
 4551POPC   GL292577  22.949  22.619  17.651  0.1168  0.2577 -0.1123
 4551POPC   C1A92578  22.968  23.134  17.678  0.1367 -0.1183  0.1531
 4551POPC   D2A92579  23.111  23.559  17.635  0.1284  0.0665 -0.0146
 4551POPC   C3A92580  23.076  23.795  17.186 -0.0574 -0.2466  0.1004
 4551POPC   C4A92581  23.303  23.761  16.797  0.3808 -0.3798 -0.0239
 4551POPC   C1B92582  22.573  22.366  17.502  0.0137  0.1127  0.0319
 4551POPC   C2B92583  22.214  22.445  17.264 -0.1827 -0.1291 -0.2061
 4551POPC   C3B92584  21.931  22.474  17.047 -0.0023 -0.0593 -0.1580
 4551POPC   C4B92585  21.571  22.560  16.817 -0.0797 -0.2134 -0.1319
 4552POPC   NC392586  29.650  16.562  20.269  0.0101 -0.1799 -0.0127
 4552POPC   PO492587  29.379  16.846  20.203  0.0791 -0.0659 -0.2109
 4552POPC   GL192588  29.170  16.624  20.052  0.3757  0.0004  0.3213
 4552POPC   GL292589  29.201  16.711  19.721 -0.1152  0.0004  0.3108
 4552POPC   C1A92590  29.116  16.256  19.765  0.0680 -0.1963  0.1237
 4552POPC   D2A92591  28.982  15.918  19.479  0.1209 -0.3204  0.1459
 4552POPC   C3A92592  29.198  15.948  19.109 -0.0395 -0.0592  0.1294
 4552POPC   C4A92593  29.477  15.901  18.718 -0.0187  0.2241 -0.1143
 4552POPC   C1B92594  29.263  16.973  19.318 -0.2202 -0.0599  0.0317
 4552POPC   C2B92595  29.428  16.881  18.892  0.1099 -0.3346 -0.0861
 4552POPC   C3B92596  29.481  16.618  18.554  0.1767  0.2720  0.1629
 4552POPC   C4B92597  29.498  16.316  18.222  0.1306  0.2562  0.1325
 4553POPC   NC392598  27.257  30.288  19.723  0.2270 -0.0384 -0.0763
 4553POPC   PO492599  27.343  30.042  20.024  0.0397 -0.1656 -0.3760
 4553POPC   GL192600  27.435  29.901  19.634 -0.1505 -0.0399  0.0261
 4553POPC   GL292601  27.112  29.834  19.474 -0.1560  0.3510  0.1549
 4553POPC   C1A92602  27.413  30.070  19.195  0.3466 -0.1887 -0.0203
 4553POPC   D2A92603  27.503  30.135  18.745  0.2363 -0.1592  0.3912
 4553POPC   C3A92604  27.624  29.838  18.412 -0.0299 -0.1407  0.0292
 4553POPC   C4A92605  28.005  29.644  18.211  0.0639 -0.0258 -0.2443
 4553POPC   C1B92606  27.164  29.440  19.190 -0.0468  0.0906 -0.0336
 4553POPC   C2B92607  27.231  29.054  18.905  0.2799 -0.3982  0.0781
 4553POPC   C3B92608  27.363  28.738  18.551 -0.4613 -0.4255 -0.1674
 4553POPC   C4B92609  27.272  28.905  18.126  0.2688 -0.0758 -0.3452
 4554POPC   NC392610  26.315  23.945  15.268 -0.1872 -0.0516  0.2278
 4554POPC   PO492611  26.194  23.722  14.974 -0.0497 -0.0154 -0.0481
 4554POPC   GL192612  26.266  23.978  14.713  0.1571  0.4199 -0.1819
 4554POPC   GL292613  26.047  23.895  14.489 -0.2801 -0.0047  0.0183
 4554POPC   C1A92614  26.179  24.381  14.520 -0.1386  0.2498 -0.0623
 4554POPC   D2A92615  26.164  24.610  14.142 -0.2030  0.0482 -0.0973
 4554POPC   C3A92616  26.336  24.314  13.842  0.0077 -0.0865 -0.2501
 4554POPC   C4A92617  26.633  24.166  13.554  0.0573  0.1490 -0.0297
 4554POPC   C1B92618  25.833  24.250  14.232 -0.4795 -0.1249  0.1772
 4554POPC   C2B92619  25.597  24.618  14.120  0.0082  0.3339 -0.0856
 4554POPC   C3B92620  25.160  24.662  13.941 -0.2704  0.1011  0.3603
 4554POPC   C4B92621  24.708  24.724  13.671  0.2737 -0.0984  0.0660
 4555POPC   NC392622  25.717  23.078  16.223 -0.0636 -0.0545  0.1957
 4555POPC   PO492623  25.378  22.908  16.105  0.1564  0.0848 -0.0759
 4555POPC   GL192624  25.171  23.122  15.816 -0.2408 -0.0930 -0.0327
 4555POPC   GL292625  25.174  23.349  16.058  0.4056 -0.0830 -0.0739
 4555POPC   C1A92626  24.768  23.122  15.668 -0.1051  0.1208  0.1177
 4555POPC   D2A92627  24.321  23.069  15.574 -0.1543 -0.1217  0.0717
 4555POPC   C3A92628  23.922  22.878  15.372 -0.0354  0.2306 -0.0252
 4555POPC   C4A92629  23.531  22.798  15.168 -0.1918  0.0896  0.1884
 4555POPC   C1B92630  25.031  23.663  15.768 -0.1791 -0.1074  0.0023
 4555POPC   C2B92631  24.935  23.847  15.353  0.1573  0.2821  0.0721
 4555POPC   C3B92632  25.070  24.244  15.035  0.0554  0.0826 -0.1048
 4555POPC   C4B92633  25.419  24.221  14.737 -0.1877  0.1029 -0.0458
 4556POPC   NC392634  25.415  15.724  20.050 -0.1061  0.2851 -0.2132
 4556POPC   PO492635  25.617  15.540  19.772  0.1389  0.2478  0.1863
 4556POPC   GL192636  25.740  15.205  19.515 -0.2132 -0.1599 -0.2550
 4556POPC   GL292637  25.993  15.377  19.388  0.1388  0.1982  0.0472
 4556POPC   C1A92638  25.962  14.831  19.321  0.0524  0.0425 -0.0869
 4556POPC   D2A92639  26.254  14.567  19.085 -0.1564  0.1525 -0.1694
 4556POPC   C3A92640  26.557  14.491  18.773 -0.0940  0.1728  0.0547
 4556POPC   C4A92641  26.715  14.619  18.303  0.1352 -0.1836 -0.0226
 4556POPC   C1B92642  25.951  15.210  18.907 -0.0093  0.1975  0.1339
 4556POPC   C2B92643  26.027  15.286  18.476  0.3235 -0.0558 -0.0119
 4556POPC   C3B92644  26.159  15.359  18.065  0.0063 -0.1867  0.2334
 4556POPC   C4B92645  26.331  15.204  17.672 -0.1811 -0.2577  0.0103
 4557POPC   NC392646  29.569  22.556  18.770 -0.1151 -0.1289 -0.0188
 4557POPC   PO492647  29.681  22.421  18.439 -0.1029 -0.0877  0.4849
 4557POPC   GL192648  29.868  22.669  18.128  0.1948  0.0801 -0.2926
 4557POPC   GL292649  29.836  22.551  17.926  0.2825 -0.0388  0.1172
 4557POPC   C1A92650  30.213  22.789  17.759  0.0255  0.0368  0.1393
 4557POPC   D2A92651  30.478  23.034  17.478  0.1104 -0.0504 -0.1363
 4557POPC   C3A92652  30.864  22.876  17.468 -0.3284 -0.0694 -0.0955
 4557POPC   C4A92653  31.262  22.810  17.673  0.0392  0.1390 -0.0388
 4557POPC   C1B92654  29.963  22.388  17.494 -0.2791 -0.3810 -0.1975
 4557POPC   C2B92655  30.283  22.368  17.122  0.1183  0.1576 -0.0511
 4557POPC   C3B92656  30.618  22.276  16.846  0.0007  0.0149  0.1479
 4557POPC   C4B92657  31.021  22.471  16.733  0.0623 -0.1935  0.0291
 4558POPC   NC392658  22.320  18.885  19.047  0.1701 -0.2253 -0.0183
 4558POPC   PO492659  22.652  18.749  19.147  0.3670  0.0220 -0.0024
 4558POPC   GL192660  22.552  18.451  18.944 -0.2905  0.3011 -0.3766
 4558POPC   GL292661  22.479  18.272  19.119 -0.1363 -0.5084 -0.2069
 4558POPC   C1A92662  22.228  18.437  18.691 -0.3895 -0.4695  0.1290
 4558POPC   D2A92663  22.140  18.281  18.256  0.2418  0.0991  0.3181
 4558POPC   C3A92664  21.806  18.138  17.986  0.3130 -0.0283 -0.1060
 4558POPC   C4A92665  21.524  18.200  17.606 -0.1509  0.2652 -0.3699
 4558POPC   C1B92666  22.341  17.945  18.823  0.1163  0.0784  0.3033
 4558POPC   C2B92667  21.959  17.791  18.632 -0.0847  0.0397 -0.2961
 4558POPC   C3B92668  21.830  17.642  18.212 -0.0983  0.2741 -0.5504
 4558POPC   C4B92669  21.727  17.528  17.761 -0.1840  0.1922 -0.0552
 4559POPC   NC392670  26.334  28.377  20.262 -0.1986  0.3131 -0.0578
 4559POPC   PO492671  26.018  28.144  20.207 -0.0102 -0.0852  0.1224
 4559POPC   GL192672  25.944  28.317  19.962  0.0743 -0.1448 -0.2307
 4559POPC   GL292673  25.988  28.581  19.866 -0.0872 -0.1479 -0.1338
 4559POPC   C1A92674  25.619  28.280  19.619  0.0568 -0.1949  0.0504
 4559POPC   D2A92675  25.553  28.316  19.196 -0.1237  0.4731 -0.0821
 4559POPC   C3A92676  25.854  28.275  18.823 -0.3707 -0.0202 -0.0417
 4559POPC   C4A92677  26.174  28.155  18.494  0.0648  0.0924  0.2118
 4559POPC   C1B92678  25.784  28.686  19.508 -0.2716  0.0102 -0.0397
 4559POPC   C2B92679  25.846  28.735  19.035  0.0772  0.0687  0.0412
 4559POPC   C3B92680  26.111  28.725  18.663  0.3328  0.0047  0.3247
 4559POPC   C4B92681  26.508  28.582  18.498 -0.0524  0.0469  0.1756
 4560POPC   NC392682  17.847  18.374  20.346  0.4064  0.1400  0.2038
 4560POPC   PO492683  18.015  18.098  20.098 -0.1968 -0.1090 -0.0547
 4560POPC   GL192684  18.271  17.952  19.740 -0.0980  0.3267  0.0644
 4560POPC   GL292685  18.113  17.697  19.736 -0.1745  0.0036 -0.1829
 4560POPC   C1A92686  18.320  18.233  19.382  0.0022  0.1423  0.4099
 4560POPC   D2A92687  18.176  18.639  19.347 -0.2258  0.0432  0.5141
 4560POPC   C3A92688  18.125  18.736  18.860 -0.0634  0.0382 -0.2279
 4560POPC   C4A92689  18.009  19.021  18.469 -0.2028  0.0350  0.2563
 4560POPC   C1B92690  17.887  17.950  19.378 -0.1983 -0.2421  0.3358
 4560POPC   C2B92691  17.941  18.237  19.013 -0.0110 -0.1300 -0.0846
 4560POPC   C3B92692  17.785  18.166  18.568 -0.0768 -0.1857 -0.0926
 4560POPC   C4B92693  17.651  18.286  18.161  0.1306 -0.0765  0.1865
 4561POPC   NC392694  31.397  24.745  19.063 -0.1154  0.2444  0.0664
 4561POPC   PO492695  31.558  24.844  19.439  0.0184  0.3896 -0.0436
 4561POPC   GL192696  31.867  24.875  19.195  0.0843  0.1460 -0.1715
 4561POPC   GL292697  31.948  25.150  19.127  0.3811  0.2061  0.2688
 4561POPC   C1A92698  31.804  24.785  18.765 -0.2458  0.2030  0.0634
 4561POPC   D2A92699  31.485  24.775  18.412 -0.1245 -0.4044  0.1737
 4561POPC   C3A92700  31.765  24.842  18.021  0.0205  0.1906  0.0144
 4561POPC   C4A92701  31.882  24.918  17.545  0.1928 -0.3965 -0.0361
 4561POPC   C1B92702  32.019  25.586  18.995  0.1962 -0.1085 -0.2674
 4561POPC   C2B92703  32.294  25.767  18.733  0.1311 -0.2558  0.1465
 4561POPC   C3B92704  32.701  25.984  18.731  0.1625 -0.2726 -0.1581
 4561POPC   C4B92705  33.049  26.084  18.983 -0.2539  0.1493 -0.2495
 4562POPC   NC392706  32.305  26.175  20.518  0.1955 -0.1800 -0.2333
 4562POPC   PO492707  32.327  26.405  20.165 -0.1249 -0.1457 -0.0718
 4562POPC   GL192708  32.448  26.501  19.822  0.1769  0.0287  0.0665
 4562POPC   GL292709  32.718  26.361  19.839 -0.1248  0.1795 -0.0499
 4562POPC   C1A92710  32.690  26.815  19.571 -0.0979  0.1946 -0.4092
 4562POPC   D2A92711  32.770  27.225  19.729 -0.4496  0.3590  0.0600
 4562POPC   C3A92712  33.159  27.436  19.621  0.0421 -0.2239 -0.0533
 4562POPC   C4A92713  33.546  27.243  19.467  0.0778  0.2009 -0.2328
 4562POPC   C1B92714  32.790  26.293  19.428 -0.3867  0.2559  0.0999
 4562POPC   C2B92715  32.817  26.528  19.033 -0.2840 -0.2533 -0.0680
 4562POPC   C3B92716  32.863  26.435  18.570 -0.1555  0.0698 -0.0188
 4562POPC   C4B92717  32.679  26.380  18.127 -0.2152  0.1022  0.0890
 4563POPC   NC392718  23.894  23.353  18.438  0.1996  0.2173 -0.0121
 4563POPC   PO492719  23.567  23.559  18.517 -0.4325 -0.1417  0.0884
 4563POPC   GL192720  23.543  23.634  18.116 -0.1570  0.1469 -0.4443
 4563POPC   GL292721  23.239  23.521  18.135 -0.1228 -0.2222  0.0774
 4563POPC   C1A92722  23.307  23.989  17.943 -0.2363  0.1874  0.2117
 4563POPC   D2A92723  22.960  24.097  17.682  0.2329 -0.3145 -0.6446
 4563POPC   C3A92724  22.751  24.228  17.277 -0.0618  0.0752 -0.1563
 4563POPC   C4A92725  22.364  24.478  17.104 -0.1745 -0.0091  0.1149
 4563POPC   C1B92726  22.907  23.821  18.137  0.0042 -0.1075  0.1213
 4563POPC   C2B92727  22.535  24.021  17.947 -0.1796 -0.1374  0.1202
 4563POPC   C3B92728  22.377  24.247  17.667 -0.0442  0.0494  0.0404
 4563POPC   C4B92729  22.046  24.312  17.417  0.2429  0.0576  0.0319
 4564POPC   NC392730   0.433  20.752  19.639  0.3532  0.2072  0.0551
 4564POPC   PO492731   0.057  20.745  19.703  0.3115  0.0220  0.1479
 4564POPC   GL192732  -0.234  20.871  19.415 -0.1253  0.4652 -0.0455
 4564POPC   GL292733  -0.045  20.814  19.201 -0.0849 -0.1937  0.1346
 4564POPC   C1A92734  -0.419  21.177  19.135 -0.0785  0.0457 -0.1809
 4564POPC   D2A92735  -0.582  21.596  19.042  0.2337 -0.1445 -0.1712
 4564POPC   C3A92736  -0.421  21.787  18.685  0.2647 -0.2200  0.1726
 4564POPC   C4A92737  -0.256  21.665  18.240 -0.2838 -0.1102 -0.1514
 4564POPC   C1B92738  -0.256  20.856  18.812  0.0118 -0.2150  0.2206
 4564POPC   C2B92739  -0.307  20.837  18.374  0.1014 -0.0955 -0.2024
 4564POPC   C3B92740  -0.430  21.244  18.094 -0.3492 -0.0925  0.1637
 4564POPC   C4B92741  -0.558  21.620  17.795  0.0021 -0.4622 -0.1790
 4565POPC   NC392742  31.042  26.339  20.023 -0.0676 -0.1388  0.3976
 4565POPC   PO492743  30.652  26.461  19.965 -0.2342  0.0256  0.3010
 4565POPC   GL192744  30.614  26.737  19.767  0.0441  0.1026 -0.1023
 4565POPC   GL292745  30.700  26.600  19.498  0.3215 -0.0925  0.1011
 4565POPC   C1A92746  30.223  26.969  19.597  0.2508 -0.0623  0.2397
 4565POPC   D2A92747  30.247  27.449  19.474  0.0866  0.4236  0.0775
 4565POPC   C3A92748  30.194  27.439  18.991 -0.0254  0.0775  0.0871
 4565POPC   C4A92749  30.407  27.245  18.697 -0.2144  0.1400  0.1971
 4565POPC   C1B92750  30.929  26.844  19.172 -0.0562  0.2427 -0.0322
 4565POPC   C2B92751  31.276  26.794  18.800  0.1657 -0.0600 -0.1526
 4565POPC   C3B92752  31.463  26.550  18.428  0.3079 -0.2272 -0.1947
 4565POPC   C4B92753  31.493  26.550  17.964  0.0066  0.0638 -0.0070
 4566POPC   NC392754  26.786  18.355  18.414  0.2046  0.1087 -0.2760
 4566POPC   PO492755  27.030  18.670  18.373  0.1151 -0.1352 -0.1880
 4566POPC   GL192756  27.155  18.421  18.082  0.0563  0.0528 -0.2005
 4566POPC   GL292757  26.885  18.268  17.969  0.0013 -0.0326 -0.0443
 4566POPC   C1A92758  27.309  18.054  17.888 -0.2466 -0.2579 -0.2310
 4566POPC   D2A92759  27.496  17.779  17.606  0.1646 -0.1752  0.2246
 4566POPC   C3A92760  27.588  17.566  17.207 -0.1139  0.4767 -0.0731
 4566POPC   C4A92761  27.663  17.588  16.721  0.1134  0.0208 -0.0569
 4566POPC   C1B92762  26.924  17.958  17.663 -0.1937  0.3396  0.3083
 4566POPC   C2B92763  27.071  17.707  17.345 -0.1165 -0.2168  0.3509
 4566POPC   C3B92764  27.160  17.617  16.945  0.1607  0.1899  0.1365
 4566POPC   C4B92765  26.884  17.626  16.546  0.3498 -0.0877  0.0258
 4567POPC   NC392766  22.480  19.849  18.855  0.4230  0.1032 -0.0730
 4567POPC   PO492767  22.437  19.677  18.513  0.1110 -0.3704 -0.2078
 4567POPC   GL192768  22.168  19.655  18.198  0.0897 -0.0935  0.1752
 4567POPC   GL292769  21.864  19.720  18.325  0.0680  0.0222  0.0212
 4567POPC   C1A92770  22.125  19.388  17.802  0.2811 -0.0921  0.0846
 4567POPC   D2A92771  22.134  18.966  17.615 -0.0160  0.0213 -0.1393
 4567POPC   C3A92772  21.815  18.846  17.291 -0.2459  0.0835 -0.0280
 4567POPC   C4A92773  21.405  18.647  17.353 -0.1500 -0.0205  0.2819
 4567POPC   C1B92774  21.557  19.470  18.042 -0.1320 -0.2070  0.0876
 4567POPC   C2B92775  21.226  19.543  17.709 -0.0045  0.2246  0.0925
 4567POPC   C3B92776  20.899  19.735  17.491 -0.1627  0.1417  0.1641
 4567POPC   C4B92777  20.560  19.728  17.201 -0.1307 -0.3733  0.0352
 4568POPC   NC392778  16.875  25.628  20.660  0.0632 -0.2126  0.1649
 4568POPC   PO492779  17.074  25.564  20.311 -0.1929 -0.1170 -0.1381
 4568POPC   GL192780  17.132  25.786  20.064 -0.1803  0.2798 -0.3695
 4568POPC   GL292781  17.325  25.628  19.862  0.1535  0.1002 -0.1094
 4568POPC   C1A92782  17.272  26.222  19.956 -0.2430 -0.3252 -0.3106
 4568POPC   D2A92783  17.436  26.483  19.635  0.2101  0.1445  0.0237
 4568POPC   C3A92784  17.277  26.474  19.207 -0.0965  0.2438  0.1855
 4568POPC   C4A92785  17.201  26.204  18.846 -0.2828 -0.0085  0.1491
 4568POPC   C1B92786  17.636  25.534  19.516  0.2010  0.1953 -0.1357
 4568POPC   C2B92787  17.828  25.444  19.096  0.1503 -0.0934  0.1421
 4568POPC   C3B92788  17.576  25.486  18.682  0.1114 -0.1394  0.0669
 4568POPC   C4B92789  17.181  25.746  18.553  0.0369 -0.1050  0.0883
 4569POPC   NC392790  25.295  22.226  12.083  0.0106  0.1770 -0.0387
 4569POPC   PO492791  25.338  22.621  12.147 -0.0378  0.0392  0.0979
 4569POPC   GL192792  24.976  22.456  12.373  0.1430 -0.3954  0.2135
 4569POPC   GL292793  24.742  22.355  12.236  0.0277  0.2378  0.0102
 4569POPC   C1A92794  24.703  22.371  12.722 -0.2524  0.1102 -0.2802
 4569POPC   D2A92795  24.628  22.470  13.151 -0.2343 -0.0483  0.1573
 4569POPC   C3A92796  24.308  22.701  13.400  0.2559  0.1770 -0.0428
 4569POPC   C4A92797  24.139  22.772  13.865  0.2734  0.2138 -0.3154
 4569POPC   C1B92798  24.443  22.636  12.004  0.0497 -0.0453 -0.1033
 4569POPC   C2B92799  24.330  23.029  12.151 -0.0799 -0.0085 -0.3590
 4569POPC   C3B92800  24.065  23.159  12.472 -0.0568  0.0281 -0.1960
 4569POPC   C4B92801  23.780  23.417  12.704  0.0585 -0.0530 -0.4524
 4570POPS   CNO92802   0.023  22.847   9.580  0.0005 -0.3106 -0.0612
 4570POPS   PO492803   0.130  23.184   9.470 -0.1644  0.1027 -0.0174
 4570POPS   GL192804  -0.217  23.298   9.215 -0.1700 -0.2386  0.2799
 4570POPS   GL292805  -0.285  22.971   9.211  0.1210  0.2637 -0.0327
 4570POPS   C1A92806  -0.612  23.407   8.903  0.0474  0.4836  0.3807
 4570POPS   D2A92807  -0.637  23.288   8.421 -0.0927  0.1629 -0.1275
 4570POPS   C3A92808  -0.850  23.060   8.159  0.0364 -0.1298 -0.1592
 4570POPS   C4A92809  -0.714  23.127   7.698  0.1369  0.4157  0.2646
 4570POPS   C1B92810  -0.524  22.960   8.801  0.1050  0.3921 -0.0754
 4570POPS   C2B92811  -0.870  22.842   8.619 -0.1323 -0.4372  0.3088
 4570POPS   C3B92812  -0.924  22.587   8.245 -0.1236 -0.0518 -0.0136
 4570POPS   C4B92813  -1.206  22.559   7.896  0.0833 -0.1101  0.0493
 4571POPS   CNO92814  30.317  29.774   8.826 -0.4257  0.1555  0.2036
 4571POPS   PO492815  30.203  29.543   8.576  0.4506 -0.3598  0.0543
 4571POPS   GL192816  30.239  29.422   8.216 -0.3940 -0.0071 -0.1076
 4571POPS   GL292817  30.400  29.635   8.024  0.0695 -0.0794 -0.0023
 4571POPS   C1A92818  29.857  29.196   8.066 -0.0294  0.1781 -0.2745
 4571POPS   D2A92819  29.522  29.068   7.770 -0.0817 -0.1869  0.3626
 4571POPS   C3A92820  29.629  29.036   7.367  0.3097  0.4655  0.0730
 4571POPS   C4A92821  29.583  29.257   6.990 -0.0280 -0.0466  0.2624
 4571POPS   C1B92822  30.118  29.413   7.692 -0.1671 -0.1205 -0.1773
 4571POPS   C2B92823  29.845  29.555   7.306  0.3232 -0.0460 -0.1502
 4571POPS   C3B92824  29.795  29.722   6.875  0.0340  0.3117 -0.1038
 4571POPS   C4B92825  29.800  29.640   6.430  0.1544  0.0407  0.1850
 4572POPS   CNO92826  22.061  20.031  10.961 -0.3713  0.0101  0.0383
 4572POPS   PO492827  22.043  20.342  11.146 -0.2429 -0.0573 -0.0487
 4572POPS   GL192828  22.239  20.481  10.821  0.1829 -0.2815  0.4420
 4572POPS   GL292829  22.375  20.638  10.884 -0.1144 -0.0388  0.0166
 4572POPS   C1A92830  22.332  20.593  10.369 -0.0630 -0.1449  0.0622
 4572POPS   D2A92831  22.541  20.872  10.099  0.0672 -0.1171  0.0008
 4572POPS   C3A92832  22.996  20.858  10.051 -0.3149 -0.1506 -0.2402
 4572POPS   C4A92833  23.428  20.938  10.096 -0.0748  0.2999 -0.1857
 4572POPS   C1B92834  22.791  20.582  10.604  0.0911 -0.1364 -0.0981
 4572POPS   C2B92835  23.138  20.896  10.688 -0.2411  0.2311  0.0623
 4572POPS   C3B92836  23.571  21.050  10.579 -0.3371  0.1525  0.2160
 4572POPS   C4B92837  23.673  21.425  10.301  0.2305 -0.3377 -0.1936
 4573POPS   CNO92838  17.198  24.484   9.209 -0.1817  0.0637 -0.1165
 4573POPS   PO492839  16.904  24.258   9.084  0.0400  0.2900  0.0260
 4573POPS   GL192840  16.581  24.267   8.783  0.0320 -0.2816 -0.2523
 4573POPS   GL292841  16.784  24.389   8.540 -0.0129  0.2821  0.2209
 4573POPS   C1A92842  16.242  24.578   8.584 -0.2806  0.1446  0.0432
 4573POPS   D2A92843  15.805  24.740   8.673  0.1260  0.2595  0.1472
 4573POPS   C3A92844  15.416  24.535   8.492  0.1456  0.3133 -0.1697
 4573POPS   C4A92845  15.309  24.192   8.227  0.2731 -0.2787  0.2599
 4573POPS   C1B92846  16.476  24.342   8.138 -0.0574 -0.1900  0.1799
 4573POPS   C2B92847  16.468  24.390   7.705 -0.0451  0.2992 -0.0050
 4573POPS   C3B92848  16.190  24.377   7.366 -0.1423  0.2582 -0.0691
 4573POPS   C4B92849  15.772  24.588   7.244  0.1360  0.0777 -0.1500
 4574POPS   CNO92850   0.181  30.262   8.161 -0.1757 -0.0323 -0.0001
 4574POPS   PO492851   0.047  30.308   7.792 -0.0924  0.0923  0.1287
 4574POPS   GL192852  -0.011  30.591   7.637  0.0307  0.0938  0.1078
 4574POPS   GL292853   0.287  30.643   7.520  0.1352 -0.2013 -0.0326
 4574POPS   C1A92854  -0.239  30.584   7.193  0.1726 -0.2137 -0.0350
 4574POPS   D2A92855  -0.252  30.362   6.810  0.2626  0.2344  0.1725
 4574POPS   C3A92856  -0.368  30.281   6.402  0.2225  0.4736  0.3358
 4574POPS   C4A92857  -0.563  30.139   5.974 -0.0178  0.1039  0.0367
 4574POPS   C1B92858   0.495  30.709   7.091  0.1748 -0.0812 -0.0296
 4574POPS   C2B92859   0.491  30.824   6.625 -0.1889 -0.4832 -0.0778
 4574POPS   C3B92860   0.847  30.781   6.276 -0.4797 -0.3347 -0.0249
 4574POPS   C4B92861   1.221  30.985   6.095  0.0938  0.1523 -0.0643
 4575POPS   CNO92862  31.089  30.373   8.396 -0.1028  0.1346 -0.1252
 4575POPS   PO492863  31.450  30.455   8.446 -0.3545  0.2405  0.1624
 4575POPS   GL192864  31.473  30.322   8.106 -0.1540  0.1870  0.1896
 4575POPS   GL292865  31.533  30.035   8.058  0.0422  0.1649 -0.1641
 4575POPS   C1A92866  31.768  30.471   7.743 -0.2314 -0.0887 -0.0801
 4575POPS   D2A92867  31.750  30.901   7.551  0.3135 -0.0328 -0.1374
 4575POPS   C3A92868  31.575  30.945   7.095 -0.1163 -0.1521  0.2061
 4575POPS   C4A92869  31.716  30.790   6.693 -0.1458  0.5108  0.1552
 4575POPS   C1B92870  31.583  29.978   7.591  0.1414 -0.0909  0.0064
 4575POPS   C2B92871  31.640  29.980   7.107  0.1389  0.3170 -0.2418
 4575POPS   C3B92872  31.480  29.666   6.844  0.1761 -0.0807 -0.0118
 4575POPS   C4B92873  31.180  29.320   6.671  0.0653  0.1364 -0.0129
 4576POPS   CNO92874  22.024  32.697   8.915 -0.0528 -0.5251 -0.0546
 4576POPS   PO492875  22.301  32.907   8.953 -0.3564  0.2598 -0.2673
 4576POPS   GL192876  22.237  33.055   8.586  0.2793 -0.2074  0.3953
 4576POPS   GL292877  22.136  32.730   8.426 -0.2837 -0.1452 -0.0595
 4576POPS   C1A92878  22.030  33.194   8.187 -0.2166  0.1443 -0.0488
 4576POPS   D2A92879  21.961  33.267   7.793  0.0641 -0.0615 -0.1929
 4576POPS   C3A92880  22.175  33.524   7.534 -0.0905  0.0583  0.0418
 4576POPS   C4A92881  22.585  33.644   7.305  0.0578 -0.1201  0.2851
 4576POPS   C1B92882  22.245  32.783   7.938 -0.0365 -0.4019  0.0123
 4576POPS   C2B92883  22.322  32.934   7.503  0.1360  0.1516 -0.2233
 4576POPS   C3B92884  22.112  32.926   7.069  0.0892  0.2422  0.1956
 4576POPS   C4B92885  22.244  33.051   6.650  0.1849  0.1189  0.1502
 4577POPS   CNO92886  30.371  18.158  14.261  0.0787 -0.3008  0.2402
 4577POPS   PO492887  30.014  18.339  14.232  0.1792  0.0621  0.0741
 4577POPS   GL192888  29.945  18.514  14.506 -0.3543  0.0160 -0.2006
 4577POPS   GL292889  29.813  18.366  14.686  0.2147 -0.1137 -0.1211
 4577POPS   C1A92890  29.672  18.878  14.599  0.2443  0.1959 -0.2126
 4577POPS   D2A92891  29.199  19.073  14.632 -0.1004 -0.3622 -0.0768
 4577POPS   C3A92892  29.117  19.062  15.085 -0.2826 -0.2771  0.0330
 4577POPS   C4A92893  28.978  19.292  15.472  0.3229  0.2056 -0.0487
 4577POPS   C1B92894  29.739  18.680  15.012  0.0094 -0.0192  0.0770
 4577POPS   C2B92895  29.685  19.159  15.112 -0.0633 -0.1953 -0.3657
 4577POPS   C3B92896  29.402  19.487  15.306 -0.3685 -0.1364  0.0838
 4577POPS   C4B92897  29.266  19.945  15.352 -0.0899 -0.2377 -0.1285
 4578POPS   CNO92898  21.269  24.375  11.398 -0.0811  0.2301 -0.0989
 4578POPS   PO492899  21.467  24.076  11.339  0.1920 -0.0578 -0.0595
 4578POPS   GL192900  21.841  24.001  11.180  0.2721  0.4583  0.3099
 4578POPS   GL292901  21.875  24.123  10.939  0.1454  0.1722  0.1040
 4578POPS   C1A92902  22.215  23.675  11.160 -0.0481 -0.1628 -0.0822
 4578POPS   D2A92903  22.569  23.529  10.890 -0.1162  0.0077  0.2885
 4578POPS   C3A92904  22.978  23.383  11.058  0.1416 -0.1064  0.2708
 4578POPS   C4A92905  23.398  23.551  10.860  0.0889 -0.0272 -0.1802
 4578POPS   C1B92906  22.200  23.923  10.742 -0.1070  0.0442 -0.1432
 4578POPS   C2B92907  22.458  24.119  10.403  0.0333  0.3467 -0.0035
 4578POPS   C3B92908  22.878  24.165  10.214 -0.1905  0.0615  0.2577
 4578POPS   C4B92909  23.288  24.052  10.178  0.2080 -0.0926 -0.3209
 4579POPS   CNO92910  21.579  26.506  10.485  0.0117 -0.1357  0.1089
 4579POPS   PO492911  21.647  26.233  10.231  0.2584  0.3218  0.1574
 4579POPS   GL192912  21.864  25.940  10.030 -0.0403  0.1063  0.3003
 4579POPS   GL292913  22.046  26.101   9.915  0.0326 -0.0563  0.3055
 4579POPS   C1A92914  22.057  25.475  10.065 -0.0994 -0.2748 -0.3640
 4579POPS   D2A92915  22.252  25.057   9.868 -0.0808  0.0601  0.3255
 4579POPS   C3A92916  22.642  24.821   9.774 -0.0669 -0.1091 -0.1092
 4579POPS   C4A92917  22.961  24.584  10.028 -0.0877  0.1136  0.0161
 4579POPS   C1B92918  22.391  26.220   9.650  0.0819  0.1320  0.0739
 4579POPS   C2B92919  22.782  26.249   9.402 -0.1525 -0.2404 -0.0045
 4579POPS   C3B92920  23.073  25.962   9.160  0.0856 -0.1940 -0.4543
 4579POPS   C4B92921  23.288  25.804   8.829  0.2304 -0.0728 -0.0959
 4580POPS   CNO92922  24.993  17.379  11.552  0.2326  0.1143 -0.1779
 4580POPS   PO492923  24.807  17.740  11.564 -0.1521 -0.1826 -0.1272
 4580POPS   GL192924  24.906  18.141  11.727 -0.0843  0.3633  0.6319
 4580POPS   GL292925  24.609  18.297  11.673  0.1125  0.0687  0.3742
 4580POPS   C1A92926  25.045  18.565  11.744  0.1588 -0.3297  0.1883
 4580POPS   D2A92927  25.109  19.040  11.857  0.1030  0.0548  0.1419
 4580POPS   C3A92928  25.477  19.223  12.090  0.2261  0.1011 -0.1509
 4580POPS   C4A92929  25.691  19.609  12.100  0.0741 -0.1435  0.1853
 4580POPS   C1B92930  24.556  18.778  11.727 -0.2073  0.0418 -0.0658
 4580POPS   C2B92931  24.666  19.187  11.916  0.0903 -0.1122  0.0277
 4580POPS   C3B92932  25.008  19.524  11.977  0.1488  0.0945  0.1030
 4580POPS   C4B92933  25.246  19.893  11.967  0.0644 -0.0924  0.4980
 4581POPS   CNO92934  17.365  26.450   9.121  0.0919  0.1728 -0.0139
 4581POPS   PO492935  17.018  26.569   8.974 -0.4470 -0.2411 -0.0168
 4581POPS   GL192936  16.952  26.432   8.638  0.3198 -0.2613  0.0215
 4581POPS   GL292937  16.674  26.318   8.669  0.1934 -0.1245  0.3656
 4581POPS   C1A92938  16.924  26.405   8.112 -0.2420  0.0855 -0.2519
 4581POPS   D2A92939  17.051  26.493   7.686 -0.0390 -0.0342  0.0886
 4581POPS   C3A92940  17.006  26.852   7.446  0.0038  0.1653  0.1695
 4581POPS   C4A92941  16.927  27.184   7.160  0.3138  0.3605 -0.0572
 4581POPS   C1B92942  16.444  26.302   8.271  0.2882 -0.1513 -0.1158
 4581POPS   C2B92943  16.451  26.382   7.834  0.0681  0.0633  0.1071
 4581POPS   C3B92944  16.607  26.505   7.394  0.2604 -0.1054 -0.1772
 4581POPS   C4B92945  16.637  26.482   6.888  0.0890 -0.0433 -0.0094
 4582POPS   CNO92946  17.877  30.882   8.260  0.1701 -0.0186 -0.1323
 4582POPS   PO492947  17.864  30.827   7.902  0.0066  0.1819  0.1515
 4582POPS   GL192948  17.956  30.723   7.538  0.0550 -0.0942 -0.0743
 4582POPS   GL292949  18.207  30.786   7.379 -0.0722  0.2457 -0.1111
 4582POPS   C1A92950  17.626  30.634   7.198 -0.0149 -0.1161  0.2322
 4582POPS   D2A92951  17.650  30.629   6.738  0.1032 -0.1050 -0.0300
 4582POPS   C3A92952  17.672  30.628   6.274 -0.3240 -0.0184 -0.2056
 4582POPS   C4A92953  17.767  30.438   5.875  0.0058 -0.0913  0.0266
 4582POPS   C1B92954  18.108  30.575   6.990 -0.2530  0.0039 -0.1937
 4582POPS   C2B92955  18.083  30.414   6.598 -0.0599 -0.0880 -0.1871
 4582POPS   C3B92956  18.085  30.225   6.190 -0.0237  0.0131 -0.1004
 4582POPS   C4B92957  17.873  29.811   6.172  0.3103 -0.0672  0.2961
 4583POPS   CNO92958  30.715  19.965  11.460 -0.3293 -0.1526  0.1339
 4583POPS   PO492959  30.390  19.838  11.337 -0.1049 -0.2309  0.0716
 4583POPS   GL192960  30.075  20.016  11.487 -0.1012  0.1537 -0.2867
 4583POPS   GL292961  30.185  20.243  11.483  0.0162  0.1490 -0.1163
 4583POPS   C1A92962  29.710  20.263  11.368 -0.2726 -0.1470 -0.0465
 4583POPS   D2A92963  29.269  20.318  11.262  0.0538 -0.1682  0.0964
 4583POPS   C3A92964  29.000  20.461  11.577 -0.1327  0.1699  0.0211
 4583POPS   C4A92965  28.918  20.802  11.926  0.1104 -0.1221  0.1419
 4583POPS   C1B92966  29.913  20.430  11.767  0.1253  0.1701  0.3382
 4583POPS   C2B92967  29.530  20.593  11.773  0.1137 -0.0150 -0.0958
 4583POPS   C3B92968  29.342  20.865  11.514 -0.3237  0.0999  0.0358
 4583POPS   C4B92969  29.038  20.965  11.167  0.0307 -0.2101 -0.0339
 4584POPS   CNO92970  20.332  19.718   9.781 -0.0710  0.2545  0.2426
 4584POPS   PO492971  20.520  19.956   9.573 -0.3477  0.1820  0.1496
 4584POPS   GL192972  20.665  19.918   9.275 -0.1603  0.2906 -0.2078
 4584POPS   GL292973  20.686  19.623   9.227 -0.1749 -0.1699  0.2341
 4584POPS   C1A92974  20.425  19.928   8.831  0.0641 -0.1563 -0.2285
 4584POPS   D2A92975  20.363  20.283   8.585  0.4950  0.1545 -0.0746
 4584POPS   C3A92976  20.489  20.468   8.165 -0.0895 -0.4329  0.2829
 4584POPS   C4A92977  20.377  20.556   7.749  0.2184  0.1768 -0.1847
 4584POPS   C1B92978  20.919  19.888   8.840 -0.1511 -0.1007  0.1951
 4584POPS   C2B92979  21.160  20.263   8.640 -0.0246  0.1022 -0.0056
 4584POPS   C3B92980  21.410  20.584   8.396  0.1207  0.0150  0.2282
 4584POPS   C4B92981  21.581  20.977   8.267 -0.1940  0.1311  0.1403
 4585POPS   CNO92982  31.790  22.022  11.307 -0.1152 -0.2165 -0.1312
 4585POPS   PO492983  31.450  22.224  11.298 -0.2116 -0.1830 -0.2845
 4585POPS   GL192984  31.065  22.233  11.217 -0.2338 -0.1104  0.2252
 4585POPS   GL292985  31.014  21.947  11.237  0.0488 -0.2561  0.0678
 4585POPS   C1A92986  30.699  22.421  11.397  0.0354 -0.3052 -0.2676
 4585POPS   D2A92987  30.482  22.803  11.589 -0.0112  0.2695  0.2439
 4585POPS   C3A92988  30.094  22.977  11.460 -0.3483  0.4015 -0.1663
 4585POPS   C4A92989  29.771  23.345  11.540  0.0422  0.0446 -0.0967
 4585POPS   C1B92990  30.482  21.973  11.103  0.1947 -0.1983 -0.0274
 4585POPS   C2B92991  30.137  22.097  10.772  0.1304  0.2407 -0.0579
 4585POPS   C3B92992  29.771  22.111  10.494  0.0472 -0.0616  0.0514
 4585POPS   C4B92993  29.421  21.954  10.215 -0.1221  0.0254 -0.0133
 4586POPS   CNO92994  28.625  29.090   9.462 -0.0894  0.0904  0.2730
 4586POPS   PO492995  28.622  29.052   9.066 -0.1779 -0.2032 -0.1423
 4586POPS   GL192996  28.628  28.891   8.724  0.1958 -0.2176 -0.0129
 4586POPS   GL292997  28.704  29.092   8.498 -0.6411  0.1280  0.0306
 4586POPS   C1A92998  28.293  28.759   8.411  0.0212  0.1295 -0.0978
 4586POPS   D2A92999  27.984  28.481   8.279  0.1237 -0.1726  0.1120
 4586POPS   C3A93000  27.870  28.262   7.879  0.0312  0.1683 -0.2604
 4586POPS   C4A93001  27.768  27.909   7.676 -0.0136 -0.0211 -0.0391
 4586POPS   C1B93002  28.628  29.182   8.060  0.1239  0.0942  0.2468
 4586POPS   C2B93003  28.608  28.938   7.617 -0.2357  0.0827 -0.1635
 4586POPS   C3B93004  28.761  28.757   7.222  0.0888  0.2898 -0.0093
 4586POPS   C4B93005  29.141  28.581   7.033 -0.1446  0.2181  0.1854
 4587POPS   CNO93006  20.514  25.425   9.864 -0.0349 -0.0030  0.0841
 4587POPS   PO493007  20.450  25.041   9.897 -0.0515 -0.0881 -0.2772
 4587POPS   GL193008  20.749  24.875   9.592  0.1793  0.0403  0.4290
 4587POPS   GL293009  20.872  25.072   9.577  0.0288 -0.0528 -0.0581
 4587POPS   C1A93010  20.709  24.445   9.449 -0.1310 -0.1117  0.0469
 4587POPS   D2A93011  20.901  24.223   9.132  0.1243  0.1304 -0.0432
 4587POPS   C3A93012  21.266  24.366   8.898  0.1629  0.2454  0.0721
 4587POPS   C4A93013  21.661  24.368   8.672  0.0280 -0.0120  0.2107
 4587POPS   C1B93014  21.184  24.834   9.296 -0.0714  0.2926 -0.0699
 4587POPS   C2B93015  21.564  24.738   8.983  0.0560  0.1876 -0.3712
 4587POPS   C3B93016  21.773  24.894   8.617 -0.1246 -0.0312 -0.0555
 4587POPS   C4B93017  22.052  24.726   8.320 -0.1969 -0.1832  0.0972
 4588POPS   CNO93018  25.489  16.708  10.059 -0.0153  0.2027 -0.1938
 4588POPS   PO493019  25.721  16.766   9.724  0.1138 -0.2969 -0.2259
 4588POPS   GL193020  25.657  16.818   9.380  0.0173 -0.2209  0.2889
 4588POPS   GL293021  25.520  16.596   9.279  0.0934 -0.0727  0.0191
 4588POPS   C1A93022  25.526  17.159   9.076  0.0023  0.0611  0.1751
 4588POPS   D2A93023  25.357  17.502   8.919 -0.0555  0.1289 -0.0930
 4588POPS   C3A93024  25.073  17.500   8.557  0.0401 -0.3410  0.1946
 4588POPS   C4A93025  24.828  17.704   8.271  0.2387  0.0346 -0.1292
 4588POPS   C1B93026  25.493  16.724   8.845  0.1255  0.0685 -0.3479
 4588POPS   C2B93027  25.465  16.646   8.393  0.2720  0.0686  0.0296
 4588POPS   C3B93028  25.519  16.856   7.994 -0.1986  0.0986  0.0717
 4588POPS   C4B93029  25.392  17.159   7.701 -0.0776  0.1627 -0.0015
 4589POPS   CNO93030  30.526  19.029  10.024 -0.0205 -0.0819 -0.1063
 4589POPS   PO493031  30.336  18.899   9.738  0.1046 -0.2328 -0.2187
 4589POPS   GL193032  30.241  19.302   9.731 -0.0886 -0.1027  0.3853
 4589POPS   GL293033  30.471  19.406   9.589 -0.4118  0.1217 -0.1749
 4589POPS   C1A93034  29.966  19.444   9.330  0.0540  0.0072 -0.2665
 4589POPS   D2A93035  29.939  19.588   8.902  0.0841  0.0597 -0.2270
 4589POPS   C3A93036  29.820  19.954   8.696 -0.0842 -0.0649 -0.0223
 4589POPS   C4A93037  29.459  20.159   8.424  0.0899  0.3448 -0.1535
 4589POPS   C1B93038  30.305  19.806   9.438  0.0159  0.0250  0.0405
 4589POPS   C2B93039  30.318  19.959   9.031 -0.0675  0.5389 -0.0395
 4589POPS   C3B93040  30.227  20.404   8.887  0.3279  0.2819 -0.1302
 4589POPS   C4B93041  30.162  20.895   8.907 -0.1677 -0.2681 -0.0182
 4590POPS   CNO93042  28.953  30.237   8.480  0.1530 -0.0721  0.2488
 4590POPS   PO493043  28.856  29.949   8.734 -0.0806 -0.0962 -0.2559
 4590POPS   GL193044  28.911  29.807   8.414 -0.1270  0.2143 -0.3195
 4590POPS   GL293045  28.912  29.523   8.339  0.2656 -0.0247  0.3676
 4590POPS   C1A93046  29.123  29.868   8.006  0.0744 -0.1194  0.2651
 4590POPS   D2A93047  29.094  29.841   7.536  0.0396  0.1792 -0.0521
 4590POPS   C3A93048  28.973  30.016   7.131 -0.1996 -0.1399 -0.0684
 4590POPS   C4A93049  29.062  30.359   6.813  0.1916  0.0822 -0.0520
 4590POPS   C1B93050  28.654  29.688   7.969  0.2662 -0.0446  0.0100
 4590POPS   C2B93051  28.373  29.480   7.717 -0.0934  0.0074 -0.4703
 4590POPS   C3B93052  28.121  29.302   7.384  0.0285 -0.0134 -0.0709
 4590POPS   C4B93053  27.878  28.973   7.153  0.1718  0.0470 -0.4513
 4591POPS   CNO93054  17.439  19.394   9.026 -0.4131 -0.0584  0.1611
 4591POPS   PO493055  17.757  19.270   9.119  0.1113 -0.0683  0.1039
 4591POPS   GL193056  17.854  19.204   8.774 -0.1194 -0.0040  0.2321
 4591POPS   GL293057  18.077  19.347   8.702 -0.1522  0.0839  0.5347
 4591POPS   C1A93058  17.702  19.438   8.360 -0.0607  0.3202  0.0114
 4591POPS   D2A93059  17.757  19.841   8.042 -0.1748 -0.0628  0.0122
 4591POPS   C3A93060  17.918  20.067   7.737  0.0975  0.1658 -0.1556
 4591POPS   C4A93061  18.016  20.348   7.459 -0.0368 -0.1032  0.0191
 4591POPS   C1B93062  18.181  19.548   8.288 -0.0168  0.2193  0.2424
 4591POPS   C2B93063  18.288  19.825   7.969 -0.0163 -0.2756  0.1223
 4591POPS   C3B93064  18.433  20.023   7.529  0.0334  0.2079 -0.0813
 4591POPS   C4B93065  18.534  20.124   7.093 -0.2840  0.2412  0.0296
 4592POPS   CNO93066  21.445  21.311  12.514  0.0737  0.0293  0.1094
 4592POPS   PO493067  21.513  21.284  12.900  0.1240 -0.0194  0.2896
 4592POPS   GL193068  21.821  21.383  12.972  0.0257  0.2088  0.2360
 4592POPS   GL293069  21.931  21.218  13.197 -0.4320  0.0546  0.2040
 4592POPS   C1A93070  22.318  21.360  12.961  0.0413  0.0436  0.2018
 4592POPS   D2A93071  22.666  21.675  12.799 -0.1517 -0.0677  0.0407
 4592POPS   C3A93072  22.704  22.165  12.903  0.1967  0.1207  0.2187
 4592POPS   C4A93073  22.944  22.588  13.060 -0.0010  0.0403  0.1444
 4592POPS   C1B93074  22.383  21.299  13.419  0.3580 -0.4899  0.1560
 4592POPS   C2B93075  22.668  21.478  13.771  0.2813  0.4054 -0.0529
 4592POPS   C3B93076  22.970  21.546  14.105 -0.2060 -0.2505  0.3932
 4592POPS   C4B93077  23.262  21.818  14.311 -0.2098  0.0350  0.2732
 4593POPS   CNO93078  28.132  29.104   9.305 -0.3067 -0.1711  0.0802
 4593POPS   PO493079  27.823  29.106   9.064 -0.2104 -0.3466 -0.1645
 4593POPS   GL193080  27.734  29.185   8.686  0.0791  0.1185  0.1656
 4593POPS   GL293081  27.878  29.112   8.460  0.2169 -0.1145  0.3790
 4593POPS   C1A93082  27.348  29.196   8.430 -0.1825 -0.0713 -0.1787
 4593POPS   D2A93083  27.308  29.191   7.997 -0.0141  0.0511 -0.2801
 4593POPS   C3A93084  27.250  29.502   7.732 -0.0123  0.2365  0.2449
 4593POPS   C4A93085  27.440  29.784   7.506  0.0831 -0.0981 -0.1680
 4593POPS   C1B93086  27.725  28.870   8.120  0.0022 -0.1032 -0.0476
 4593POPS   C2B93087  27.645  28.761   7.660 -0.0354 -0.1180 -0.0992
 4593POPS   C3B93088  27.762  28.457   7.383  0.1599 -0.1709  0.2400
 4593POPS   C4B93089  28.042  28.220   7.185  0.1275 -0.2687  0.2431
 4594POPS   CNO93090  17.861  31.948   8.365 -0.2270 -0.0239  0.0829
 4594POPS   PO493091  17.861  31.572   8.248 -0.3701 -0.1543  0.2719
 4594POPS   GL193092  18.049  31.555   7.805 -0.4938 -0.0968  0.2193
 4594POPS   GL293093  17.789  31.418   7.710 -0.0639  0.0504 -0.3420
 4594POPS   C1A93094  18.175  31.244   7.455  0.0273  0.0607  0.1111
 4594POPS   D2A93095  17.712  31.107   7.332  0.0481 -0.0201 -0.1050
 4594POPS   C3A93096  17.768  31.079   6.932  0.3850 -0.0737  0.0590
 4594POPS   C4A93097  17.912  31.378   6.594 -0.0084 -0.1457 -0.0262
 4594POPS   C1B93098  17.542  31.725   7.471 -0.1783  0.1584  0.0402
 4594POPS   C2B93099  17.720  32.137   7.316  0.1245  0.0646 -0.0249
 4594POPS   C3B93100  17.766  32.392   6.970  0.1903 -0.1859 -0.0560
 4594POPS   C4B93101  17.724  32.853   6.714 -0.0549  0.1870  0.2436
 4595POPS   CNO93102  21.889  28.601   8.365  0.2855  0.0349 -0.3523
 4595POPS   PO493103  21.968  28.869   8.655 -0.1976  0.2664  0.0790
 4595POPS   GL193104  22.211  28.899   8.343  0.0343 -0.0727  0.1087
 4595POPS   GL293105  22.245  29.134   8.175  0.2308  0.1354 -0.1427
 4595POPS   C1A93106  22.643  28.805   8.316  0.2182 -0.2090  0.0432
 4595POPS   D2A93107  23.105  28.779   8.230  0.2929 -0.1139 -0.6040
 4595POPS   C3A93108  23.355  28.593   7.887 -0.3323 -0.0313 -0.1344
 4595POPS   C4A93109  23.449  28.331   7.532  0.0472  0.0278 -0.0623
 4595POPS   C1B93110  22.459  29.109   7.719 -0.2486 -0.1332 -0.0410
 4595POPS   C2B93111  22.305  29.076   7.278 -0.2106  0.1200  0.0269
 4595POPS   C3B93112  22.089  28.934   6.903 -0.2732  0.0797  0.0015
 4595POPS   C4B93113  21.724  28.663   6.841 -0.0156  0.1205 -0.2317
 4596POPS   CNO93114  32.516  14.839  16.013 -0.2806 -0.0114 -0.1826
 4596POPS   PO493115  32.849  14.974  16.126  0.1525  0.0225  0.1924
 4596POPS   GL193116  32.833  15.177  16.518  0.1905  0.0675 -0.0531
 4596POPS   GL293117  33.087  15.327  16.559  0.0544  0.3645 -0.0162
 4596POPS   C1A93118  32.584  15.211  16.921 -0.2197 -0.0728 -0.0103
 4596POPS   D2A93119  32.544  15.410  17.334  0.0815 -0.1261 -0.1340
 4596POPS   C3A93120  32.666  15.489  17.769  0.1360  0.0783  0.1156
 4596POPS   C4A93121  32.958  15.532  18.125  0.0699 -0.3530  0.0969
 4596POPS   C1B93122  33.035  15.547  16.993  0.0349  0.0551 -0.0089
 4596POPS   C2B93123  32.973  15.716  17.361 -0.3270 -0.0283  0.2055
 4596POPS   C3B93124  33.255  15.718  17.693  0.3433  0.0265 -0.0698
 4596POPS   C4B93125  33.512  15.662  18.070 -0.0793  0.1351  0.1197
 4597POPS   CNO93126  31.980  29.510   8.254 -0.1720 -0.1570  0.0197
 4597POPS   PO493127  32.142  29.257   8.468  0.2103 -0.1526 -0.0007
 4597POPS   GL193128  32.271  29.208   8.039 -0.1355  0.2168  0.0972
 4597POPS   GL293129  32.102  28.935   7.977  0.0659  0.1226 -0.0030
 4597POPS   C1A93130  32.175  29.386   7.619  0.0294 -0.2348  0.1307
 4597POPS   D2A93131  32.084  29.743   7.461 -0.0122  0.0695  0.1152
 4597POPS   C3A93132  32.060  29.759   6.994 -0.3051 -0.1760  0.2496
 4597POPS   C4A93133  31.954  29.764   6.509  0.0266  0.2843 -0.2068
 4597POPS   C1B93134  31.724  29.043   7.672 -0.3980  0.0034  0.0438
 4597POPS   C2B93135  31.592  28.915   7.237  0.1226 -0.1429 -0.0468
 4597POPS   C3B93136  31.460  28.792   6.782 -0.2326  0.0074 -0.4727
 4597POPS   C4B93137  31.301  28.423   6.643 -0.2657 -0.0870  0.0537
 4598POPS   CNO93138  31.773  22.907  10.176  0.0840  0.0096 -0.3051
 4598POPS   PO493139  31.908  23.004   9.809 -0.1336  0.1550  0.1021
 4598POPS   GL193140  31.616  23.056   9.500 -0.0696  0.1012 -0.1936
 4598POPS   GL293141  31.382  23.231   9.465  0.0131 -0.2042 -0.3968
 4598POPS   C1A93142  31.358  22.799   9.297 -0.0383  0.2238  0.2176
 4598POPS   D2A93143  31.054  22.714   8.963  0.1814  0.0295  0.1327
 4598POPS   C3A93144  30.958  22.934   8.581 -0.0925 -0.5336 -0.1440
 4598POPS   C4A93145  30.593  23.177   8.330 -0.1129 -0.1419  0.4936
 4598POPS   C1B93146  30.894  23.402   9.310 -0.0294  0.1472  0.0085
 4598POPS   C2B93147  30.593  23.324   9.007  0.0934  0.1532 -0.0709
 4598POPS   C3B93148  30.232  23.274   8.709  0.1503 -0.0288 -0.2930
 4598POPS   C4B93149  30.008  23.287   8.281 -0.2487 -0.0971  0.0436
 4599POPS   CNO93150  27.876  31.126   8.842 -0.0860 -0.2115  0.1272
 4599POPS   PO493151  27.800  31.428   9.018  0.1337  0.3240 -0.0543
 4599POPS   GL193152  27.525  31.499   8.652 -0.0271  0.0005 -0.0524
 4599POPS   GL293153  27.486  31.257   8.544  0.0994  0.0222 -0.0330
 4599POPS   C1A93154  27.389  31.608   8.222 -0.2303 -0.1295  0.2294
 4599POPS   D2A93155  27.152  31.772   7.870  0.0233  0.0221  0.1684
 4599POPS   C3A93156  27.290  31.976   7.436 -0.3526 -0.0661 -0.2445
 4599POPS   C4A93157  27.616  32.291   7.537  0.0255  0.1582 -0.2615
 4599POPS   C1B93158  27.529  31.170   8.085  0.0049  0.1567 -0.0884
 4599POPS   C2B93159  27.458  31.434   7.701  0.1083  0.3227 -0.1391
 4599POPS   C3B93160  27.471  31.478   7.252  0.2505  0.0399  0.3273
 4599POPS   C4B93161  27.484  31.316   6.818  0.0288  0.0990  0.0794
 4600POPS   CNO93162  16.172  25.118   9.068 -0.3426  0.1144  0.3313
 4600POPS   PO493163  16.527  25.336   9.083  0.1757 -0.0845 -0.0887
 4600POPS   GL193164  16.607  25.210   8.670 -0.0056  0.1815 -0.2283
 4600POPS   GL293165  16.378  25.146   8.559 -0.1800 -0.2210 -0.1203
 4600POPS   C1A93166  16.782  25.355   8.213  0.0637  0.1220 -0.0790
 4600POPS   D2A93167  16.790  25.275   7.730  0.3345  0.2933  0.2325
 4600POPS   C3A93168  16.623  25.353   7.264 -0.2919 -0.0904 -0.1881
 4600POPS   C4A93169  16.214  25.507   7.231 -0.2359  0.2451 -0.3052
 4600POPS   C1B93170  16.018  24.972   8.300 -0.0596 -0.2614  0.0547
 4600POPS   C2B93171  15.685  24.727   8.167  0.1639  0.0248  0.3944
 4600POPS   C3B93172  15.291  24.707   7.897  0.0564 -0.2025  0.0521
 4600POPS   C4B93173  15.304  24.938   7.507 -0.0377 -0.2845 -0.0465
 4601POPS   CNO93174  20.778  17.520  14.977 -0.0804 -0.3726 -0.0031
 4601POPS   PO493175  21.013  17.645  15.254  0.0030 -0.4629  0.0625
 4601POPS   GL193176  21.066  17.673  15.652  0.1575  0.1464  0.3384
 4601POPS   GL293177  20.789  17.618  15.746  0.1151 -0.2898  0.0247
 4601POPS   C1A93178  21.362  17.901  15.954  0.4266  0.0229 -0.0792
 4601POPS   D2A93179  21.617  17.807  16.332 -0.2787 -0.1560  0.0486
 4601POPS   C3A93180  21.480  17.926  16.776  0.1377  0.2680  0.0837
 4601POPS   C4A93181  21.337  18.190  17.118  0.1078 -0.1837  0.3528
 4601POPS   C1B93182  20.882  18.009  15.984  0.3228  0.0367 -0.2537
 4601POPS   C2B93183  21.153  18.193  16.352  0.1278 -0.3491 -0.1122
 4601POPS   C3B93184  21.021  18.143  16.748 -0.0516  0.2844 -0.1808
 4601POPS   C4B93185  20.838  18.268  17.141 -0.2230 -0.0457 -0.1327
 4602POPS   CNO93186  31.565  21.223  11.483 -0.0341  0.1221 -0.2475
 4602POPS   PO493187  31.488  21.369  11.819 -0.1989  0.2542  0.2127
 4602POPS   GL193188  31.189  21.549  11.876 -0.5327 -0.4169 -0.0604
 4602POPS   GL293189  31.089  21.479  11.521 -0.1493 -0.1155 -0.0535
 4602POPS   C1A93190  30.950  21.819  12.175 -0.0494  0.1207  0.2297
 4602POPS   D2A93191  30.578  22.067  12.377 -0.1614  0.1799  0.0069
 4602POPS   C3A93192  30.448  22.035  12.847  0.1889  0.0559 -0.1954
 4602POPS   C4A93193  30.130  22.245  13.127 -0.0213  0.3427 -0.0232
 4602POPS   C1B93194  30.595  21.510  11.453 -0.2903  0.0853 -0.2097
 4602POPS   C2B93195  30.147  21.557  11.470  0.1070  0.1524  0.1485
 4602POPS   C3B93196  29.779  21.665  11.703 -0.2565  0.0063  0.0662
 4602POPS   C4B93197  29.357  21.641  11.963 -0.0765 -0.2460  0.4651
 4603POPS   CNO93198  22.715  17.727  13.355 -0.4585 -0.3797  0.1026
 4603POPS   PO493199  22.954  17.608  13.646  0.1555  0.0174  0.1903
 4603POPS   GL193200  23.034  18.030  13.833 -0.1197 -0.2301 -0.0192
 4603POPS   GL293201  23.345  18.162  13.818  0.2175 -0.0947 -0.1067
 4603POPS   C1A93202  23.025  18.199  14.209  0.1984 -0.1562 -0.2205
 4603POPS   D2A93203  23.229  18.464  14.494 -0.1543  0.0770 -0.0759
 4603POPS   C3A93204  23.666  18.367  14.578  0.0773 -0.3899 -0.2004
 4603POPS   C4A93205  23.988  18.702  14.625 -0.0227  0.1675  0.0093
 4603POPS   C1B93206  23.780  18.372  13.994  0.4428 -0.1501  0.1485
 4603POPS   C2B93207  24.138  18.640  14.150 -0.1135 -0.2312  0.1337
 4603POPS   C3B93208  24.402  18.925  14.328 -0.0284  0.4055 -0.1894
 4603POPS   C4B93209  24.707  19.146  14.572  0.1017 -0.0085 -0.1712
 4604POPS   CNO93210  32.114  26.938   9.584  0.1406  0.1387  0.1120
 4604POPS   PO493211  32.238  26.784   9.241  0.4456 -0.1226  0.3389
 4604POPS   GL193212  32.196  26.661   8.896  0.1580  0.2021  0.2138
 4604POPS   GL293213  31.937  26.505   8.840  0.1320  0.1682  0.0739
 4604POPS   C1A93214  32.297  26.299   8.556 -0.1093  0.2692 -0.3481
 4604POPS   D2A93215  32.063  26.149   8.152 -0.1758 -0.1467 -0.0772
 4604POPS   C3A93216  32.384  26.012   7.914  0.0815  0.2575  0.0538
 4604POPS   C4A93217  32.659  25.664   7.828  0.0323  0.1293 -0.2531
 4604POPS   C1B93218  31.839  26.612   8.378 -0.0928  0.0660 -0.1650
 4604POPS   C2B93219  31.724  26.555   7.930 -0.1472  0.0494  0.1024
 4604POPS   C3B93220  31.912  26.307   7.595  0.2466 -0.2242  0.2068
 4604POPS   C4B93221  32.113  25.917   7.461  0.0495  0.0286  0.1827
 4605POPS   CNO93222  31.791  22.428  10.069 -0.0356 -0.1425 -0.2337
 4605POPS   PO493223  31.579  22.140   9.928  0.2165 -0.1240  0.0449
 4605POPS   GL193224  31.292  22.332   9.744  0.0088  0.2711  0.2579
 4605POPS   GL293225  31.441  22.327   9.474 -0.0725  0.2350 -0.1678
 4605POPS   C1A93226  30.939  22.495   9.444  0.2021  0.1274 -0.0038
 4605POPS   D2A93227  30.578  22.559   9.157  0.1721  0.2573  0.3499
 4605POPS   C3A93228  30.487  22.845   8.799 -0.0577  0.3740 -0.1983
 4605POPS   C4A93229  30.227  22.866   8.424 -0.0470  0.1509  0.2246
 4605POPS   C1B93230  31.583  22.436   9.014  0.3564  0.0137  0.1518
 4605POPS   C2B93231  31.351  22.409   8.640  0.2952 -0.1867  0.6821
 4605POPS   C3B93232  31.211  21.955   8.478 -0.0003 -0.4327  0.0038
 4605POPS   C4B93233  30.995  21.541   8.350 -0.1419 -0.0946 -0.0459
 4606POPS   CNO93234  16.565  17.272   8.682  0.1920 -0.3590 -0.1757
 4606POPS   PO493235  16.702  17.262   8.310 -0.0227 -0.1334 -0.1157
 4606POPS   GL193236  16.377  17.291   8.063  0.2014 -0.2386 -0.0102
 4606POPS   GL293237  16.381  17.005   8.019 -0.0504  0.4625  0.4200
 4606POPS   C1A93238  16.292  17.641   7.719  0.2928  0.1960  0.1507
 4606POPS   D2A93239  16.244  17.896   7.338 -0.0837  0.0530  0.0615
 4606POPS   C3A93240  15.850  18.119   7.186 -0.0234  0.3460 -0.1176
 4606POPS   C4A93241  15.572  18.271   6.822  0.1963  0.0821 -0.0588
 4606POPS   C1B93242  16.133  17.088   7.670  0.0646  0.1635  0.2372
 4606POPS   C2B93243  15.996  17.417   7.361  0.0430  0.1225  0.2743
 4606POPS   C3B93244  15.691  17.330   6.973  0.0659  0.1907  0.1320
 4606POPS   C4B93245  15.408  17.449   6.580 -0.0796  0.4918 -0.1402
 4607POPS   CNO93246  16.892  25.693   9.204 -0.1088  0.3053  0.2397
 4607POPS   PO493247  16.923  26.027   9.044  0.2223  0.0013 -0.2568
 4607POPS   GL193248  16.851  25.900   8.679 -0.1053 -0.1858 -0.1597
 4607POPS   GL293249  16.802  25.603   8.674 -0.3993  0.1250 -0.0105
 4607POPS   C1A93250  16.851  25.931   8.238  0.1518  0.1899 -0.2533
 4607POPS   D2A93251  16.860  25.739   7.822  0.2714 -0.1401 -0.2491
 4607POPS   C3A93252  16.888  25.998   7.434 -0.0557 -0.1847 -0.1978
 4607POPS   C4A93253  17.042  26.339   7.171 -0.1176 -0.0569 -0.1349
 4607POPS   C1B93254  16.432  25.701   8.396  0.0532  0.2952  0.1073
 4607POPS   C2B93255  16.350  25.890   8.022 -0.1530 -0.1071  0.1606
 4607POPS   C3B93256  16.367  25.909   7.540 -0.1479  0.1961 -0.0649
 4607POPS   C4B93257  16.586  25.819   7.122 -0.1252 -0.2446 -0.2246
 4608POPS   CNO93258  31.573  21.850  10.785 -0.3798 -0.0551 -0.3709
 4608POPS   PO493259  31.219  21.991  10.778  0.1410  0.1644 -0.0491
 4608POPS   GL193260  30.912  21.919  10.476 -0.3342 -0.5405 -0.2913
 4608POPS   GL293261  30.658  21.905  10.577 -0.3400 -0.0718  0.0062
 4608POPS   C1A93262  30.687  21.826  10.091 -0.2491 -0.0098  0.1999
 4608POPS   D2A93263  30.299  21.653   9.842 -0.3217  0.1392 -0.2930
 4608POPS   C3A93264  29.914  21.493   9.664 -0.1821 -0.3532  0.2446
 4608POPS   C4A93265  29.681  21.159   9.463  0.0808  0.0657  0.2064
 4608POPS   C1B93266  30.189  21.742  10.383 -0.2484  0.0203  0.2852
 4608POPS   C2B93267  29.905  21.787  10.060 -0.0433  0.0305  0.2135
 4608POPS   C3B93268  29.752  22.153   9.770 -0.1312 -0.0994  0.0161
 4608POPS   C4B93269  29.275  22.255   9.758 -0.1883  0.0473 -0.0190
 4609POPS   CNO93270  19.442  28.113   8.053  0.3672  0.2000 -0.1133
 4609POPS   PO493271  19.707  28.270   7.814 -0.3843 -0.2880  0.1685
 4609POPS   GL193272  19.876  28.328   7.446  0.2379  0.0708 -0.1394
 4609POPS   GL293273  20.124  28.371   7.556 -0.2525 -0.0325 -0.4352
 4609POPS   C1A93274  19.681  28.287   7.013  0.2791  0.0034 -0.2574
 4609POPS   D2A93275  19.685  28.377   6.573  0.1237  0.2890  0.0269
 4609POPS   C3A93276  19.598  28.802   6.475 -0.3175  0.1104 -0.0361
 4609POPS   C4A93277  19.568  29.120   6.137  0.0788 -0.0074 -0.0283
 4609POPS   C1B93278  20.224  28.112   7.188  0.4507  0.0721  0.0857
 4609POPS   C2B93279  20.627  28.034   7.024 -0.1999  0.0436 -0.0199
 4609POPS   C3B93280  20.929  27.837   6.730  0.0195  0.1333  0.0607
 4609POPS   C4B93281  21.255  27.632   6.436 -0.0852  0.5152  0.1434
 4610POPS   CNO93282  16.543  22.790   9.197 -0.2510 -0.0058 -0.0796
 4610POPS   PO493283  16.308  23.086   9.177  0.1588  0.0521 -0.1159
 4610POPS   GL193284  16.430  22.886   8.772  0.2122 -0.0675  0.2317
 4610POPS   GL293285  16.239  23.011   8.539  0.0872  0.0730 -0.1108
 4610POPS   C1A93286  16.583  22.646   8.387  0.1318  0.2101 -0.0069
 4610POPS   D2A93287  16.511  22.548   7.914 -0.2579  0.0660  0.0003
 4610POPS   C3A93288  16.414  22.129   7.742 -0.0084  0.1087  0.0557
 4610POPS   C4A93289  16.509  21.815   7.446 -0.2260 -0.3319  0.1908
 4610POPS   C1B93290  16.119  23.350   8.244 -0.2010  0.3532  0.4112
 4610POPS   C2B93291  15.981  23.555   7.895 -0.1710 -0.0433  0.1215
 4610POPS   C3B93292  15.736  23.652   7.505  0.2172 -0.1315  0.1386
 4610POPS   C4B93293  15.617  24.057   7.258 -0.2547  0.1375 -0.3396
 4611POPS   CNO93294  19.249  27.419   8.654  0.0466 -0.3164  0.0548
 4611POPS   PO493295  19.123  27.780   8.533 -0.0969  0.4286  0.3165
 4611POPS   GL193296  18.994  27.755   8.166  0.0050 -0.3335  0.1213
 4611POPS   GL293297  19.006  27.448   8.074  0.1873  0.0541 -0.0189
 4611POPS   C1A93298  18.689  27.738   7.824 -0.1647 -0.1564 -0.0370
 4611POPS   D2A93299  18.700  27.631   7.370  0.0159 -0.0848  0.2581
 4611POPS   C3A93300  19.066  27.486   7.192  0.1040  0.0726 -0.1774
 4611POPS   C4A93301  19.045  27.181   6.784  0.0446 -0.2271 -0.0248
 4611POPS   C1B93302  18.845  27.257   7.691  0.1471  0.1444 -0.0748
 4611POPS   C2B93303  18.672  27.082   7.287  0.2033 -0.0328 -0.1186
 4611POPS   C3B93304  18.642  27.370   6.958 -0.0404 -0.0572 -0.1773
 4611POPS   C4B93305  18.520  27.526   6.552  0.0289 -0.0714  0.2748
 4612POPS   CNO93306  18.376  16.338   8.453 -0.1151 -0.3666 -0.1940
 4612POPS   PO493307  18.310  15.984   8.375  0.0332 -0.0515 -0.3679
 4612POPS   GL193308  18.460  15.925   8.040  0.0607  0.0915  0.0965
 4612POPS   GL293309  18.330  15.722   7.871 -0.1591  0.0617 -0.2863
 4612POPS   C1A93310  18.865  16.086   7.820 -0.0418  0.0025 -0.0315
 4612POPS   D2A93311  19.087  16.199   7.425 -0.0836 -0.1413 -0.1796
 4612POPS   C3A93312  19.110  16.403   7.069  0.0292  0.1836  0.3601
 4612POPS   C4A93313  18.920  16.641   6.731  0.2919  0.2837  0.3200
 4612POPS   C1B93314  18.516  15.669   7.465 -0.1400 -0.1857  0.4618
 4612POPS   C2B93315  18.577  15.626   6.974  0.0027 -0.2804 -0.2454
 4612POPS   C3B93316  18.513  15.759   6.538  0.3444 -0.3186 -0.2499
 4612POPS   C4B93317  18.293  16.017   6.126 -0.1467  0.0597  0.0386
 4613POPS   CNO93318  22.022  25.472  11.404 -0.0846  0.0834 -0.0360
 4613POPS   PO493319  22.248  25.519  11.184  0.1623 -0.0945  0.0598
 4613POPS   GL193320  22.409  25.158  10.924 -0.0116 -0.3739 -0.1543
 4613POPS   GL293321  22.171  25.039  10.873 -0.1840 -0.3043 -0.1937
 4613POPS   C1A93322  22.676  24.749  11.053  0.0390 -0.1532  0.1510
 4613POPS   D2A93323  22.826  24.322  11.030 -0.1867  0.1700 -0.1481
 4613POPS   C3A93324  22.736  23.999  10.766  0.0040 -0.2041  0.2099
 4613POPS   C4A93325  22.947  23.679  10.604 -0.0400  0.1084 -0.1448
 4613POPS   C1B93326  22.362  24.869  10.552 -0.0798 -0.2771  0.2145
 4613POPS   C2B93327  22.440  24.596  10.163  0.2687 -0.2010  0.0709
 4613POPS   C3B93328  22.575  24.279   9.857 -0.1448  0.3988  0.2599
 4613POPS   C4B93329  22.841  23.999   9.687  0.2796  0.2353  0.1701
 4614POPS   CNO93330  16.807  22.471   9.437  0.1718 -0.2889  0.2230
 4614POPS   PO493331  16.480  22.251   9.422  0.0204 -0.2343 -0.1637
 4614POPS   GL193332  16.515  22.309   9.041  0.1384 -0.1307 -0.0307
 4614POPS   GL293333  16.370  22.074   8.922 -0.2259 -0.0135 -0.1954
 4614POPS   C1A93334  16.210  22.507   8.670 -0.2831  0.0776  0.1039
 4614POPS   D2A93335  15.874  22.697   8.421  0.0096  0.1615  0.2263
 4614POPS   C3A93336  15.886  22.844   7.980 -0.1200 -0.1016 -0.1585
 4614POPS   C4A93337  16.067  23.146   7.643 -0.0575 -0.0644 -0.2810
 4614POPS   C1B93338  16.053  21.982   8.560 -0.1174  0.0050  0.3877
 4614POPS   C2B93339  15.684  21.650   8.466 -0.0393  0.2619 -0.1294
 4614POPS   C3B93340  15.607  21.477   8.017  0.2862 -0.1806 -0.2666
 4614POPS   C4B93341  15.608  21.354   7.613  0.0680  0.1254  0.2484
 4615POPS   CNO93342   1.099  24.236   9.377 -0.1034  0.1026  0.3237
 4615POPS   PO493343   0.807  24.261   9.184  0.1229 -0.0904 -0.2071
 4615POPS   GL193344   0.774  24.149   8.875 -0.3347 -0.3058  0.1892
 4615POPS   GL293345   0.499  24.109   8.771  0.0032  0.0236 -0.1361
 4615POPS   C1A93346   0.883  23.876   8.465 -0.0367  0.3329  0.0846
 4615POPS   D2A93347   0.880  23.463   8.299 -0.2595 -0.1178  0.3153
 4615POPS   C3A93348   0.984  23.371   7.884 -0.0718  0.0959  0.0322
 4615POPS   C4A93349   0.771  23.551   7.463 -0.3815 -0.1293  0.0337
 4615POPS   C1B93350   0.417  23.928   8.330  0.1645  0.4663  0.1973
 4615POPS   C2B93351   0.103  23.875   8.017  0.2868  0.0485 -0.2292
 4615POPS   C3B93352   0.158  23.776   7.513  0.0957 -0.1662 -0.1313
 4615POPS   C4B93353   0.381  23.495   7.164 -0.0205  0.0578 -0.0642
 4616POPS   CNO93354  29.916  32.555   7.969  0.1466  0.2833 -0.1233
 4616POPS   PO493355  29.699  32.438   8.238  0.4351  0.1740  0.1865
 4616POPS   GL193356  29.498  32.466   7.864  0.4091  0.2043 -0.1929
 4616POPS   GL293357  29.476  32.724   7.715  0.3252 -0.1679  0.1558
 4616POPS   C1A93358  29.225  32.374   7.484  0.0826 -0.1785  0.2817
 4616POPS   D2A93359  28.828  32.321   7.250 -0.4388 -0.1364 -0.0990
 4616POPS   C3A93360  28.408  32.324   7.057 -0.1525  0.1410 -0.0846
 4616POPS   C4A93361  28.061  32.057   6.800 -0.4627 -0.5012  0.1318
 4616POPS   C1B93362  29.758  32.593   7.365 -0.4059  0.2596 -0.1093
 4616POPS   C2B93363  29.811  32.697   6.895 -0.2223 -0.0500  0.4254
 4616POPS   C3B93364  29.754  32.801   6.491 -0.0744  0.2587 -0.0749
 4616POPS   C4B93365  29.901  32.641   6.064  0.0427  0.0581 -0.0647
 4617POPS   CNO93366  18.810  26.673   8.826  0.0563  0.0375  0.5181
 4617POPS   PO493367  18.903  26.381   8.586 -0.0554  0.3157  0.1066
 4617POPS   GL193368  18.817  26.526   8.198 -0.3937  0.1188  0.0175
 4617POPS   GL293369  18.662  26.271   8.036 -0.1751  0.0548  0.1709
 4617POPS   C1A93370  18.974  26.542   7.768 -0.3850  0.0439 -0.3738
 4617POPS   D2A93371  19.233  26.346   7.457 -0.5328 -0.0697 -0.3107
 4617POPS   C3A93372  19.193  26.184   7.081  0.0234  0.0205 -0.0663
 4617POPS   C4A93373  19.073  26.084   6.618 -0.2961  0.0791  0.2712
 4617POPS   C1B93374  18.577  26.350   7.625 -0.0679 -0.1772 -0.0527
 4617POPS   C2B93375  18.415  26.136   7.301  0.3157  0.1000  0.0133
 4617POPS   C3B93376  18.645  26.204   6.938  0.0007 -0.3311 -0.1976
 4617POPS   C4B93377  18.938  26.562   6.738 -0.0302 -0.2061  0.1667
 4618POPS   CNO93378  23.528  31.560   9.130  0.3640 -0.2795 -0.1694
 4618POPS   PO493379  23.588  31.948   9.118 -0.6436  0.5523 -0.1690
 4618POPS   GL193380  23.743  32.056   8.773  0.2133  0.0080 -0.1869
 4618POPS   GL293381  23.632  32.273   8.639 -0.1941  0.0559 -0.2500
 4618POPS   C1A93382  24.113  32.346   8.758 -0.1135 -0.4041  0.2932
 4618POPS   D2A93383  24.401  32.634   8.475  0.1157 -0.1112  0.0167
 4618POPS   C3A93384  24.712  32.694   8.106  0.0130 -0.0552 -0.0509
 4618POPS   C4A93385  24.996  32.935   7.817  0.1705 -0.2359  0.2792
 4618POPS   C1B93386  23.426  32.655   8.376 -0.2475 -0.2732  0.0637
 4618POPS   C2B93387  23.362  32.849   8.002 -0.1771 -0.1933  0.2537
 4618POPS   C3B93388  23.348  32.861   7.540 -0.1538  0.0005 -0.2289
 4618POPS   C4B93389  23.632  32.808   7.182 -0.0923 -0.1366  0.3607
 4619POPS   CNO93390  21.907  31.610   8.807  0.4117 -0.2138 -0.4123
 4619POPS   PO493391  21.698  31.937   8.793  0.3369 -0.0389 -0.3986
 4619POPS   GL193392  21.704  31.978   8.382 -0.1386 -0.1901  0.1218
 4619POPS   GL293393  21.948  32.004   8.244  0.0719  0.0660 -0.0993
 4619POPS   C1A93394  21.547  31.982   7.928 -0.0789 -0.1385  0.0002
 4619POPS   D2A93395  21.751  31.921   7.517 -0.1413  0.1086  0.0989
 4619POPS   C3A93396  21.846  31.948   7.069  0.2308 -0.0858 -0.0013
 4619POPS   C4A93397  21.964  31.746   6.643  0.2135 -0.4899 -0.1795
 4619POPS   C1B93398  22.301  32.241   8.029  0.0809  0.5105  0.1572
 4619POPS   C2B93399  22.488  32.429   7.639 -0.1698  0.0806  0.2470
 4619POPS   C3B93400  22.407  32.483   7.137 -0.3073 -0.2031 -0.1766
 4619POPS   C4B93401  22.512  32.608   6.682  0.2554 -0.1311 -0.5226
 4620POPS   CNO93402  28.023  17.134  14.312  0.2267 -0.1642 -0.1072
 4620POPS   PO493403  28.371  17.281  14.310 -0.0954 -0.1197 -0.1760
 4620POPS   GL193404  28.301  17.566  14.504 -0.0331 -0.0664 -0.2135
 4620POPS   GL293405  28.352  17.834  14.335 -0.0473 -0.1077  0.0516
 4620POPS   C1A93406  28.108  17.724  14.910  0.0232 -0.1554 -0.2872
 4620POPS   D2A93407  28.083  17.749  15.365 -0.0144 -0.0099 -0.1407
 4620POPS   C3A93408  27.864  18.014  15.666 -0.0647 -0.0887  0.0375
 4620POPS   C4A93409  27.795  18.401  15.773 -0.3221 -0.4504 -0.2706
 4620POPS   C1B93410  28.067  18.111  14.600  0.0766  0.1470  0.1601
 4620POPS   C2B93411  27.867  18.365  14.889 -0.0119  0.1638  0.1545
 4620POPS   C3B93412  27.670  18.642  15.141 -0.1596 -0.0441 -0.1567
 4620POPS   C4B93413  27.386  18.523  15.477 -0.1040  0.2802  0.4468
 4621POPS   CNO93414  23.430  21.711   7.568  0.1156  0.0579  0.0476
 4621POPS   PO493415  23.659  21.966   7.676  0.2053  0.0238 -0.1846
 4621POPS   GL193416  23.371  21.768   8.012  0.0791 -0.3255 -0.1800
 4621POPS   GL293417  23.525  21.500   8.071 -0.0603 -0.1401  0.1095
 4621POPS   C1A93418  22.987  21.749   8.268  0.2579 -0.0565  0.2111
 4621POPS   D2A93419  22.592  21.624   8.460 -0.3391 -0.2539  0.0063
 4621POPS   C3A93420  22.355  21.649   8.042  0.0526 -0.1955  0.0315
 4621POPS   C4A93421  22.166  21.623   7.611 -0.1619  0.0177 -0.0524
 4621POPS   C1B93422  23.248  21.304   8.377 -0.1829  0.0142  0.0484
 4621POPS   C2B93423  23.138  20.839   8.453  0.0441 -0.1303 -0.2169
 4621POPS   C3B93424  22.763  20.665   8.581  0.3919  0.0061 -0.3386
 4621POPS   C4B93425  22.426  20.761   8.841 -0.0056  0.1661  0.2291
 4622POPS   CNO93426  28.392  21.680   7.196  0.0135  0.1316  0.1792
 4622POPS   PO493427  28.544  21.902   7.416 -0.2672 -0.1619 -0.1452
 4622POPS   GL193428  28.863  21.889   7.688  0.2464  0.1948 -0.0375
 4622POPS   GL293429  29.042  21.728   7.610 -0.1591 -0.0271 -0.4939
 4622POPS   C1A93430  28.966  21.577   8.038  0.0770 -0.0317 -0.0460
 4622POPS   D2A93431  28.988  21.221   8.241  0.3565  0.0450  0.0786
 4622POPS   C3A93432  29.198  20.808   8.296 -0.3831  0.2407 -0.1100
 4622POPS   C4A93433  29.009  20.480   8.483  0.0750 -0.1738 -0.1012
 4622POPS   C1B93434  29.354  21.421   7.837  0.1300  0.2314 -0.0664
 4622POPS   C2B93435  29.546  21.111   8.160 -0.1089 -0.3128 -0.3970
 4622POPS   C3B93436  29.727  20.901   8.517 -0.1194 -0.0884  0.0056
 4622POPS   C4B93437  29.655  20.533   8.751  0.1214 -0.2129 -0.0054
 4623POPS   CNO93438  31.668  19.114   4.601  0.1610  0.0736  0.1557
 4623POPS   PO493439  31.819  19.367   4.816 -0.0339 -0.4467  0.0045
 4623POPS   GL193440  31.786  19.094   5.109 -0.0550  0.2705  0.0075
 4623POPS   GL293441  31.568  19.156   5.361 -0.1552 -0.0701  0.1499
 4623POPS   C1A93442  32.243  18.967   5.203 -0.1994  0.0261 -0.0337
 4623POPS   D2A93443  32.639  18.763   5.341 -0.1149  0.1054 -0.0133
 4623POPS   C3A93444  32.764  18.468   5.678  0.1314  0.0936  0.2268
 4623POPS   C4A93445  32.557  18.490   6.083  0.0799  0.3227 -0.2382
 4623POPS   C1B93446  31.480  19.042   5.842  0.3033  0.3047 -0.0441
 4623POPS   C2B93447  31.537  18.849   6.273  0.0699 -0.0064 -0.1096
 4623POPS   C3B93448  31.773  18.864   6.691 -0.0499  0.0330 -0.4549
 4623POPS   C4B93449  31.740  19.142   7.065 -0.0557 -0.1314  0.0143
 4624POPS   CNO93450  26.360  24.019   8.876  0.0367  0.1168 -0.2115
 4624POPS   PO493451  26.126  23.951   9.189  0.0535  0.1025 -0.2270
 4624POPS   GL193452  25.922  24.364   9.313  0.0646 -0.0299  0.1374
 4624POPS   GL293453  26.150  24.540   9.393  0.2931  0.0639  0.2619
 4624POPS   C1A93454  25.686  24.382   9.707 -0.1249 -0.0945  0.0208
 4624POPS   D2A93455  25.558  24.654  10.079 -0.0646 -0.1516  0.4304
 4624POPS   C3A93456  25.233  24.644  10.423 -0.0350 -0.2098 -0.0804
 4624POPS   C4A93457  25.468  24.666  10.863 -0.1616  0.0968  0.0873
 4624POPS   C1B93458  26.387  24.842   9.650 -0.1554  0.0570  0.2839
 4624POPS   C2B93459  26.389  25.318   9.649  0.1239  0.0801 -0.1183
 4624POPS   C3B93460  26.283  25.726   9.931 -0.2986  0.1318 -0.2357
 4624POPS   C4B93461  25.947  26.069   9.975  0.3979  0.3331  0.2359
 4625POPS   CNO93462  27.367  21.654   7.716  0.1397  0.0836  0.2697
 4625POPS   PO493463  27.223  21.318   7.588 -0.1626  0.2809 -0.1417
 4625POPS   GL193464  27.091  21.097   7.876  0.1133  0.2474  0.0810
 4625POPS   GL293465  26.960  20.784   7.848  0.0521  0.2629 -0.0488
 4625POPS   C1A93466  27.459  20.978   8.173 -0.1465 -0.0580 -0.2787
 4625POPS   D2A93467  27.725  20.628   8.263  0.3262  0.1489 -0.0943
 4625POPS   C3A93468  27.712  20.430   8.642 -0.0009  0.0155 -0.0675
 4625POPS   C4A93469  28.040  20.196   8.915 -0.0087 -0.4357  0.0409
 4625POPS   C1B93470  27.060  20.427   8.097 -0.0755  0.0282 -0.0823
 4625POPS   C2B93471  27.115  19.983   8.269 -0.1082 -0.1595 -0.3474
 4625POPS   C3B93472  27.294  19.520   8.152 -0.2026 -0.1281 -0.1165
 4625POPS   C4B93473  27.440  19.104   8.225 -0.1498 -0.1506  0.1068
 4626POPS   CNO93474  28.865  21.207   6.252  0.1522 -0.0238  0.3385
 4626POPS   PO493475  28.623  20.914   6.281  0.0634 -0.0290  0.0102
 4626POPS   GL193476  28.782  20.645   6.631 -0.1021 -0.3309  0.1437
 4626POPS   GL293477  28.545  20.595   6.766  0.0274 -0.1398  0.0756
 4626POPS   C1A93478  29.040  20.785   6.981 -0.0948 -0.4490 -0.0263
 4626POPS   D2A93479  29.183  20.712   7.432  0.2926  0.1151  0.2550
 4626POPS   C3A93480  29.394  20.812   7.785 -0.0549  0.0869  0.3968
 4626POPS   C4A93481  29.636  20.580   8.086  0.0080  0.0330  0.2271
 4626POPS   C1B93482  28.534  20.220   6.988 -0.0052  0.0384 -0.3297
 4626POPS   C2B93483  28.511  20.003   7.424 -0.2841  0.4248  0.0631
 4626POPS   C3B93484  28.736  20.038   7.802 -0.3157 -0.1134 -0.0654
 4626POPS   C4B93485  29.062  19.885   8.140  0.0244 -0.1760 -0.0868
 4627POPS   CNO93486  25.836  19.967   6.339 -0.2455 -0.0052 -0.2367
 4627POPS   PO493487  25.596  19.734   6.544 -0.2899  0.0240 -0.0287
 4627POPS   GL193488  25.542  19.383   6.820 -0.1965  0.5940 -0.1487
 4627POPS   GL293489  25.442  19.256   7.070 -0.0220  0.1432 -0.0802
 4627POPS   C1A93490  25.891  19.463   7.065  0.0437  0.1442  0.0777
 4627POPS   D2A93491  26.162  19.441   7.372 -0.0976  0.0093 -0.0109
 4627POPS   C3A93492  26.287  19.115   7.670 -0.1636  0.0460  0.1931
 4627POPS   C4A93493  26.553  18.987   7.954  0.1448  0.3940 -0.3595
 4627POPS   C1B93494  25.203  19.034   7.423 -0.0606 -0.1079 -0.0994
 4627POPS   C2B93495  25.176  18.787   7.799  0.2022  0.0152  0.2231
 4627POPS   C3B93496  25.265  18.475   8.124 -0.2463  0.0367 -0.2971
 4627POPS   C4B93497  25.181  18.046   8.420  0.0359 -0.0074 -0.1364
 4628POPS   CNO93498  17.596  31.313   3.710 -0.0604  0.3015 -0.0824
 4628POPS   PO493499  17.485  30.954   3.697 -0.1026 -0.2256  0.0661
 4628POPS   GL193500  17.457  30.919   4.152  0.1349  0.0907 -0.1780
 4628POPS   GL293501  17.582  31.149   4.291 -0.1366  0.3267  0.0873
 4628POPS   C1A93502  17.797  30.658   4.372  0.1352  0.1414  0.0266
 4628POPS   D2A93503  17.987  30.586   4.814 -0.0667 -0.2704 -0.2513
 4628POPS   C3A93504  17.922  30.132   4.966  0.1647  0.0316 -0.2609
 4628POPS   C4A93505  18.101  29.815   5.229  0.1144 -0.1237  0.1647
 4628POPS   C1B93506  17.648  31.001   4.729  0.3594  0.1258  0.1519
 4628POPS   C2B93507  17.637  30.874   5.136  0.2019 -0.4099  0.4072
 4628POPS   C3B93508  17.829  30.502   5.430  0.0710 -0.0068  0.0428
 4628POPS   C4B93509  18.160  30.277   5.659 -0.1283  0.2260  0.2468
 4629POPS   CNO93510  22.709  21.474   5.933  0.1008  0.1998  0.0123
 4629POPS   PO493511  22.455  21.483   6.194 -0.0831  0.0792 -0.0853
 4629POPS   GL193512  22.274  21.326   6.453  0.2056  0.0067 -0.2320
 4629POPS   GL293513  22.385  21.319   6.643 -0.1627  0.2037 -0.0025
 4629POPS   C1A93514  21.873  21.029   6.447  0.1332 -0.0367 -0.1690
 4629POPS   D2A93515  21.463  20.798   6.363 -0.1017  0.0999 -0.2793
 4629POPS   C3A93516  21.341  20.703   6.779 -0.0385 -0.1523 -0.2460
 4629POPS   C4A93517  21.153  20.963   7.089  0.0976  0.0235  0.0284
 4629POPS   C1B93518  22.365  21.341   7.121 -0.2293  0.1757  0.0245
 4629POPS   C2B93519  22.145  21.153   7.453 -0.1161  0.0893 -0.1802
 4629POPS   C3B93520  21.685  21.071   7.640  0.3096  0.1794 -0.0320
 4629POPS   C4B93521  21.448  21.308   7.977 -0.0224  0.1223  0.1398
 4630POPS   CNO93522  27.776  31.113   4.358  0.4089  0.1214  0.2516
 4630POPS   PO493523  27.949  30.903   4.663 -0.1363  0.1069 -0.1216
 4630POPS   GL193524  27.911  30.657   4.943 -0.2195 -0.1177  0.0712
 4630POPS   GL293525  27.681  30.673   5.144 -0.1039 -0.1109  0.0981
 4630POPS   C1A93526  28.123  30.428   5.285 -0.0477  0.1513  0.0835
 4630POPS   D2A93527  28.498  30.492   5.591  0.1158 -0.0191  0.0517
 4630POPS   C3A93528  28.820  30.358   5.929 -0.2824  0.0240 -0.1229
 4630POPS   C4A93529  28.840  30.496   6.343  0.1536  0.1817 -0.3011
 4630POPS   C1B93530  27.740  30.518   5.585  0.2580  0.0809 -0.1392
 4630POPS   C2B93531  27.860  30.455   6.060 -0.0718  0.1827  0.0471
 4630POPS   C3B93532  27.988  30.321   6.483 -0.1005  0.1028 -0.1465
 4630POPS   C4B93533  27.981  30.515   6.921  0.0548 -0.0978 -0.0212
 4631POPS   CNO93534  19.133  31.326   3.328  0.2906  0.0308  0.1674
 4631POPS   PO493535  19.240  31.470   3.669  0.2252 -0.2783 -0.1213
 4631POPS   GL193536  19.271  31.517   4.066  0.1957 -0.3280 -0.1971
 4631POPS   GL293537  19.411  31.237   4.219 -0.1695  0.0923 -0.0432
 4631POPS   C1A93538  18.970  31.462   4.434 -0.0443  0.0273 -0.0415
 4631POPS   D2A93539  18.921  31.380   4.917  0.1149  0.0147  0.0644
 4631POPS   C3A93540  19.250  31.621   5.150 -0.1352 -0.0371 -0.1697
 4631POPS   C4A93541  19.126  31.925   5.522 -0.3099 -0.3146  0.1763
 4631POPS   C1B93542  19.164  30.960   4.507 -0.0475  0.0710  0.1540
 4631POPS   C2B93543  19.208  30.923   4.969 -0.2434  0.1761  0.4458
 4631POPS   C3B93544  19.284  31.083   5.429 -0.0371 -0.2369  0.2948
 4631POPS   C4B93545  19.471  31.478   5.561 -0.3194  0.2320  0.2047
 4632POPS   CNO93546  25.834  30.894   4.696 -0.2507  0.1356 -0.2959
 4632POPS   PO493547  26.162  31.032   4.674 -0.2142 -0.3343 -0.0133
 4632POPS   GL193548  26.064  31.025   5.094 -0.0704  0.0053 -0.1608
 4632POPS   GL293549  26.281  30.904   5.293  0.1461 -0.1268  0.0653
 4632POPS   C1A93550  26.044  31.299   5.493 -0.0259 -0.2280 -0.0745
 4632POPS   D2A93551  25.879  31.409   5.940  0.0679  0.2130 -0.0997
 4632POPS   C3A93552  25.964  31.578   6.369 -0.0399 -0.0293  0.2133
 4632POPS   C4A93553  26.179  31.556   6.766 -0.0033  0.2184  0.1217
 4632POPS   C1B93554  26.747  31.012   5.272  0.0913  0.2478  0.1474
 4632POPS   C2B93555  26.986  31.093   5.650  0.1684 -0.2597 -0.0155
 4632POPS   C3B93556  26.994  30.834   6.048 -0.2236  0.1990 -0.2916
 4632POPS   C4B93557  27.177  30.459   6.265  0.2100 -0.0684 -0.0825
 4633POPS   CNO93558  26.522  21.830  11.270  0.1403 -0.0228 -0.0197
 4633POPS   PO493559  26.867  21.894  11.192 -0.2863 -0.1682  0.0322
 4633POPS   GL193560  26.921  21.522  11.313 -0.0987 -0.0220 -0.1731
 4633POPS   GL293561  26.628  21.366  11.273  0.2870  0.2366 -0.3660
 4633POPS   C1A93562  27.084  21.113  11.259 -0.0297  0.3403  0.1206
 4633POPS   D2A93563  27.356  20.843  11.494 -0.1433 -0.1287 -0.0263
 4633POPS   C3A93564  27.609  20.476  11.370  0.1086  0.1593  0.0982
 4633POPS   C4A93565  27.407  20.025  11.221 -0.2261 -0.5165 -0.0844
 4633POPS   C1B93566  26.232  21.097  11.202 -0.0577  0.3146 -0.2759
 4633POPS   C2B93567  26.061  20.661  11.119  0.1053 -0.1206  0.2210
 4633POPS   C3B93568  26.147  20.360  10.877 -0.1454  0.3652 -0.0293
 4633POPS   C4B93569  26.228  20.190  10.410  0.0815  0.1989  0.0372
 4634POPS   CNO93570  20.433  27.992   3.998  0.1390  0.0961  0.1437
 4634POPS   PO493571  20.288  27.626   4.023 -0.2797  0.3248  0.3797
 4634POPS   GL193572  20.210  27.587   4.369 -0.0697 -0.3386  0.2449
 4634POPS   GL293573  20.380  27.430   4.462  0.0028  0.0737  0.0776
 4634POPS   C1A93574  19.968  27.767   4.685  0.3254 -0.0726  0.0109
 4634POPS   D2A93575  20.045  28.052   4.999 -0.1803  0.1759 -0.0547
 4634POPS   C3A93576  19.871  27.930   5.435  0.2956  0.1178  0.0057
 4634POPS   C4A93577  19.504  27.891   5.638 -0.2492 -0.1102  0.1433
 4634POPS   C1B93578  20.408  27.714   4.858 -0.2576  0.0196 -0.0629
 4634POPS   C2B93579  20.331  27.701   5.340 -0.5055 -0.1648 -0.0653
 4634POPS   C3B93580  20.303  27.880   5.799 -0.1974 -0.0782  0.0492
 4634POPS   C4B93581  20.197  28.303   6.014  0.0490  0.0278 -0.0794
 4635POPS   CNO93582  18.576  31.595   3.492 -0.1740  0.1384 -0.0554
 4635POPS   PO493583  18.394  31.656   3.833 -0.0098  0.2359 -0.0202
 4635POPS   GL193584  18.298  31.719   4.231  0.0828  0.0841 -0.2503
 4635POPS   GL293585  18.567  31.710   4.296 -0.1773  0.2002  0.0666
 4635POPS   C1A93586  18.277  31.514   4.656 -0.1754  0.2385 -0.1456
 4635POPS   D2A93587  18.231  31.462   5.157 -0.3641 -0.0017 -0.0864
 4635POPS   C3A93588  18.093  31.590   5.603  0.2803  0.1758  0.0599
 4635POPS   C4A93589  18.182  31.526   6.043  0.1343  0.1153  0.0298
 4635POPS   C1B93590  18.593  31.885   4.709  0.1408  0.0186  0.1267
 4635POPS   C2B93591  18.778  31.874   5.120  0.0477 -0.1787  0.0318
 4635POPS   C3B93592  18.748  31.493   5.406 -0.1491  0.0289  0.2121
 4635POPS   C4B93593  18.438  31.217   5.686  0.1457  0.0477  0.0919
 4636POPS   CNO93594  29.811  22.804   7.181  0.1132 -0.0663 -0.0572
 4636POPS   PO493595  29.772  22.674   6.829  0.1597  0.2527 -0.2346
 4636POPS   GL193596  30.174  22.894   6.913  0.1827  0.2873  0.2672
 4636POPS   GL293597  30.286  22.638   6.838 -0.1604 -0.1846  0.2531
 4636POPS   C1A93598  30.364  22.834   7.352 -0.0862 -0.1520 -0.0171
 4636POPS   D2A93599  30.614  22.849   7.736 -0.2656  0.0109  0.1406
 4636POPS   C3A93600  30.899  23.141   7.887  0.2189 -0.0980  0.1231
 4636POPS   C4A93601  31.152  23.252   8.224  0.1038 -0.3681 -0.2894
 4636POPS   C1B93602  30.208  22.395   7.197 -0.0348  0.2141 -0.1747
 4636POPS   C2B93603  30.434  22.034   7.334 -0.0642  0.2233  0.0514
 4636POPS   C3B93604  30.775  21.919   7.624  0.0165 -0.2062 -0.1141
 4636POPS   C4B93605  30.785  21.608   7.937  0.1146  0.0624 -0.0725
 4637POPS   CNO93606  26.076  22.124  10.943  0.5535 -0.2388 -0.1102
 4637POPS   PO493607  25.796  21.858  10.960 -0.1388 -0.0515  0.0899
 4637POPS   GL193608  25.701  21.644  11.275  0.3448  0.0171  0.0370
 4637POPS   GL293609  25.424  21.672  11.291  0.1110 -0.1470  0.0192
 4637POPS   C1A93610  26.006  21.407  11.477 -0.2195 -0.1153 -0.1209
 4637POPS   D2A93611  25.927  21.181  11.822 -0.0560 -0.1318  0.4631
 4637POPS   C3A93612  26.267  21.082  12.148  0.2963 -0.1956  0.2639
 4637POPS   C4A93613  26.547  20.667  12.078 -0.0670  0.0673 -0.2358
 4637POPS   C1B93614  25.477  21.337  11.537  0.0157  0.0853 -0.0029
 4637POPS   C2B93615  25.403  21.143  11.912  0.2985 -0.2132  0.0605
 4637POPS   C3B93616  25.260  20.728  12.131  0.0886  0.0991  0.1268
 4637POPS   C4B93617  25.096  20.352  12.013 -0.0454 -0.1078  0.1146
 4638POPS   CNO93618  31.542  20.372   4.866 -0.1980  0.1851 -0.1893
 4638POPS   PO493619  31.830  20.186   5.039  0.0715  0.1005  0.2420
 4638POPS   GL193620  31.868  19.885   5.251  0.1212  0.0457 -0.1512
 4638POPS   GL293621  32.037  19.944   5.504  0.0168 -0.1793 -0.0398
 4638POPS   C1A93622  31.604  19.689   5.589 -0.0149  0.0492 -0.0823
 4638POPS   D2A93623  31.514  19.470   6.017  0.2845  0.0753 -0.2122
 4638POPS   C3A93624  31.726  19.677   6.379 -0.0553 -0.0022 -0.0493
 4638POPS   C4A93625  31.840  19.979   6.715 -0.1351 -0.0288  0.0676
 4638POPS   C1B93626  31.934  19.837   5.957  0.1818 -0.0659  0.3077
 4638POPS   C2B93627  32.210  19.628   6.299 -0.1410 -0.0566  0.2968
 4638POPS   C3B93628  32.292  19.737   6.754 -0.2643 -0.0681  0.0121
 4638POPS   C4B93629  32.136  19.607   7.141  0.1431  0.0416  0.0013
 4639POPS   CNO93630  23.548  19.598   5.971 -0.1958  0.1051 -0.0346
 4639POPS   PO493631  23.185  19.519   5.919  0.2463  0.3521  0.0075
 4639POPS   GL193632  23.209  19.233   6.121 -0.0255 -0.1024  0.0130
 4639POPS   GL293633  23.480  19.186   6.265 -0.1444 -0.1535  0.1771
 4639POPS   C1A93634  23.082  19.033   6.532 -0.1013  0.0093  0.2055
 4639POPS   D2A93635  22.808  19.044   6.904  0.0421 -0.0189  0.1200
 4639POPS   C3A93636  22.554  18.663   6.876  0.0249 -0.0441  0.2533
 4639POPS   C4A93637  22.230  18.405   6.795  0.0475  0.1229 -0.0057
 4639POPS   C1B93638  23.434  19.509   6.644  0.1335  0.1252 -0.1899
 4639POPS   C2B93639  23.544  19.553   7.103  0.2533  0.2879 -0.1782
 4639POPS   C3B93640  23.437  19.375   7.486  0.0184  0.0089  0.0319
 4639POPS   C4B93641  23.351  19.423   7.963 -0.1518  0.0723 -0.3368
 4640POPS   CNO93642  19.590  24.828   4.638 -0.2053 -0.0528  0.0433
 4640POPS   PO493643  19.514  25.189   4.670 -0.2913 -0.2053  0.0154
 4640POPS   GL193644  19.498  25.261   5.069 -0.1211 -0.1604  0.2999
 4640POPS   GL293645  19.730  25.060   5.129  0.3389  0.2578  0.3347
 4640POPS   C1A93646  19.293  25.526   5.469 -0.0185  0.0520 -0.0851
 4640POPS   D2A93647  18.912  25.527   5.734  0.1265 -0.3902  0.0413
 4640POPS   C3A93648  18.752  25.323   6.080  0.3504  0.0465 -0.2320
 4640POPS   C4A93649  18.562  25.211   6.508 -0.1440 -0.2890  0.1231
 4640POPS   C1B93650  19.381  25.032   5.415  0.0414 -0.1190  0.1903
 4640POPS   C2B93651  19.212  25.158   5.863 -0.3374  0.0033  0.1038
 4640POPS   C3B93652  19.222  24.844   6.209 -0.2248  0.0619  0.2453
 4640POPS   C4B93653  18.789  24.799   6.338  0.1867  0.2989 -0.0742
 4641POPS   CNO93654  30.251  31.447   3.844 -0.0144  0.1257  0.1579
 4641POPS   PO493655  29.974  31.351   4.029  0.2158 -0.0740 -0.0309
 4641POPS   GL193656  29.943  31.385   4.433 -0.0469  0.0307  0.1670
 4641POPS   GL293657  30.116  31.588   4.422 -0.1484  0.0249  0.0799
 4641POPS   C1A93658  29.883  31.287   4.897 -0.2130  0.1202 -0.1025
 4641POPS   D2A93659  29.748  31.535   5.243 -0.2127  0.0610  0.3522
 4641POPS   C3A93660  29.447  31.471   5.583  0.2786 -0.1292 -0.2911
 4641POPS   C4A93661  29.226  31.276   5.970  0.1259 -0.1588  0.1444
 4641POPS   C1B93662  30.161  31.869   4.825 -0.0816 -0.1754 -0.1003
 4641POPS   C2B93663  30.213  31.897   5.291  0.0045  0.2413  0.3740
 4641POPS   C3B93664  30.508  31.717   5.569  0.0474  0.1884 -0.0570
 4641POPS   C4B93665  30.957  31.750   5.657  0.0221  0.1230  0.3517
 4642POPS   CNO93666  23.995  22.673   7.806  0.1202 -0.1438 -0.1772
 4642POPS   PO493667  23.765  22.496   8.025  0.1235 -0.1254 -0.1864
 4642POPS   GL193668  23.579  22.331   8.339 -0.4177  0.0314  0.2698
 4642POPS   GL293669  23.342  22.244   8.150 -0.0675  0.0503  0.0040
 4642POPS   C1A93670  23.528  22.195   8.777  0.1424 -0.0425  0.0675
 4642POPS   D2A93671  23.303  21.990   9.039  0.1037  0.0533  0.0473
 4642POPS   C3A93672  22.844  22.000   9.240  0.4036  0.2111  0.0072
 4642POPS   C4A93673  22.779  22.086   9.690  0.1435 -0.2137  0.3332
 4642POPS   C1B93674  23.060  22.220   8.514  0.1724 -0.1291 -0.1081
 4642POPS   C2B93675  22.716  22.071   8.783  0.0316 -0.1190 -0.1543
 4642POPS   C3B93676  22.375  21.751   8.868 -0.0871  0.3052 -0.2989
 4642POPS   C4B93677  22.377  21.256   8.728 -0.0897  0.1535  0.1450
 4643POPS   CNO93678  26.840  25.335   6.651 -0.0574  0.0142  0.1981
 4643POPS   PO493679  26.903  25.715   6.568  0.2756 -0.1235 -0.2463
 4643POPS   GL193680  26.766  26.053   6.834  0.3257 -0.1311 -0.0797
 4643POPS   GL293681  26.648  25.836   6.994 -0.0361  0.0686  0.2100
 4643POPS   C1A93682  26.984  26.430   6.838 -0.0756  0.0532  0.2594
 4643POPS   D2A93683  26.890  26.869   6.983  0.0835  0.0625  0.1029
 4643POPS   C3A93684  26.894  26.851   7.476 -0.0189 -0.2505 -0.2519
 4643POPS   C4A93685  27.059  26.881   7.915  0.1062  0.2831 -0.0442
 4643POPS   C1B93686  26.862  26.203   7.259 -0.0887  0.0049 -0.0863
 4643POPS   C2B93687  26.705  26.296   7.634 -0.1506 -0.1817 -0.4274
 4643POPS   C3B93688  26.434  26.252   7.990 -0.0634  0.2912 -0.0691
 4643POPS   C4B93689  26.121  26.146   8.297  0.0676 -0.1050  0.0842
 4644POPS   CNO93690  22.417  31.974   4.329 -0.0908  0.1334  0.0349
 4644POPS   PO493691  22.347  32.292   4.545  0.0078 -0.3762  0.3297
 4644POPS   GL193692  22.477  32.132   4.885 -0.1215 -0.1266 -0.0242
 4644POPS   GL293693  22.260  32.078   5.035 -0.2151  0.0629 -0.0615
 4644POPS   C1A93694  22.615  31.846   5.229  0.0275  0.2860  0.2868
 4644POPS   D2A93695  22.498  31.581   5.551  0.1892 -0.3356  0.1683
 4644POPS   C3A93696  22.168  31.211   5.628  0.0415  0.0519  0.2709
 4644POPS   C4A93697  21.869  31.034   5.918 -0.1080  0.1087 -0.1287
 4644POPS   C1B93698  22.247  32.048   5.539  0.0533 -0.0952 -0.0680
 4644POPS   C2B93699  22.659  32.002   5.842  0.0717 -0.0932 -0.3159
 4644POPS   C3B93700  23.027  32.013   6.093  0.0295 -0.0327  0.0479
 4644POPS   C4B93701  23.440  32.083   6.280  0.0558  0.1117  0.0405
 4645POPS   CNO93702  25.878  28.001   5.515 -0.1267  0.0025  0.0881
 4645POPS   PO493703  25.928  28.168   5.156 -0.1299  0.1452  0.2147
 4645POPS   GL193704  26.215  28.416   5.353  0.0467  0.0453  0.1481
 4645POPS   GL293705  26.173  28.469   5.602  0.1212 -0.0029 -0.3196
 4645POPS   C1A93706  26.446  28.797   5.250  0.2571 -0.0625  0.1412
 4645POPS   D2A93707  26.774  29.111   5.315  0.2081 -0.3028  0.1172
 4645POPS   C3A93708  26.915  29.556   5.267 -0.3319 -0.2352  0.4955
 4645POPS   C4A93709  27.203  29.876   5.426  0.2716 -0.0278 -0.1823
 4645POPS   C1B93710  25.875  28.679   5.941 -0.0950  0.2991  0.0719
 4645POPS   C2B93711  25.749  29.055   6.243 -0.0211 -0.2481  0.0956
 4645POPS   C3B93712  25.743  29.286   6.645 -0.0159  0.0249  0.1947
 4645POPS   C4B93713  25.617  29.453   7.056  0.0978  0.2762  0.0430
 4646POPS   CNO93714  27.216  23.168  10.016  0.1948  0.0133  0.0633
 4646POPS   PO493715  27.578  23.152   9.875 -0.0246 -0.0151 -0.0972
 4646POPS   GL193716  27.973  23.405   9.806 -0.0708 -0.5261  0.2499
 4646POPS   GL293717  28.004  23.453  10.195  0.0766 -0.0444 -0.0066
 4646POPS   C1A93718  28.195  23.815   9.907  0.0147  0.0204  0.1505
 4646POPS   D2A93719  28.550  24.052   9.946  0.0001 -0.1796  0.0276
 4646POPS   C3A93720  28.955  24.187   9.802 -0.1733  0.0676 -0.0082
 4646POPS   C4A93721  29.359  24.418   9.810 -0.0365  0.2615 -0.0798
 4646POPS   C1B93722  28.420  23.250  10.215 -0.1947 -0.0825 -0.1241
 4646POPS   C2B93723  28.623  22.884  10.287  0.1292  0.0405  0.0583
 4646POPS   C3B93724  28.928  22.565  10.423  0.0150 -0.3591  0.3947
 4646POPS   C4B93725  29.382  22.426  10.420  0.2080  0.3305 -0.0006
 4647POPS   CNO93726  18.777  30.628   3.823 -0.1362  0.1018 -0.0314
 4647POPS   PO493727  18.887  30.328   4.034  0.0572  0.3135  0.1603
 4647POPS   GL193728  18.583  30.443   4.312 -0.4688  0.0404  0.2941
 4647POPS   GL293729  18.705  30.730   4.325  0.1547  0.0683  0.1786
 4647POPS   C1A93730  18.572  30.319   4.723  0.2113 -0.2458 -0.1625
 4647POPS   D2A93731  18.345  30.362   5.130 -0.2129  0.0201 -0.1169
 4647POPS   C3A93732  18.618  30.592   5.508  0.1700 -0.0475  0.3431
 4647POPS   C4A93733  18.661  30.832   5.872 -0.0889 -0.0452 -0.4823
 4647POPS   C1B93734  18.714  30.873   4.779 -0.1465 -0.1294  0.5720
 4647POPS   C2B93735  18.804  31.026   5.254 -0.0954 -0.1328  0.0011
 4647POPS   C3B93736  18.946  31.184   5.712 -0.0778 -0.0560  0.0620
 4647POPS   C4B93737  19.074  31.121   6.173 -0.1991  0.2124 -0.0883
 4648POPS   CNO93738  27.858  25.802   6.151  0.1107 -0.0971  0.0387
 4648POPS   PO493739  28.125  25.862   6.379 -0.1237 -0.0372 -0.2184
 4648POPS   GL193740  28.273  26.039   6.759  0.3346  0.1546 -0.0183
 4648POPS   GL293741  28.558  25.960   6.770  0.0722 -0.1307 -0.1295
 4648POPS   C1A93742  28.448  26.359   7.072  0.1897 -0.0747 -0.0824
 4648POPS   D2A93743  28.671  26.655   7.395  0.2375 -0.1959 -0.1037
 4648POPS   C3A93744  28.558  26.513   7.821 -0.1435  0.0116  0.0502
 4648POPS   C4A93745  28.631  26.171   8.153 -0.1228  0.0435  0.1269
 4648POPS   C1B93746  28.834  26.008   7.066 -0.2753 -0.1718 -0.0307
 4648POPS   C2B93747  29.276  26.036   7.168  0.1078  0.1460  0.2960
 4648POPS   C3B93748  29.610  25.822   6.866  0.1201 -0.2310  0.3351
 4648POPS   C4B93749  29.942  25.674   6.545 -0.2969  0.2364  0.1855
 4649POPS   CNO93750  21.025  29.090   3.795 -0.3662  0.0636 -0.0493
 4649POPS   PO493751  21.190  29.031   4.129  0.2179  0.0779  0.2052
 4649POPS   GL193752  21.028  29.268   4.379  0.0979  0.2062  0.2805
 4649POPS   GL293753  21.240  29.450   4.459 -0.0126 -0.1214  0.0031
 4649POPS   C1A93754  20.672  29.294   4.689 -0.0768 -0.1096 -0.0993
 4649POPS   D2A93755  20.626  29.637   4.978 -0.0134 -0.0309  0.0512
 4649POPS   C3A93756  20.654  29.766   5.440  0.2716 -0.2127  0.0967
 4649POPS   C4A93757  20.740  29.874   5.890 -0.0446 -0.0680  0.1355
 4649POPS   C1B93758  21.203  29.591   4.859 -0.4022  0.1073 -0.0943
 4649POPS   C2B93759  21.243  29.399   5.287  0.3624  0.1162  0.1130
 4649POPS   C3B93760  21.051  29.335   5.677 -0.0261 -0.0341 -0.0853
 4649POPS   C4B93761  20.788  29.207   6.032 -0.1817 -0.1125  0.0541
 4650POPS   CNO93762  19.397  20.693   4.858  0.1992 -0.1582 -0.0450
 4650POPS   PO493763  19.743  20.737   5.045  0.0454 -0.0700  0.1187
 4650POPS   GL193764  19.564  20.612   5.410 -0.1234  0.0016 -0.0220
 4650POPS   GL293765  19.298  20.548   5.342 -0.0050  0.2275 -0.3995
 4650POPS   C1A93766  19.332  20.589   5.805 -0.0349  0.0695 -0.2590
 4650POPS   D2A93767  19.051  20.828   6.019 -0.3672 -0.0440 -0.1657
 4650POPS   C3A93768  19.125  20.937   6.437  0.1824  0.1189 -0.0689
 4650POPS   C4A93769  18.876  20.846   6.834 -0.1718 -0.3420  0.0141
 4650POPS   C1B93770  18.964  20.271   5.457  0.2958 -0.1059  0.1886
 4650POPS   C2B93771  18.870  19.950   5.734  0.1998 -0.0344  0.1889
 4650POPS   C3B93772  18.813  20.006   6.198  0.2641 -0.3653  0.2954
 4650POPS   C4B93773  18.750  19.911   6.615 -0.0477  0.0296  0.4548
 4651POPS   CNO93774  17.181  20.750   4.466 -0.1315  0.0137 -0.0803
 4651POPS   PO493775  17.166  20.577   4.799  0.0700  0.0386 -0.2418
 4651POPS   GL193776  17.482  20.515   5.099  0.1297 -0.0606 -0.2164
 4651POPS   GL293777  17.638  20.695   5.065  0.1964 -0.1234 -0.2607
 4651POPS   C1A93778  17.511  20.575   5.583 -0.1247  0.1913 -0.0031
 4651POPS   D2A93779  17.452  20.330   5.993  0.0900  0.1190 -0.2860
 4651POPS   C3A93780  17.654  20.021   6.276  0.2396 -0.2700  0.4331
 4651POPS   C4A93781  17.574  19.988   6.749 -0.0159 -0.2203 -0.3432
 4651POPS   C1B93782  17.460  21.060   5.238 -0.1113 -0.0144  0.2458
 4651POPS   C2B93783  17.603  21.308   5.616 -0.1572  0.3045  0.1197
 4651POPS   C3B93784  17.671  21.500   6.066 -0.1831 -0.4481  0.0479
 4651POPS   C4B93785  17.652  21.872   6.344 -0.3572 -0.0142  0.0018
 4652POPS   CNO93786  21.878  20.819   5.387 -0.1127  0.0530 -0.3493
 4652POPS   PO493787  21.630  20.581   5.555 -0.2890  0.2279  0.0235
 4652POPS   GL193788  21.377  20.456   5.893  0.3506  0.0529  0.1147
 4652POPS   GL293789  21.182  20.631   5.844 -0.1650  0.0076  0.0523
 4652POPS   C1A93790  21.416  20.334   6.360  0.0556  0.0315  0.0444
 4652POPS   D2A93791  21.776  20.354   6.661  0.0112  0.0813 -0.1803
 4652POPS   C3A93792  21.508  20.319   7.044 -0.2131 -0.0167 -0.0631
 4652POPS   C4A93793  21.386  20.029   7.395  0.0660 -0.0539 -0.0728
 4652POPS   C1B93794  20.992  20.406   6.199  0.0232 -0.1134  0.1694
 4652POPS   C2B93795  21.010  20.357   6.644  0.0379 -0.2948  0.1407
 4652POPS   C3B93796  20.938  20.481   7.050 -0.0314 -0.1795 -0.2102
 4652POPS   C4B93797  21.163  20.490   7.485  0.3912 -0.0188  0.0166
 4653POPS   CNO93798  28.022  24.479   6.649  0.5456 -0.1307  0.0849
 4653POPS   PO493799  28.293  24.586   6.900 -0.0785 -0.2565 -0.3246
 4653POPS   GL193800  28.409  24.867   7.143  0.1865  0.2115  0.0181
 4653POPS   GL293801  28.554  24.697   7.343  0.2043 -0.1786  0.0364
 4653POPS   C1A93802  28.649  25.191   7.411 -0.3420 -0.0216 -0.0853
 4653POPS   D2A93803  28.663  25.564   7.697 -0.1304 -0.2165 -0.0039
 4653POPS   C3A93804  28.694  26.003   7.523  0.1235 -0.1057  0.2596
 4653POPS   C4A93805  29.023  26.338   7.456  0.0143  0.0552 -0.0130
 4653POPS   C1B93806  28.431  24.833   7.775 -0.0935  0.0626  0.0270
 4653POPS   C2B93807  28.312  25.269   7.851  0.0727  0.1194 -0.2881
 4653POPS   C3B93808  27.993  25.524   8.077  0.1082 -0.1152 -0.0796
 4653POPS   C4B93809  27.656  25.643   8.292  0.1943 -0.0696  0.4014
 4654POPS   CNO93810  24.123  25.868   5.904 -0.5305  0.3573  0.0330
 4654POPS   PO493811  23.884  26.123   6.059 -0.1441  0.1463 -0.3058
 4654POPS   GL193812  23.992  26.441   6.134  0.0402 -0.3112  0.0505
 4654POPS   GL293813  23.787  26.609   6.233  0.1893  0.1653 -0.1328
 4654POPS   C1A93814  24.123  26.626   6.540  0.0294 -0.0307 -0.1743
 4654POPS   D2A93815  24.096  26.453   6.947  0.1840  0.3353  0.3613
 4654POPS   C3A93816  24.212  26.637   7.371 -0.1974 -0.2060 -0.3442
 4654POPS   C4A93817  24.137  26.637   7.811 -0.0516  0.0419  0.0732
 4654POPS   C1B93818  23.638  26.748   6.671  0.0454 -0.1079 -0.2548
 4654POPS   C2B93819  23.757  26.792   7.167  0.0131  0.0686  0.0235
 4654POPS   C3B93820  23.679  26.701   7.610 -0.2323  0.0722 -0.2548
 4654POPS   C4B93821  23.503  26.451   7.931 -0.0107 -0.2631 -0.2155
 4655POPS   CNO93822  16.886  24.757   4.189  0.2357  0.0359 -0.0109
 4655POPS   PO493823  16.923  24.781   4.578 -0.2083  0.2709  0.0178
 4655POPS   GL193824  17.025  25.052   4.755  0.0318  0.3153  0.1322
 4655POPS   GL293825  17.271  25.027   4.931 -0.3666  0.0928 -0.0304
 4655POPS   C1A93826  17.227  25.470   4.812 -0.1286  0.2678  0.3545
 4655POPS   D2A93827  17.372  25.616   5.251 -0.2573 -0.0505 -0.0639
 4655POPS   C3A93828  17.264  25.432   5.662 -0.3030  0.0039  0.0075
 4655POPS   C4A93829  17.259  25.354   6.105 -0.0811  0.1233 -0.3350
 4655POPS   C1B93830  17.554  25.182   5.291 -0.0955 -0.0395  0.0822
 4655POPS   C2B93831  17.688  25.136   5.765  0.0886 -0.2233 -0.1751
 4655POPS   C3B93832  17.796  25.283   6.191 -0.0495 -0.3359 -0.0119
 4655POPS   C4B93833  17.990  25.442   6.545  0.0518  0.4005 -0.3212
 4656POPS   CNO93834  24.313  25.303   6.387 -0.0114 -0.1923 -0.1814
 4656POPS   PO493835  24.208  25.176   6.729  0.0168 -0.0737 -0.1287
 4656POPS   GL193836  23.962  25.357   7.051 -0.0613 -0.0457 -0.0748
 4656POPS   GL293837  24.068  25.219   7.267 -0.0447  0.0409 -0.1079
 4656POPS   C1A93838  23.847  25.781   7.239 -0.1648  0.3719 -0.0321
 4656POPS   D2A93839  23.832  26.211   7.394  0.0683  0.3418  0.0748
 4656POPS   C3A93840  23.905  26.172   7.807 -0.0713  0.2023  0.0120
 4656POPS   C4A93841  23.973  26.109   8.267 -0.0203  0.1830  0.0353
 4656POPS   C1B93842  24.267  25.205   7.726  0.0916 -0.0183 -0.2227
 4656POPS   C2B93843  24.216  25.147   8.169  0.1929 -0.1403 -0.0374
 4656POPS   C3B93844  23.896  25.155   8.502  0.0626  0.0187 -0.1190
 4656POPS   C4B93845  23.701  24.987   8.888  0.3976 -0.5318 -0.2164
 4657POPS   CNO93846  17.345  21.411   4.714  0.0050 -0.1749  0.1193
 4657POPS   PO493847  17.171  21.581   4.981  0.1575  0.0279 -0.1491
 4657POPS   GL193848  17.225  21.462   5.352 -0.1605 -0.1845 -0.0187
 4657POPS   GL293849  17.177  21.743   5.484  0.2351  0.1249  0.1313
 4657POPS   C1A93850  17.103  21.205   5.723  0.2614 -0.0892  0.2444
 4657POPS   D2A93851  17.375  20.917   5.994  0.2773 -0.1474  0.1961
 4657POPS   C3A93852  17.441  20.713   6.399 -0.2004 -0.1365  0.0052
 4657POPS   C4A93853  17.500  20.524   6.837  0.0778 -0.2721 -0.0266
 4657POPS   C1B93854  17.446  21.868   5.834  0.1405  0.0421 -0.1643
 4657POPS   C2B93855  17.398  22.241   6.121  0.0179  0.0163  0.0419
 4657POPS   C3B93856  17.343  22.379   6.577  0.0799  0.1727 -0.0580
 4657POPS   C4B93857  17.229  22.279   7.029 -0.0141 -0.2933  0.0694
 4658POPS   CNO93858  26.630  22.969  11.665 -0.0577 -0.1036  0.0034
 4658POPS   PO493859  26.761  23.272  11.516 -0.3228 -0.0258 -0.1775
 4658POPS   GL193860  26.835  23.646  11.683  0.0322  0.2212  0.0444
 4658POPS   GL293861  26.966  23.732  11.381 -0.0780  0.2281 -0.1231
 4658POPS   C1A93862  26.648  24.056  11.598  0.1527  0.4365  0.1200
 4658POPS   D2A93863  26.427  24.409  11.468 -0.0781 -0.0260  0.1648
 4658POPS   C3A93864  25.952  24.478  11.489 -0.1521  0.0713  0.2902
 4658POPS   C4A93865  25.652  24.818  11.366  0.2311 -0.2683 -0.1135
 4658POPS   C1B93866  27.185  24.038  11.669 -0.1119 -0.1454 -0.2386
 4658POPS   C2B93867  27.340  24.417  11.814 -0.0644 -0.2659  0.1074
 4658POPS   C3B93868  27.676  24.740  11.674  0.3512 -0.1362  0.0286
 4658POPS   C4B93869  27.943  25.096  11.867  0.0025  0.1786 -0.1025
 4659POPS   CNO93870  20.459  26.976   4.541 -0.0735  0.2091 -0.0861
 4659POPS   PO493871  20.207  27.018   4.222 -0.2223  0.0979 -0.1043
 4659POPS   GL193872  19.858  26.960   4.463  0.1719 -0.0439 -0.0975
 4659POPS   GL293873  19.896  26.827   4.672 -0.3894 -0.0778  0.0911
 4659POPS   C1A93874  19.738  27.340   4.677  0.2031 -0.1565  0.1651
 4659POPS   D2A93875  19.337  27.488   4.836  0.2897  0.0448  0.1516
 4659POPS   C3A93876  19.308  27.533   5.308  0.1869 -0.2745 -0.0556
 4659POPS   C4A93877  19.412  27.422   5.757 -0.0799  0.0138  0.2073
 4659POPS   C1B93878  20.218  26.689   5.002  0.0445  0.0795 -0.0109
 4659POPS   C2B93879  20.458  26.426   5.307  0.3431  0.1394 -0.1492
 4659POPS   C3B93880  20.445  26.474   5.771  0.0349  0.1523 -0.0403
 4659POPS   C4B93881  20.473  26.541   6.243  0.0483  0.0407 -0.0898
 4660POPS   CNO93882  26.882  23.319  11.016 -0.0597 -0.0153 -0.0411
 4660POPS   PO493883  26.835  23.680  10.876 -0.2297  0.1384 -0.1685
 4660POPS   GL193884  26.673  23.963  11.009  0.2949 -0.0722 -0.0321
 4660POPS   GL293885  26.417  24.062  11.088 -0.0148 -0.0746  0.3090
 4660POPS   C1A93886  27.002  24.239  11.128  0.0520 -0.1745 -0.2067
 4660POPS   D2A93887  27.182  24.603  11.382 -0.2172  0.4522  0.3098
 4660POPS   C3A93888  27.261  24.996  11.267  0.0405 -0.0587  0.2044
 4660POPS   C4A93889  27.319  25.361  11.557  0.0920 -0.1104  0.3611
 4660POPS   C1B93890  26.579  24.503  10.990 -0.1335 -0.0816 -0.2196
 4660POPS   C2B93891  26.959  24.736  10.916 -0.0939  0.2204  0.1048
 4660POPS   C3B93892  27.094  25.045  10.566  0.5940 -0.2347  0.1544
 4660POPS   C4B93893  27.181  25.266  10.192 -0.3155  0.2103  0.1986
 4661POPS   CNO93894  24.236  29.427   4.629  0.0345  0.2087  0.1143
 4661POPS   PO493895  24.213  29.725   4.869  0.1725 -0.2347  0.3556
 4661POPS   GL193896  23.988  29.749   5.179 -0.2358  0.0261  0.1810
 4661POPS   GL293897  23.775  30.009   5.231 -0.3370  0.1438  0.3824
 4661POPS   C1A93898  24.167  29.663   5.575 -0.0042 -0.0326 -0.1778
 4661POPS   D2A93899  24.601  29.663   5.684  0.0463  0.2105 -0.2881
 4661POPS   C3A93900  24.795  29.535   6.099 -0.0292  0.2366 -0.0481
 4661POPS   C4A93901  24.787  29.168   6.406 -0.0657 -0.1214  0.1099
 4661POPS   C1B93902  23.816  30.058   5.709 -0.1147 -0.0118  0.1335
 4661POPS   C2B93903  23.694  30.003   6.149  0.0929 -0.0222 -0.2950
 4661POPS   C3B93904  23.707  30.222   6.547  0.1057  0.0545  0.1817
 4661POPS   C4B93905  23.944  30.533   6.718 -0.2188  0.0887 -0.4558
 4662POPS   CNO93906  23.565  31.114   4.343 -0.1212 -0.1107  0.3496
 4662POPS   PO493907  23.631  30.853   4.558  0.1744 -0.3980 -0.1895
 4662POPS   GL193908  23.555  30.772   4.954  0.4770  0.4841 -0.2483
 4662POPS   GL293909  23.265  30.811   4.914  0.1095  0.1239 -0.3225
 4662POPS   C1A93910  23.532  30.465   5.294 -0.1721 -0.0986  0.0750
 4662POPS   D2A93911  23.439  30.416   5.793 -0.0364  0.0394  0.0094
 4662POPS   C3A93912  23.745  30.537   6.139  0.0126  0.0063 -0.3380
 4662POPS   C4A93913  24.042  30.863   6.342 -0.1684  0.0783  0.2070
 4662POPS   C1B93914  23.089  30.926   5.338 -0.1327  0.0212 -0.1463
 4662POPS   C2B93915  23.037  30.745   5.767 -0.0419  0.2942  0.2870
 4662POPS   C3B93916  23.257  30.702   6.162  0.1513 -0.0365 -0.2016
 4662POPS   C4B93917  23.308  30.604   6.596 -0.3369 -0.3456  0.3047
 4663POPS   CNO93918  28.768   0.166   3.891  0.0716 -0.1286  0.2773
 4663POPS   PO493919  28.668   0.456   4.116 -0.1434 -0.1457 -0.0422
 4663POPS   GL193920  28.876   0.473   4.486  0.1454  0.1191 -0.1683
 4663POPS   GL293921  28.786   0.719   4.604 -0.1180  0.2348 -0.1781
 4663POPS   C1A93922  28.918   0.279   4.883 -0.2550 -0.1633 -0.0570
 4663POPS   D2A93923  28.850   0.004   5.250  0.2916 -0.1681 -0.2785
 4663POPS   C3A93924  28.672   0.107   5.671 -0.3809 -0.3692 -0.0664
 4663POPS   C4A93925  28.388   0.278   6.015  0.0611 -0.5170 -0.1580
 4663POPS   C1B93926  28.601   0.653   5.056  0.0045 -0.1298 -0.0096
 4663POPS   C2B93927  28.814   0.574   5.457 -0.2105  0.2545  0.0202
 4663POPS   C3B93928  28.991   0.439   5.822 -0.1308 -0.0132  0.2921
 4663POPS   C4B93929  28.863   0.264   6.249 -0.1181 -0.1647 -0.3905
 4664POPS   CNO93930  29.042  27.240   4.777 -0.1638 -0.2189 -0.2564
 4664POPS   PO493931  29.244  27.116   5.126  0.2224  0.1701 -0.0197
 4664POPS   GL193932  29.560  27.286   5.324 -0.1060 -0.3117  0.1071
 4664POPS   GL293933  29.773  27.354   5.098  0.0872 -0.0196 -0.0478
 4664POPS   C1A93934  29.550  27.400   5.760 -0.0199 -0.0867 -0.1266
 4664POPS   D2A93935  29.741  27.431   6.220  0.0136 -0.0583  0.0051
 4664POPS   C3A93936  29.640  27.504   6.664 -0.1306  0.2137  0.0736
 4664POPS   C4A93937  29.670  27.757   6.989  0.4134 -0.0490 -0.1410
 4664POPS   C1B93938  29.983  27.293   5.478  0.0626  0.0417  0.0998
 4664POPS   C2B93939  30.129  27.509   5.806  0.0622 -0.2728 -0.2059
 4664POPS   C3B93940  30.145  27.808   6.162 -0.2245 -0.0928 -0.1537
 4664POPS   C4B93941  30.241  27.943   6.562  0.1415 -0.2484 -0.0406
 4665POPS   CNO93942  27.728  23.052   8.543  0.0913  0.0783 -0.2261
 4665POPS   PO493943  28.055  22.887   8.708 -0.2001 -0.4945 -0.3301
 4665POPS   GL193944  28.240  23.036   8.916 -0.0669  0.2940  0.3134
 4665POPS   GL293945  28.232  22.968   9.237  0.1765 -0.0646  0.0195
 4665POPS   C1A93946  28.685  23.082   8.972 -0.2573  0.0690  0.1967
 4665POPS   D2A93947  29.144  23.059   8.971 -0.0395  0.3028  0.1788
 4665POPS   C3A93948  29.515  23.216   9.101 -0.0730 -0.1159  0.0731
 4665POPS   C4A93949  29.623  23.587   9.436  0.2224 -0.0503 -0.0725
 4665POPS   C1B93950  28.538  23.124   9.402 -0.0473  0.1205 -0.0888
 4665POPS   C2B93951  28.757  23.080   9.799 -0.0542 -0.2869  0.0863
 4665POPS   C3B93952  28.973  23.215  10.171  0.0918  0.4142 -0.0054
 4665POPS   C4B93953  29.230  22.939  10.433 -0.0233  0.1570 -0.0750
 4666POPS   CNO93954  24.430  21.995   8.594 -0.1998 -0.0241 -0.4427
 4666POPS   PO493955  24.713  21.840   8.782  0.0858 -0.0230  0.0048
 4666POPS   GL193956  24.475  22.031   9.135 -0.2580  0.3321 -0.3414
 4666POPS   GL293957  24.543  21.912   9.479 -0.1862 -0.0499  0.4674
 4666POPS   C1A93958  24.077  21.775   9.329  0.1404 -0.0768 -0.2087
 4666POPS   D2A93959  23.785  21.398   9.434 -0.1382  0.1661  0.1036
 4666POPS   C3A93960  23.473  21.087   9.349 -0.0353 -0.0836 -0.0509
 4666POPS   C4A93961  22.997  21.171   9.379  0.1505 -0.0212 -0.0173
 4666POPS   C1B93962  24.302  21.775   9.874 -0.0997 -0.0672 -0.0172
 4666POPS   C2B93963  23.868  21.806  10.014  0.1290 -0.1379  0.0248
 4666POPS   C3B93964  23.597  22.165  10.245 -0.0886 -0.0881  0.4985
 4666POPS   C4B93965  23.344  22.525  10.060 -0.0414 -0.0962 -0.0082
 4667POPS   CNO93966  18.030  18.015   4.644  0.1636  0.0620 -0.1782
 4667POPS   PO493967  18.335  17.835   4.484 -0.2893  0.0173  0.2538
 4667POPS   GL193968  18.311  17.477   4.746  0.1739  0.2927 -0.0593
 4667POPS   GL293969  18.049  17.545   4.885  0.1455  0.2576  0.1264
 4667POPS   C1A93970  18.601  17.163   4.917  0.1026 -0.2811 -0.0473
 4667POPS   D2A93971  18.632  17.136   5.410 -0.0863 -0.2973 -0.0441
 4667POPS   C3A93972  18.294  16.905   5.587  0.0105  0.1281 -0.3364
 4667POPS   C4A93973  18.013  16.683   5.868 -0.1601 -0.3007 -0.1038
 4667POPS   C1B93974  17.927  17.528   5.352 -0.0317 -0.0599 -0.1785
 4667POPS   C2B93975  17.642  17.419   5.660  0.0982 -0.0231  0.2556
 4667POPS   C3B93976  17.420  17.381   6.101 -0.1263  0.0226  0.0194
 4667POPS   C4B93977  17.046  17.373   6.348  0.1207  0.2179  0.0383
 4668POPS   CNO93978  28.788  28.785   4.081  0.0670  0.1018 -0.2445
 4668POPS   PO493979  28.832  28.792   4.487  0.1688  0.2738  0.1344
 4668POPS   GL193980  28.781  28.755   4.931 -0.0712 -0.2685  0.1604
 4668POPS   GL293981  29.033  28.880   5.033 -0.0464  0.1870  0.0290
 4668POPS   C1A93982  28.789  28.474   5.317 -0.0701 -0.1406  0.0189
 4668POPS   D2A93983  28.885  28.494   5.699  0.3567 -0.4226 -0.3541
 4668POPS   C3A93984  28.956  28.605   6.129 -0.0964  0.1459 -0.1889
 4668POPS   C4A93985  28.787  28.670   6.586 -0.0184  0.1452 -0.0149
 4668POPS   C1B93986  29.123  29.288   5.334 -0.0250  0.1745 -0.3853
 4668POPS   C2B93987  29.346  29.559   5.723  0.0792 -0.1040  0.0141
 4668POPS   C3B93988  29.412  29.384   6.136 -0.0681  0.2473 -0.2319
 4668POPS   C4B93989  29.332  29.471   6.585 -0.0827  0.1917 -0.0703
 4669POPS   CNO93990  30.858  24.894   5.375 -0.0915  0.1298 -0.1158
 4669POPS   PO493991  31.172  25.097   5.503  0.0521 -0.0092 -0.1511
 4669POPS   GL193992  31.108  25.271   5.908 -0.2448  0.3536  0.2223
 4669POPS   GL293993  31.249  25.002   5.975 -0.4728 -0.0653  0.0664
 4669POPS   C1A93994  31.318  25.477   6.256 -0.1158 -0.2469  0.5852
 4669POPS   D2A93995  31.395  25.676   6.685 -0.3102 -0.0286  0.0046
 4669POPS   C3A93996  31.738  25.799   6.955  0.1646 -0.0590  0.3546
 4669POPS   C4A93997  31.793  26.231   7.135 -0.0288  0.1593  0.3305
 4669POPS   C1B93998  30.966  25.087   6.331 -0.1821 -0.2393 -0.1397
 4669POPS   C2B93999  30.758  24.995   6.733  0.1966 -0.2153 -0.0700
 4669POPS   C3B94000  30.631  25.137   7.135 -0.2270  0.1228  0.1374
 4669POPS   C4B94001  30.570  25.341   7.616  0.1402 -0.1205  0.3911
 4670POPS   CNO94002  25.732  23.645   9.019 -0.1483  0.2476  0.0275
 4670POPS   PO494003  25.386  23.746   8.888 -0.2464 -0.0722  0.0618
 4670POPS   GL194004  25.138  24.045   8.979 -0.3639 -0.2002  0.1619
 4670POPS   GL294005  25.007  24.015   9.232 -0.2592  0.1172  0.0763
 4670POPS   C1A94006  25.296  24.388   9.328  0.1530  0.1527  0.1995
 4670POPS   D2A94007  25.368  24.785   9.507 -0.2313 -0.1895 -0.0834
 4670POPS   C3A94008  25.518  25.201   9.781  0.1696 -0.1185  0.0165
 4670POPS   C4A94009  25.824  25.541   9.994 -0.0662  0.1704 -0.2746
 4670POPS   C1B94010  24.576  24.193   9.292  0.1535  0.1007  0.1829
 4670POPS   C2B94011  24.228  24.357   9.531 -0.0529 -0.3492 -0.0254
 4670POPS   C3B94012  23.972  24.652   9.796 -0.0075 -0.1914 -0.0156
 4670POPS   C4B94013  23.564  24.677   9.678  0.0347  0.1430  0.0184
 4671POPS   CNO94014  26.855  23.452   9.229  0.2076 -0.0861 -0.0086
 4671POPS   PO494015  26.789  23.853   9.120  0.1792  0.1797  0.2232
 4671POPS   GL194016  26.794  24.174   9.343 -0.0410  0.1278  0.2152
 4671POPS   GL294017  26.573  24.186   9.553  0.1255 -0.0973 -0.1074
 4671POPS   C1A94018  26.683  24.622   9.275  0.0459  0.0638 -0.1051
 4671POPS   D2A94019  26.737  25.060   9.390  0.0282 -0.2487 -0.1085
 4671POPS   C3A94020  26.833  24.948   9.835  0.2047  0.0002 -0.0305
 4671POPS   C4A94021  26.933  24.602  10.073 -0.2054 -0.2885  0.2179
 4671POPS   C1B94022  26.403  24.417   9.970  0.0866 -0.1852  0.1858
 4671POPS   C2B94023  26.244  24.682  10.379 -0.1058 -0.1058  0.4788
 4671POPS   C3B94024  25.781  24.886  10.480 -0.0695  0.1903  0.1606
 4671POPS   C4B94025  25.623  25.312  10.334  0.2814 -0.0044 -0.2406
 4672POPS   CNO94026  21.783  23.798  13.023  0.0568 -0.1433 -0.0713
 4672POPS   PO494027  21.995  23.487  13.024  0.1984 -0.2072  0.1610
 4672POPS   GL194028  22.319  23.338  13.213 -0.2165  0.1366  0.1117
 4672POPS   GL294029  22.589  23.454  13.265  0.1536  0.1109 -0.1665
 4672POPS   C1A94030  22.598  22.991  13.326  0.0630  0.0964  0.1428
 4672POPS   D2A94031  23.008  22.813  13.501 -0.2587  0.3053  0.0603
 4672POPS   C3A94032  23.459  23.028  13.389  0.4328 -0.2455  0.1017
 4672POPS   C4A94033  23.866  23.078  13.580  0.2202 -0.0764 -0.1846
 4672POPS   C1B94034  22.999  23.392  13.429 -0.0605  0.1868 -0.1378
 4672POPS   C2B94035  23.245  23.211  13.808 -0.0378  0.2970  0.0126
 4672POPS   C3B94036  23.478  23.222  14.215 -0.0983  0.0935  0.0184
 4672POPS   C4B94037  23.538  22.993  14.667 -0.0083 -0.1517  0.0427
 4673POPS   CNO94038  19.206  19.408  15.592 -0.0535 -0.0398  0.0511
 4673POPS   PO494039  19.058  19.076  15.692  0.0664 -0.2617  0.3231
 4673POPS   GL194040  19.182  19.115  16.118  0.3547  0.0717 -0.0649
 4673POPS   GL294041  19.191  19.382  16.159  0.3276 -0.1025  0.3319
 4673POPS   C1A94042  19.051  18.937  16.530  0.3175  0.0445 -0.2374
 4673POPS   D2A94043  19.031  18.921  16.989 -0.0020  0.2172  0.2205
 4673POPS   C3A94044  19.206  18.599  17.203 -0.2313 -0.3828 -0.2606
 4673POPS   C4A94045  19.414  18.328  17.573 -0.3464 -0.2153  0.4485
 4673POPS   C1B94046  19.142  19.404  16.626 -0.1136  0.3315  0.1689
 4673POPS   C2B94047  19.103  19.379  17.065  0.0506  0.0248 -0.1691
 4673POPS   C3B94048  19.113  19.462  17.522 -0.2596  0.2004  0.1404
 4673POPS   C4B94049  19.071  19.768  17.837  0.1890  0.1964  0.3116
 4674POPS   CNO94050  27.388  17.327  12.764 -0.0269 -0.0393 -0.2487
 4674POPS   PO494051  27.484  17.638  12.576 -0.1446 -0.1785 -0.1028
 4674POPS   GL194052  27.365  17.914  12.843  0.2556 -0.2357 -0.3464
 4674POPS   GL294053  27.630  17.964  12.910 -0.1471 -0.2041  0.0195
 4674POPS   C1A94054  27.416  18.366  12.663  0.0298 -0.0566  0.2441
 4674POPS   D2A94055  27.268  18.709  13.004  0.0735 -0.2061 -0.3755
 4674POPS   C3A94056  26.830  18.795  13.111  0.0931  0.2996  0.3196
 4674POPS   C4A94057  26.359  18.911  13.024 -0.0136  0.1307 -0.1713
 4674POPS   C1B94058  27.552  18.270  13.193 -0.0566  0.0165 -0.3851
 4674POPS   C2B94059  27.271  18.521  13.485 -0.2719 -0.0850  0.2473
 4674POPS   C3B94060  27.011  18.846  13.611  0.0638 -0.4886  0.0188
 4674POPS   C4B94061  26.901  19.208  13.884 -0.2950 -0.3233  0.0891
 4675POPS   CNO94062  27.484  30.435  15.869 -0.1139 -0.2508 -0.0414
 4675POPS   PO494063  27.279  30.671  16.070 -0.1630 -0.0737  0.3418
 4675POPS   GL194064  27.097  30.698  16.414 -0.0483 -0.3336 -0.0611
 4675POPS   GL294065  26.907  30.564  16.637  0.1497  0.0578  0.2778
 4675POPS   C1A94066  27.121  31.055  16.738 -0.0080 -0.1003 -0.3765
 4675POPS   D2A94067  27.147  31.379  17.061  0.0775 -0.0389  0.2266
 4675POPS   C3A94068  27.077  31.275  17.473 -0.3168 -0.1038 -0.2132
 4675POPS   C4A94069  26.814  31.267  17.865 -0.1536 -0.1547 -0.2229
 4675POPS   C1B94070  27.303  30.607  16.886  0.0787  0.1444 -0.2244
 4675POPS   C2B94071  27.251  30.777  17.333  0.2033 -0.0942 -0.2675
 4675POPS   C3B94072  27.395  30.937  17.726  0.2204 -0.0293  0.0810
 4675POPS   C4B94073  27.388  31.374  17.811  0.1734  0.3652  0.2029
 4676POPS   CNO94074  18.443  28.869  16.099 -0.1139  0.1154 -0.0708
 4676POPS   PO494075  18.567  28.866  16.448 -0.0621 -0.1550 -0.2110
 4676POPS   GL194076  18.319  28.817  16.723  0.0172  0.2122 -0.3024
 4676POPS   GL294077  18.387  28.609  16.828 -0.2377 -0.1906 -0.0412
 4676POPS   C1A94078  18.170  29.033  17.102 -0.2410  0.1694 -0.2316
 4676POPS   D2A94079  18.041  29.406  17.423  0.0753  0.0785 -0.1153
 4676POPS   C3A94080  18.181  29.832  17.565  0.2655  0.0198 -0.2110
 4676POPS   C4A94081  18.335  30.256  17.757 -0.2745 -0.2114 -0.0920
 4676POPS   C1B94082  18.580  28.406  17.170 -0.2571 -0.2682  0.1348
 4676POPS   C2B94083  18.719  28.354  17.614  0.2108 -0.1408  0.1987
 4676POPS   C3B94084  18.592  28.040  17.895  0.0001 -0.2156 -0.0214
 4676POPS   C4B94085  18.426  27.908  18.264 -0.2736  0.0052 -0.1525
 4677POPS   CNO94086  21.653  32.037  15.604 -0.1877 -0.1555  0.0584
 4677POPS   PO494087  21.786  31.712  15.739  0.1194 -0.1944 -0.0830
 4677POPS   GL194088  21.943  31.836  16.042 -0.2062 -0.2870  0.1555
 4677POPS   GL294089  21.844  31.677  16.270  0.0664 -0.0338 -0.2542
 4677POPS   C1A94090  21.962  32.142  16.395  0.0701 -0.1452 -0.0729
 4677POPS   D2A94091  22.126  32.145  16.799 -0.0816  0.1247 -0.2423
 4677POPS   C3A94092  22.482  32.346  17.065  0.1253 -0.1080  0.2521
 4677POPS   C4A94093  22.748  32.637  17.288 -0.0643 -0.1013  0.2254
 4677POPS   C1B94094  21.946  31.702  16.699 -0.0437  0.0417  0.0160
 4677POPS   C2B94095  21.887  31.826  17.127 -0.1818 -0.1115 -0.1495
 4677POPS   C3B94096  21.734  31.930  17.582  0.0699  0.4232  0.0769
 4677POPS   C4B94097  21.773  32.216  17.947 -0.0574  0.0352 -0.0056
 4678POPS   CNO94098  22.775  26.097  11.400 -0.1204  0.1740 -0.0027
 4678POPS   PO494099  22.885  26.477  11.304 -0.2415  0.0894  0.2852
 4678POPS   GL194100  23.222  26.391  11.131  0.0761 -0.0105 -0.2709
 4678POPS   GL294101  23.103  26.132  10.980  0.1541  0.0963  0.1489
 4678POPS   C1A94102  23.604  26.137  11.007  0.0420 -0.1121 -0.0989
 4678POPS   D2A94103  23.863  25.744  10.956 -0.2333 -0.0866 -0.0033
 4678POPS   C3A94104  24.116  25.315  11.007  0.2666  0.1309 -0.0116
 4678POPS   C4A94105  24.070  24.855  11.076 -0.4080  0.2352 -0.0585
 4678POPS   C1B94106  23.332  25.772  10.767  0.0159  0.1381  0.0714
 4678POPS   C2B94107  23.556  25.351  10.766  0.3319  0.2274 -0.0194
 4678POPS   C3B94108  23.676  24.897  10.795 -0.4536 -0.0196  0.0197
 4678POPS   C4B94109  23.603  24.472  10.679 -0.0205 -0.0851 -0.0230
 4679POPS   CNO94110  31.254  25.851   9.662  0.0065  0.0898 -0.1381
 4679POPS   PO494111  31.038  26.047   9.860 -0.0044  0.2819  0.2019
 4679POPS   GL194112  30.693  25.997   9.776  0.0898 -0.1297  0.0601
 4679POPS   GL294113  30.731  25.996   9.464  0.2407 -0.3426  0.1133
 4679POPS   C1A94114  30.488  25.569   9.675  0.2365  0.3547  0.2381
 4679POPS   D2A94115  30.416  25.387   9.260  0.0611 -0.1490 -0.0138
 4679POPS   C3A94116  30.031  25.075   9.243 -0.0901 -0.0053 -0.3076
 4679POPS   C4A94117  29.755  24.817   9.076  0.3120  0.0248  0.3799
 4679POPS   C1B94118  30.298  25.856   9.314  0.3861 -0.0955  0.0057
 4679POPS   C2B94119  30.006  25.602   9.043  0.0260  0.3221 -0.1293
 4679POPS   C3B94120  29.902  25.224   8.792  0.1183  0.1685  0.0195
 4679POPS   C4B94121  29.887  25.072   8.393 -0.0092 -0.0647 -0.0301
 4680POPS   CNO94122  28.234  30.012  15.418  0.2166 -0.2271 -0.1323
 4680POPS   PO494123  28.054  30.008  15.767  0.0950 -0.1941  0.0179
 4680POPS   GL194124  28.207  30.009  16.080 -0.0056 -0.0529  0.1195
 4680POPS   GL294125  28.534  30.115  16.179  0.1738 -0.0699  0.0953
 4680POPS   C1A94126  28.221  29.904  16.546  0.1331 -0.1239 -0.1408
 4680POPS   D2A94127  27.907  29.826  16.869 -0.1994 -0.1082  0.2143
 4680POPS   C3A94128  27.856  29.833  17.345 -0.0379 -0.0314  0.0657
 4680POPS   C4A94129  28.059  29.970  17.726 -0.0934 -0.3530 -0.2286
 4680POPS   C1B94130  28.683  30.105  16.656  0.0587 -0.0977 -0.0562
 4680POPS   C2B94131  28.727  30.276  17.104  0.0067  0.0446  0.0627
 4680POPS   C3B94132  28.734  30.045  17.478 -0.1566  0.0305 -0.5560
 4680POPS   C4B94133  28.524  30.095  17.878 -0.1895 -0.2105 -0.0931
 4681POPS   CNO94134  23.083  26.566  15.032  0.1872 -0.2040 -0.2746
 4681POPS   PO494135  22.916  26.502  15.418  0.0049 -0.0379  0.2564
 4681POPS   GL194136  23.123  26.272  15.752  0.2464  0.1779 -0.1319
 4681POPS   GL294137  22.892  26.109  15.865 -0.2281  0.0808  0.0130
 4681POPS   C1A94138  23.520  26.297  15.943  0.2214  0.2584 -0.2346
 4681POPS   D2A94139  23.936  26.257  15.708 -0.0637 -0.1948  0.4230
 4681POPS   C3A94140  24.159  25.870  15.872  0.1596 -0.1238  0.1291
 4681POPS   C4A94141  24.516  25.775  16.102 -0.0849  0.0199 -0.0373
 4681POPS   C1B94142  23.223  25.828  15.936  0.2663 -0.0463 -0.1725
 4681POPS   C2B94143  23.466  25.441  16.197  0.1091 -0.0300 -0.1076
 4681POPS   C3B94144  23.789  25.386  16.501 -0.0766  0.1377 -0.2184
 4681POPS   C4B94145  24.229  25.289  16.679  0.0021 -0.0054 -0.1260
 4682POPS   CNO94146  18.445  18.029  16.434  0.0080 -0.1607  0.0775
 4682POPS   PO494147  18.320  17.882  16.103 -0.1520 -0.0011 -0.0266
 4682POPS   GL194148  18.038  17.820  16.422 -0.0693 -0.1579  0.0008
 4682POPS   GL294149  18.052  17.582  16.488 -0.1476 -0.1664  0.0827
 4682POPS   C1A94150  17.801  17.904  16.808  0.1443  0.0540 -0.0389
 4682POPS   D2A94151  17.474  18.004  17.060 -0.3651  0.3493 -0.0803
 4682POPS   C3A94152  17.441  17.700  17.418  0.0550  0.1962  0.5875
 4682POPS   C4A94153  17.374  17.550  17.844  0.0744 -0.1943  0.0596
 4682POPS   C1B94154  18.255  17.584  16.894 -0.1343  0.1915 -0.0840
 4682POPS   C2B94155  18.461  17.686  17.321 -0.6326  0.0068  0.2176
 4682POPS   C3B94156  18.544  17.476  17.702 -0.0124 -0.1707  0.1561
 4682POPS   C4B94157  18.661  17.234  18.137  0.3112  0.3524  0.1429
 4683POPS   CNO94158  31.089  26.774  15.560  0.1274 -0.1832  0.1128
 4683POPS   PO494159  31.231  26.508  15.359  0.2559  0.3620  0.2390
 4683POPS   GL194160  31.102  26.301  15.650 -0.2870  0.1933  0.3282
 4683POPS   GL294161  30.955  26.029  15.685  0.1783  0.3936  0.1505
 4683POPS   C1A94162  31.075  26.337  16.102  0.2941  0.3102 -0.2416
 4683POPS   D2A94163  31.003  26.655  16.461  0.2321 -0.1116 -0.1388
 4683POPS   C3A94164  30.607  26.607  16.714 -0.0440 -0.0131  0.0608
 4683POPS   C4A94165  30.511  26.332  17.019 -0.1527 -0.1528  0.1378
 4683POPS   C1B94166  30.834  25.934  16.130  0.2749  0.3182 -0.1987
 4683POPS   C2B94167  30.545  25.781  16.452 -0.1623 -0.1600 -0.1669
 4683POPS   C3B94168  30.290  25.808  16.887  0.0781  0.0017  0.3688
 4683POPS   C4B94169  30.137  26.079  17.296 -0.3017  0.1205  0.3689
 4684POPS   CNO94170  19.218  29.233  16.640  0.0845  0.0356 -0.0001
 4684POPS   PO494171  19.094  29.282  16.995 -0.2245  0.2362  0.1931
 4684POPS   GL194172  18.935  29.370  17.375  0.0624 -0.2195  0.0880
 4684POPS   GL294173  19.047  29.181  17.466 -0.0678  0.0369 -0.0544
 4684POPS   C1A94174  19.079  29.615  17.672  0.1290  0.0750 -0.4282
 4684POPS   D2A94175  19.163  29.678  18.134 -0.0662  0.0846 -0.0427
 4684POPS   C3A94176  19.475  29.561  18.467 -0.2813  0.5913 -0.3982
 4684POPS   C4A94177  19.826  29.424  18.736  0.0481  0.2375  0.4104
 4684POPS   C1B94178  18.965  29.221  17.933  0.0066  0.1932 -0.1911
 4684POPS   C2B94179  19.132  29.181  18.322  0.0414  0.3420 -0.0480
 4684POPS   C3B94180  19.362  29.004  18.684  0.0314 -0.3099 -0.1970
 4684POPS   C4B94181  19.610  28.613  18.776  0.1448  0.0505  0.2341
 4685POPS   CNO94182  31.424  24.096  11.041 -0.0378 -0.0692 -0.2776
 4685POPS   PO494183  31.139  24.241  10.813 -0.1456 -0.0801  0.2575
 4685POPS   GL194184  30.782  24.126  10.534 -0.1206  0.1749 -0.0391
 4685POPS   GL294185  30.980  24.063  10.276 -0.0152  0.0058  0.2525
 4685POPS   C1A94186  30.434  24.325  10.740 -0.1269  0.1177  0.0903
 4685POPS   D2A94187  30.011  24.314  10.583  0.0423 -0.1301  0.0393
 4685POPS   C3A94188  29.588  24.259  10.824  0.1420  0.1724 -0.0063
 4685POPS   C4A94189  29.094  24.335  10.735  0.2516  0.1355  0.1103
 4685POPS   C1B94190  30.677  23.739  10.118  0.1451  0.0192  0.1882
 4685POPS   C2B94191  30.258  23.579  10.068 -0.1574  0.0089 -0.1673
 4685POPS   C3B94192  29.844  23.664   9.837  0.1472 -0.2214 -0.2816
 4685POPS   C4B94193  29.464  23.939   9.866 -0.1198  0.3071 -0.0708
 4686POPS   CNO94194  19.928  21.403  15.046  0.2593  0.2289 -0.0289
 4686POPS   PO494195  19.833  21.496  15.379 -0.0796 -0.1758 -0.3849
 4686POPS   GL194196  20.192  21.495  15.558 -0.1033  0.2284 -0.0344
 4686POPS   GL294197  20.288  21.245  15.730 -0.1114  0.0090 -0.2585
 4686POPS   C1A94198  20.623  21.631  15.659 -0.0971  0.1171  0.0436
 4686POPS   D2A94199  20.994  21.531  15.958  0.0831  0.1037  0.4218
 4686POPS   C3A94200  20.825  21.494  16.342  0.0018 -0.2109 -0.2303
 4686POPS   C4A94201  21.079  21.652  16.723  0.3034  0.0617  0.1978
 4686POPS   C1B94202  20.478  21.037  16.073  0.1196  0.0876  0.0042
 4686POPS   C2B94203  20.767  20.948  16.475 -0.1004  0.3218  0.3255
 4686POPS   C3B94204  20.926  21.115  16.863  0.0455 -0.0572  0.3496
 4686POPS   C4B94205  21.222  21.327  17.111  0.1290 -0.1889  0.0508
 4687POPS   CNO94206  30.188  26.601  12.691  0.0888  0.1283  0.0638
 4687POPS   PO494207  30.005  26.591  12.370  0.0312 -0.0828 -0.3644
 4687POPS   GL194208  29.673  26.425  12.235 -0.1174 -0.3022  0.2412
 4687POPS   GL294209  29.563  26.604  12.062 -0.1318  0.0733 -0.0585
 4687POPS   C1A94210  29.576  25.971  12.181 -0.0357 -0.0718 -0.0950
 4687POPS   D2A94211  29.557  25.500  12.305 -0.0227 -0.1041 -0.2576
 4687POPS   C3A94212  29.251  25.316  12.044  0.0981 -0.0068  0.2181
 4687POPS   C4A94213  28.953  25.000  11.817 -0.0226  0.1709 -0.2199
 4687POPS   C1B94214  29.375  26.470  11.635  0.0808  0.0373 -0.2155
 4687POPS   C2B94215  29.349  26.393  11.158  0.1333 -0.0219 -0.3196
 4687POPS   C3B94216  29.222  26.057  10.845  0.1735  0.2318  0.0202
 4687POPS   C4B94217  29.218  25.607  10.967 -0.2099 -0.1942 -0.0534
 4688POPS   CNO94218  26.427  28.808  10.021  0.1027  0.0985 -0.4204
 4688POPS   PO494219  26.127  28.540  10.037  0.2523 -0.0781 -0.0805
 4688POPS   GL194220  26.316  28.383   9.747  0.3673 -0.0401 -0.3650
 4688POPS   GL294221  26.339  28.488   9.503 -0.1307 -0.2241  0.0948
 4688POPS   C1A94222  26.238  27.959   9.494  0.0951  0.2313  0.0843
 4688POPS   D2A94223  26.072  27.807   9.064  0.1751 -0.0609 -0.1931
 4688POPS   C3A94224  26.332  27.442   8.899 -0.1261  0.0196  0.1207
 4688POPS   C4A94225  26.588  27.016   8.813 -0.1082 -0.0014 -0.1283
 4688POPS   C1B94226  26.172  28.330   9.064 -0.1294  0.1303  0.0405
 4688POPS   C2B94227  26.376  28.056   8.675 -0.1023  0.0747 -0.1643
 4688POPS   C3B94228  26.318  27.787   8.268  0.0656  0.0794  0.0865
 4688POPS   C4B94229  26.218  27.743   7.841 -0.1913  0.4107 -0.1032
 4689POPS   CNO94230  22.760  26.380  11.807  0.1445 -0.0084  0.3064
 4689POPS   PO494231  22.771  26.061  11.925 -0.0683  0.0320 -0.3709
 4689POPS   GL194232  23.115  26.004  11.691 -0.3547  0.2164  0.5974
 4689POPS   GL294233  23.297  26.230  11.590  0.0921 -0.1106  0.2606
 4689POPS   C1A94234  23.323  25.693  11.954  0.3658  0.0492  0.1788
 4689POPS   D2A94235  23.492  25.308  12.117  0.4093  0.0171  0.5028
 4689POPS   C3A94236  23.928  25.182  12.102 -0.4743 -0.0449 -0.0604
 4689POPS   C4A94237  24.264  24.940  11.910  0.0089  0.1066  0.0287
 4689POPS   C1B94238  23.417  25.822  11.405  0.2098 -0.1324  0.0377
 4689POPS   C2B94239  23.603  25.401  11.255 -0.2597 -0.1163 -0.0467
 4689POPS   C3B94240  23.462  24.999  11.352 -0.0314  0.0507 -0.0693
 4689POPS   C4B94241  23.620  24.618  11.162 -0.0789  0.1061  0.0320
 4690POPS   CNO94242  29.670  18.141  13.503  0.2982 -0.0721 -0.1337
 4690POPS   PO494243  29.892  18.379  13.722  0.0342  0.0909  0.0270
 4690POPS   GL194244  29.611  18.585  13.829 -0.1200 -0.0700 -0.0870
 4690POPS   GL294245  29.692  18.761  14.052  0.1323 -0.1568  0.2358
 4690POPS   C1A94246  29.371  18.971  13.703 -0.0034  0.0697  0.3182
 4690POPS   D2A94247  29.236  19.377  13.832 -0.0586 -0.4609 -0.0538
 4690POPS   C3A94248  28.943  19.738  14.001  0.0205  0.2150 -0.1134
 4690POPS   C4A94249  28.596  19.880  14.262  0.2005 -0.0599  0.1792
 4690POPS   C1B94250  29.241  18.868  14.157 -0.0276 -0.2369  0.0402
 4690POPS   C2B94251  28.893  19.165  14.261  0.0580  0.0517 -0.2588
 4690POPS   C3B94252  28.891  19.536  14.560 -0.4106  0.1660 -0.2014
 4690POPS   C4B94253  28.583  19.794  14.777  0.2158 -0.0196  0.0979
 4691POPS   CNO94254  18.833  31.102  16.723  0.0790 -0.0815 -0.0617
 4691POPS   PO494255  18.596  31.325  16.564 -0.0850 -0.1077 -0.0494
 4691POPS   GL194256  18.646  31.486  16.969  0.1745  0.0753 -0.0539
 4691POPS   GL294257  18.906  31.480  17.110 -0.1171 -0.0496  0.1071
 4691POPS   C1A94258  18.527  31.345  17.385 -0.0354  0.1075  0.0701
 4691POPS   D2A94259  18.609  31.247  17.841 -0.0246 -0.1023  0.4522
 4691POPS   C3A94260  18.804  30.992  18.146  0.2769 -0.2075 -0.0975
 4691POPS   C4A94261  18.670  30.923  18.526  0.0113  0.0145 -0.0388
 4691POPS   C1B94262  18.872  31.738  17.465 -0.1504 -0.0708 -0.0152
 4691POPS   C2B94263  18.761  31.872  17.856 -0.0342 -0.1059  0.0660
 4691POPS   C3B94264  18.728  31.650  18.267 -0.0585  0.1569 -0.1471
 4691POPS   C4B94265  18.524  31.593  18.685 -0.1583  0.0725 -0.2289
 4692POPS   CNO94266  20.547  30.561  16.211  0.2647 -0.2654  0.1793
 4692POPS   PO494267  20.428  30.276  16.390 -0.1883  0.4282 -0.0244
 4692POPS   GL194268  20.356  30.340  16.824  0.2715 -0.4422  0.0585
 4692POPS   GL294269  20.374  30.109  16.916 -0.1606  0.1407  0.2035
 4692POPS   C1A94270  20.466  30.533  17.269 -0.1392  0.2248 -0.3362
 4692POPS   D2A94271  20.524  30.550  17.685 -0.1802  0.1564  0.1698
 4692POPS   C3A94272  20.593  30.615  18.122 -0.0267 -0.2077  0.0120
 4692POPS   C4A94273  20.808  30.738  18.487 -0.0498 -0.1667  0.1896
 4692POPS   C1B94274  20.055  30.160  17.185 -0.0383 -0.3329 -0.2743
 4692POPS   C2B94275  20.181  30.235  17.641 -0.2888 -0.0358  0.0914
 4692POPS   C3B94276  20.333  30.208  18.086 -0.0559  0.0090 -0.1052
 4692POPS   C4B94277  20.605  30.161  18.425 -0.0413 -0.1089 -0.0677
 4693POPS   CNO94278  32.132  20.790  15.744 -0.0918 -0.1145  0.0063
 4693POPS   PO494279  32.229  21.025  15.458 -0.0507 -0.0874 -0.2231
 4693POPS   GL194280  32.144  21.398  15.715 -0.2399 -0.0102 -0.0474
 4693POPS   GL294281  31.964  21.334  15.883  0.1844  0.0353  0.2765
 4693POPS   C1A94282  32.332  21.186  16.110 -0.1637  0.0746 -0.1478
 4693POPS   D2A94283  32.509  21.114  16.510  0.1540  0.3120  0.1217
 4693POPS   C3A94284  32.220  21.069  16.838 -0.1273 -0.0321 -0.0357
 4693POPS   C4A94285  31.832  20.893  17.078 -0.3246 -0.0121  0.1020
 4693POPS   C1B94286  31.712  20.934  16.084 -0.0953 -0.0992  0.1607
 4693POPS   C2B94287  31.614  20.708  16.475  0.2855  0.0479 -0.1142
 4693POPS   C3B94288  31.533  20.475  16.854 -0.0838  0.2002 -0.0038
 4693POPS   C4B94289  31.469  20.531  17.304  0.1441 -0.0418 -0.0615
 4694POPS   CNO94290   0.228  28.188  16.559 -0.1653 -0.2718 -0.0760
 4694POPS   PO494291  -0.077  28.042  16.596  0.0017 -0.0201 -0.1396
 4694POPS   GL194292  -0.132  28.176  16.945  0.1256 -0.0364 -0.1483
 4694POPS   GL294293  -0.176  28.479  16.994 -0.3461  0.1133  0.0952
 4694POPS   C1A94294  -0.072  28.070  17.373 -0.1309  0.3612  0.2416
 4694POPS   D2A94295  -0.269  27.797  17.714  0.0079 -0.0042  0.0079
 4694POPS   C3A94296  -0.123  27.596  18.064  0.0921 -0.0861  0.2303
 4694POPS   C4A94297  -0.106  27.257  18.434  0.1405  0.0681 -0.5155
 4694POPS   C1B94298  -0.129  28.570  17.466 -0.2706 -0.2242 -0.0219
 4694POPS   C2B94299  -0.125  28.339  17.863  0.1028  0.0998 -0.1440
 4694POPS   C3B94300   0.050  28.177  18.286  0.1782 -0.1428 -0.2291
 4694POPS   C4B94301   0.287  27.747  18.348  0.0160 -0.1605 -0.0423
 4695POPS   CNO94302  22.296  24.983  14.046  0.1132  0.0777  0.3437
 4695POPS   PO494303  22.379  24.605  13.953  0.0053 -0.1055 -0.2702
 4695POPS   GL194304  22.668  24.323  14.114 -0.1795  0.1180  0.3399
 4695POPS   GL294305  22.456  24.167  14.318  0.1386  0.0759 -0.5365
 4695POPS   C1A94306  23.023  24.052  14.272  0.0351  0.1451  0.2294
 4695POPS   D2A94307  23.339  23.765  14.283 -0.0020  0.1131  0.0886
 4695POPS   C3A94308  23.072  23.428  14.442  0.2302 -0.1117  0.1623
 4695POPS   C4A94309  22.609  23.397  14.398  0.2855  0.1539  0.0116
 4695POPS   C1B94310  22.746  24.143  14.658 -0.3111  0.1767  0.1228
 4695POPS   C2B94311  23.124  24.011  14.908 -0.0786  0.2289 -0.0943
 4695POPS   C3B94312  23.368  23.781  15.248  0.3358 -0.0022 -0.1638
 4695POPS   C4B94313  23.500  23.773  15.699  0.0365 -0.2882  0.0481
 4696POPS   CNO94314  20.366  22.212  14.493 -0.1812 -0.0716 -0.2761
 4696POPS   PO494315  20.550  22.138  14.835 -0.3743  0.1976  0.3358
 4696POPS   GL194316  20.821  21.916  15.013  0.0227  0.2809  0.0469
 4696POPS   GL294317  20.721  21.879  15.236 -0.1789  0.1153 -0.0469
 4696POPS   C1A94318  21.261  21.838  15.101 -0.0507  0.5345  0.3171
 4696POPS   D2A94319  21.677  21.681  15.343  0.4755  0.0485 -0.0661
 4696POPS   C3A94320  21.717  21.887  15.773  0.3260 -0.1925  0.0299
 4696POPS   C4A94321  21.866  21.803  16.179  0.3757 -0.3836 -0.2094
 4696POPS   C1B94322  20.981  22.034  15.591  0.0152  0.1904 -0.1645
 4696POPS   C2B94323  21.187  22.084  16.019  0.1306 -0.3977 -0.0270
 4696POPS   C3B94324  21.418  21.762  16.301 -0.0920  0.0471 -0.0400
 4696POPS   C4B94325  21.565  21.749  16.691  0.0575 -0.1219  0.2612
 4697POPS   CNO94326  27.118  29.544   9.364 -0.2794 -0.1444  0.2328
 4697POPS   PO494327  27.161  29.226   9.543  0.1704  0.2165 -0.0643
 4697POPS   GL194328  27.039  29.023   9.220  0.0084  0.3984 -0.3001
 4697POPS   GL294329  27.226  28.993   8.994  0.0642  0.0379 -0.2039
 4697POPS   C1A94330  26.767  28.678   9.024  0.0487 -0.0592 -0.0202
 4697POPS   D2A94331  26.764  28.416   8.696  0.0574 -0.3975  0.1474
 4697POPS   C3A94332  26.481  28.456   8.302 -0.0021  0.2025 -0.3622
 4697POPS   C4A94333  26.267  28.437   7.880 -0.2211 -0.2078  0.1669
 4697POPS   C1B94334  27.052  28.808   8.624  0.2138 -0.0018  0.2313
 4697POPS   C2B94335  27.001  28.854   8.162  0.1981 -0.0851  0.1763
 4697POPS   C3B94336  27.126  28.808   7.682 -0.2021  0.0272  0.1447
 4697POPS   C4B94337  27.286  29.016   7.379 -0.3425 -0.3014 -0.0744
 4698POPS   CNO94338  19.324  28.532  16.622 -0.0555 -0.1844 -0.1979
 4698POPS   PO494339  19.044  28.772  16.592  0.2261  0.0847 -0.0590
 4698POPS   GL194340  18.820  28.747  16.916 -0.2353 -0.0968 -0.0004
 4698POPS   GL294341  18.691  28.974  17.042  0.0557 -0.2213 -0.1183
 4698POPS   C1A94342  18.938  28.715  17.387 -0.0689  0.1595  0.3763
 4698POPS   D2A94343  19.274  28.708  17.689  0.1400 -0.1464 -0.3307
 4698POPS   C3A94344  18.987  28.705  18.057 -0.0409 -0.0168  0.0124
 4698POPS   C4A94345  18.660  28.462  18.275 -0.1943 -0.1055 -0.1232
 4698POPS   C1B94346  18.497  28.904  17.431  0.2053  0.1357 -0.1163
 4698POPS   C2B94347  18.563  28.891  17.887  0.1634 -0.1718  0.2978
 4698POPS   C3B94348  18.669  29.005  18.351 -0.1287 -0.0755  0.1260
 4698POPS   C4B94349  18.414  29.145  18.675 -0.1559  0.0718 -0.1383
 4699POPS   CNO94350  16.514  17.770  15.652 -0.2690 -0.1546 -0.2525
 4699POPS   PO494351  16.493  17.536  15.955  0.1719 -0.0453  0.0269
 4699POPS   GL194352  16.686  17.882  16.173 -0.4415  0.3603  0.1632
 4699POPS   GL294353  16.478  17.867  16.377  0.2072 -0.0807  0.2674
 4699POPS   C1A94354  17.008  17.782  16.445  0.1297  0.2176 -0.1230
 4699POPS   D2A94355  17.253  17.617  16.794  0.0358 -0.0291 -0.0012
 4699POPS   C3A94356  17.016  17.677  17.145 -0.0511 -0.0365  0.1454
 4699POPS   C4A94357  16.816  17.577  17.533 -0.1607  0.1630  0.4534
 4699POPS   C1B94358  16.579  18.018  16.772  0.0613  0.0823 -0.3434
 4699POPS   C2B94359  16.479  17.904  17.223  0.0724 -0.2721  0.0308
 4699POPS   C3B94360  16.201  18.109  17.495 -0.1089  0.2308 -0.1780
 4699POPS   C4B94361  15.802  18.159  17.664  0.0613  0.0833 -0.2854
 4700POPS   CNO94362  19.138  31.876  16.114  0.1920 -0.2371 -0.2311
 4700POPS   PO494363  19.342  31.951  16.449  0.4101  0.2099 -0.2911
 4700POPS   GL194364  19.192  32.046  16.897  0.0592  0.2100  0.1214
 4700POPS   GL294365  19.102  32.331  16.797 -0.2155 -0.0120 -0.1264
 4700POPS   C1A94366  19.368  31.903  17.305  0.2722 -0.0025 -0.2410
 4700POPS   D2A94367  19.420  31.999  17.738  0.0243  0.1764  0.1675
 4700POPS   C3A94368  19.280  31.862  18.151 -0.0509  0.0559  0.0672
 4700POPS   C4A94369  19.369  31.904  18.609 -0.3029  0.1118 -0.0441
 4700POPS   C1B94370  18.907  32.204  17.177 -0.2043  0.0417  0.4021
 4700POPS   C2B94371  19.095  32.369  17.572 -0.0197  0.0291  0.0734
 4700POPS   C3B94372  19.113  32.306  18.001  0.3675  0.2570  0.1789
 4700POPS   C4B94373  18.868  32.417  18.387  0.1604  0.2343 -0.0435
 4701POPS   CNO94374  25.695  28.394  15.711  0.1517 -0.0065 -0.2241
 4701POPS   PO494375  25.596  28.144  15.971  0.1806 -0.1435 -0.0457
 4701POPS   GL194376  25.608  27.875  16.197 -0.0473  0.6484  0.1323
 4701POPS   GL294377  25.795  27.799  16.418 -0.1635  0.1815 -0.2520
 4701POPS   C1A94378  25.678  27.386  16.170  0.0353 -0.0039  0.0388
 4701POPS   D2A94379  25.484  27.032  16.048  0.0617 -0.1774  0.1143
 4701POPS   C3A94380  25.628  26.658  16.234  0.0398  0.1077 -0.3974
 4701POPS   C4A94381  25.672  26.258  16.509 -0.1810  0.2671  0.3551
 4701POPS   C1B94382  25.626  27.583  16.797 -0.1111  0.0669  0.0799
 4701POPS   C2B94383  25.488  27.719  17.177 -0.2146 -0.2210  0.3619
 4701POPS   C3B94384  25.535  27.517  17.631  0.0446 -0.0806 -0.0061
 4701POPS   C4B94385  25.678  27.300  18.035 -0.1824  0.0539 -0.2216
 4702POPS   CNO94386  24.845  29.736  16.388 -0.0994  0.5063  0.0846
 4702POPS   PO494387  24.894  29.393  16.315  0.1171  0.1175  0.1149
 4702POPS   GL194388  24.970  29.321  16.673  0.2579  0.1758 -0.0599
 4702POPS   GL294389  25.067  29.081  16.759  0.2518 -0.2192 -0.1009
 4702POPS   C1A94390  24.786  29.475  17.069 -0.2470  0.1794 -0.1265
 4702POPS   D2A94391  24.664  29.478  17.514  0.2929  0.1573 -0.1656
 4702POPS   C3A94392  24.438  29.909  17.660 -0.1359 -0.0434 -0.1089
 4702POPS   C4A94393  24.237  30.212  17.958  0.0907  0.2550  0.1551
 4702POPS   C1B94394  24.952  29.042  17.218  0.1034  0.0788 -0.1039
 4702POPS   C2B94395  25.075  28.983  17.633  0.0534  0.1965  0.0924
 4702POPS   C3B94396  25.183  29.362  17.879  0.2825  0.0152 -0.1597
 4702POPS   C4B94397  25.258  29.674  18.217 -0.2752  0.0667  0.0954
 4703POPS   CNO94398  27.710  17.905  11.782  0.0576  0.2672  0.0725
 4703POPS   PO494399  27.915  18.166  12.025  0.3817 -0.2378  0.1535
 4703POPS   GL194400  28.021  18.511  12.198  0.0980 -0.0652  0.4223
 4703POPS   GL294401  27.704  18.516  12.271 -0.1270  0.0924  0.1092
 4703POPS   C1A94402  28.148  18.921  12.128  0.0515 -0.3345  0.3798
 4703POPS   D2A94403  28.003  19.335  11.983 -0.3278 -0.2704  0.1107
 4703POPS   C3A94404  28.272  19.724  11.948 -0.1827  0.0786  0.2525
 4703POPS   C4A94405  28.221  20.036  11.604 -0.2378 -0.1318 -0.1090
 4703POPS   C1B94406  27.673  19.004  12.294  0.0002  0.2616  0.1083
 4703POPS   C2B94407  27.625  19.432  12.287  0.2020 -0.1959  0.1867
 4703POPS   C3B94408  27.803  19.869  12.179  0.0461 -0.0974  0.0952
 4703POPS   C4B94409  27.719  20.043  11.770  0.1775 -0.1256 -0.1805
 4704POPS   CNO94410   0.341  23.652  15.584 -0.2163 -0.3859  0.0781
 4704POPS   PO494411   0.042  23.439  15.616 -0.0915 -0.0651 -0.2441
 4704POPS   GL194412   0.187  23.377  16.017 -0.2753 -0.1734  0.1344
 4704POPS   GL294413   0.330  23.541  16.180  0.3729 -0.0913 -0.0044
 4704POPS   C1A94414  -0.050  23.299  16.367  0.2781  0.0766  0.0874
 4704POPS   D2A94415  -0.137  23.042  16.755 -0.5319  0.1775  0.1696
 4704POPS   C3A94416   0.231  23.052  17.084 -0.0210  0.4095  0.0755
 4704POPS   C4A94417   0.180  23.206  17.499 -0.0372  0.1870 -0.1325
 4704POPS   C1B94418   0.369  23.683  16.663 -0.1004 -0.4301  0.1602
 4704POPS   C2B94419   0.224  23.818  17.099 -0.2692 -0.2540  0.2327
 4704POPS   C3B94420   0.085  23.679  17.588  0.0896 -0.0704  0.4234
 4704POPS   C4B94421  -0.067  23.440  18.001 -0.2659  0.1752  0.1867
 4705POPS   CNO94422  32.667  27.653  15.936  0.1160  0.1413 -0.1759
 4705POPS   PO494423  32.598  27.634  16.303 -0.1107  0.2661 -0.2629
 4705POPS   GL194424  32.704  27.607  16.724  0.0457  0.0196  0.3959
 4705POPS   GL294425  32.972  27.579  16.690 -0.1067 -0.2650 -0.3499
 4705POPS   C1A94426  32.447  27.711  17.072  0.0003  0.0226  0.3137
 4705POPS   D2A94427  32.164  27.601  17.397  0.1106 -0.2994  0.2279
 4705POPS   C3A94428  32.223  27.454  17.811  0.0115 -0.1249  0.0204
 4705POPS   C4A94429  31.905  27.608  18.141  0.1033 -0.1070  0.1189
 4705POPS   C1B94430  32.968  27.636  17.204  0.0485  0.0019 -0.3358
 4705POPS   C2B94431  33.089  27.527  17.613  0.0899 -0.0719 -0.1401
 4705POPS   C3B94432  33.161  27.328  18.059  0.0791  0.0015  0.1775
 4705POPS   C4B94433  33.196  27.280  18.530  0.3120  0.0337  0.1853
 4706POPS   CNO94434  31.714  24.772  10.325  0.0588 -0.0976  0.2999
 4706POPS   PO494435  31.442  24.949  10.142 -0.2067  0.1290  0.1703
 4706POPS   GL194436  31.103  25.160   9.976 -0.1238  0.1191 -0.3083
 4706POPS   GL294437  31.102  24.961   9.792 -0.1407 -0.2608  0.1111
 4706POPS   C1A94438  30.659  25.113  10.035 -0.0850  0.1687  0.1837
 4706POPS   D2A94439  30.326  25.063   9.687  0.0065 -0.1250 -0.1779
 4706POPS   C3A94440  29.883  24.879   9.716  0.0520  0.1989 -0.1237
 4706POPS   C4A94441  29.547  24.717   9.488  0.2124 -0.0767  0.1393
 4706POPS   C1B94442  30.706  24.701   9.704  0.0441  0.2023 -0.1192
 4706POPS   C2B94443  30.550  24.383   9.460  0.0246 -0.3888 -0.0108
 4706POPS   C3B94444  30.587  24.296   8.981 -0.2682 -0.2188 -0.4076
 4706POPS   C4B94445  30.290  24.232   8.762  0.5384 -0.0018  0.0472
 4707POPS   CNO94446  30.859  31.466  16.141  0.1745 -0.0924 -0.2338
 4707POPS   PO494447  30.617  31.180  16.234 -0.2219  0.0663 -0.1748
 4707POPS   GL194448  30.685  31.142  16.612  0.2236 -0.0935 -0.0673
 4707POPS   GL294449  30.719  30.886  16.699  0.1103 -0.0456  0.0320
 4707POPS   C1A94450  30.496  31.314  17.012 -0.0580 -0.1033  0.3155
 4707POPS   D2A94451  30.012  31.346  17.008  0.0212  0.2101  0.0117
 4707POPS   C3A94452  29.748  31.400  17.408 -0.0061  0.0285 -0.0582
 4707POPS   C4A94453  29.329  31.167  17.536  0.0190 -0.0749  0.4041
 4707POPS   C1B94454  30.610  30.625  17.057 -0.1206 -0.3512 -0.4478
 4707POPS   C2B94455  30.395  30.576  17.485  0.0819  0.2058  0.2875
 4707POPS   C3B94456  30.014  30.652  17.699 -0.0629 -0.2103  0.1071
 4707POPS   C4B94457  29.932  30.731  18.157  0.2783 -0.0650 -0.1845
 4708POPS   CNO94458  18.602  22.863  15.502  0.1326 -0.2370  0.3454
 4708POPS   PO494459  18.684  23.188  15.652  0.0019  0.0740  0.3535
 4708POPS   GL194460  18.640  23.329  16.042  0.0552  0.3076  0.0356
 4708POPS   GL294461  18.670  23.550  16.156 -0.2226 -0.2009  0.0754
 4708POPS   C1A94462  18.706  23.090  16.412  0.1703  0.0319 -0.2479
 4708POPS   D2A94463  18.574  22.989  16.816  0.4099 -0.0521  0.2925
 4708POPS   C3A94464  18.699  22.844  17.200 -0.1968 -0.0663  0.2860
 4708POPS   C4A94465  18.780  22.657  17.563  0.0937  0.0204  0.1632
 4708POPS   C1B94466  18.686  23.579  16.609  0.3538  0.2325  0.0025
 4708POPS   C2B94467  18.532  23.467  16.989  0.1321  0.0542  0.0745
 4708POPS   C3B94468  18.577  23.280  17.415 -0.2040 -0.1081 -0.1176
 4708POPS   C4B94469  18.457  23.077  17.806 -0.1559 -0.0113 -0.0977
 4709POPS   CNO94470  24.452  28.484  15.280  0.3386  0.0755  0.1134
 4709POPS   PO494471  24.591  28.150  15.382 -0.3962  0.2159  0.2821
 4709POPS   GL194472  24.323  27.856  15.573  0.1783  0.0018  0.0327
 4709POPS   GL294473  24.516  27.684  15.629 -0.1424 -0.0480 -0.0356
 4709POPS   C1A94474  24.117  27.591  15.922 -0.0527  0.0419 -0.0785
 4709POPS   D2A94475  24.225  27.102  16.092 -0.1305  0.0966 -0.0627
 4709POPS   C3A94476  24.315  26.961  16.551  0.0331  0.0731 -0.3022
 4709POPS   C4A94477  24.452  26.735  16.930  0.3727 -0.1585 -0.0402
 4709POPS   C1B94478  24.586  27.235  15.817  0.0300 -0.2047 -0.0442
 4709POPS   C2B94479  24.881  27.056  16.107 -0.0430 -0.2116 -0.3669
 4709POPS   C3B94480  25.167  26.838  16.439  0.1226 -0.0228  0.0044
 4709POPS   C4B94481  25.116  26.630  16.836  0.1430  0.1239  0.1655
 4710POPS   CNO94482  29.945  27.496  15.305 -0.0595 -0.1762  0.0332
 4710POPS   PO494483  29.766  27.290  15.557 -0.0302  0.0476  0.1309
 4710POPS   GL194484  29.753  26.932  15.728  0.2930  0.0163 -0.3649
 4710POPS   GL294485  29.958  27.005  15.959  0.0374  0.0462 -0.1207
 4710POPS   C1A94486  29.688  26.576  15.963 -0.0685  0.0417 -0.2725
 4710POPS   D2A94487  29.501  26.186  16.145 -0.1125  0.1838 -0.0305
 4710POPS   C3A94488  29.101  26.022  16.333 -0.1485  0.3065  0.0062
 4710POPS   C4A94489  28.697  25.799  16.373 -0.0166 -0.3152 -0.1833
 4710POPS   C1B94490  29.842  26.861  16.376  0.0673 -0.2059 -0.0681
 4710POPS   C2B94491  30.086  26.748  16.676 -0.0427 -0.1402 -0.1293
 4710POPS   C3B94492  30.061  26.406  16.942  0.2334  0.0353  0.1700
 4710POPS   C4B94493  29.671  26.116  17.028 -0.2109  0.2748  0.0742
 4711POPS   CNO94494  30.770  32.360  15.739  0.3968 -0.3181 -0.1532
 4711POPS   PO494495  30.774  32.075  15.979 -0.1240  0.0234 -0.1523
 4711POPS   GL194496  30.722  32.030  16.404  0.3325  0.0304 -0.2051
 4711POPS   GL294497  30.803  31.779  16.516 -0.1783 -0.1016  0.0854
 4711POPS   C1A94498  30.645  32.284  16.789  0.0569 -0.1283 -0.2171
 4711POPS   D2A94499  30.704  32.349  17.230  0.0979 -0.0851 -0.1473
 4711POPS   C3A94500  30.959  32.451  17.605 -0.3041 -0.0291  0.1607
 4711POPS   C4A94501  31.197  32.733  17.911  0.0289  0.4823 -0.2790
 4711POPS   C1B94502  30.566  31.805  16.879 -0.1043  0.0603 -0.2046
 4711POPS   C2B94503  30.565  31.838  17.306 -0.3841 -0.0934  0.0596
 4711POPS   C3B94504  30.493  32.007  17.705 -0.1418  0.1750 -0.1701
 4711POPS   C4B94505  30.461  32.253  18.132 -0.1591 -0.0228  0.1937
 4712POPS   CNO94506  20.034  31.468  16.089 -0.1656  0.1660 -0.0037
 4712POPS   PO494507  20.249  31.355  16.361 -0.3062 -0.0990 -0.2240
 4712POPS   GL194508  20.090  31.463  16.710 -0.2357 -0.0186 -0.1015
 4712POPS   GL294509  20.355  31.414  16.896  0.1284  0.2111 -0.1011
 4712POPS   C1A94510  19.844  31.361  17.139  0.0649  0.2342  0.2332
 4712POPS   D2A94511  19.733  31.607  17.566  0.0170  0.0475 -0.2431
 4712POPS   C3A94512  19.748  31.447  17.957  0.1759  0.1277 -0.2494
 4712POPS   C4A94513  19.643  31.432  18.390  0.2399  0.0512  0.0081
 4712POPS   C1B94514  20.642  31.543  17.171 -0.1494  0.2196  0.2611
 4712POPS   C2B94515  20.665  31.636  17.678 -0.0010 -0.0001 -0.0360
 4712POPS   C3B94516  20.953  31.362  17.804 -0.0100  0.4087 -0.1732
 4712POPS   C4B94517  21.035  31.155  18.205  0.1779 -0.1794 -0.0137
 4713POPS   CNO94518  27.147  27.939  15.740  0.1283  0.1226  0.1613
 4713POPS   PO494519  27.110  27.542  15.720  0.2240 -0.1413 -0.0659
 4713POPS   GL194520  27.227  27.513  16.154 -0.2688  0.1392 -0.0423
 4713POPS   GL294521  27.269  27.210  16.102 -0.3281  0.1530  0.0875
 4713POPS   C1A94522  26.872  27.383  16.438 -0.5927  0.1350 -0.2109
 4713POPS   D2A94523  26.578  27.134  16.640 -0.2778 -0.0901 -0.0437
 4713POPS   C3A94524  26.601  26.816  16.983 -0.2297  0.0901 -0.1206
 4713POPS   C4A94525  26.343  26.795  17.408  0.1058  0.0973  0.5670
 4713POPS   C1B94526  27.183  26.977  16.492  0.3732 -0.4857 -0.0935
 4713POPS   C2B94527  27.144  26.907  16.930  0.2485 -0.3543  0.1561
 4713POPS   C3B94528  26.932  27.014  17.325 -0.1740  0.2077 -0.1436
 4713POPS   C4B94529  26.551  27.169  17.611  0.2460 -0.2026  0.2979
 4714POPS   CNO94530  19.294  23.738  15.735  0.1009  0.1765 -0.0396
 4714POPS   PO494531  19.106  23.444  15.898 -0.1286  0.0632  0.0032
 4714POPS   GL194532  19.100  23.436  16.252 -0.3666 -0.2851 -0.0688
 4714POPS   GL294533  19.277  23.188  16.396  0.3862 -0.3799  0.2450
 4714POPS   C1A94534  19.179  23.638  16.656 -0.2336 -0.0642 -0.1160
 4714POPS   D2A94535  18.994  23.675  17.073 -0.0731 -0.0633 -0.1170
 4714POPS   C3A94536  19.364  23.732  17.251  0.1007 -0.0054  0.3241
 4714POPS   C4A94537  19.727  23.968  17.346 -0.3244  0.1343  0.1697
 4714POPS   C1B94538  19.023  23.221  16.851 -0.2145  0.0781  0.3061
 4714POPS   C2B94539  19.077  23.291  17.317 -0.0509  0.3019 -0.1500
 4714POPS   C3B94540  18.997  23.589  17.664 -0.1358 -0.3517  0.0265
 4714POPS   C4B94541  18.911  23.816  18.067 -0.0120 -0.0344 -0.1534
 4715POPS   CNO94542  27.559  17.290  13.548  0.1601  0.2779  0.1689
 4715POPS   PO494543  27.315  17.555  13.524  0.2721 -0.0918 -0.0514
 4715POPS   GL194544  27.339  17.918  13.405 -0.0012  0.1772 -0.2362
 4715POPS   GL294545  27.093  17.949  13.349 -0.1587 -0.0812 -0.0195
 4715POPS   C1A94546  27.493  18.193  13.743  0.0225  0.0285  0.0790
 4715POPS   D2A94547  27.623  18.498  14.052 -0.1822 -0.0127 -0.1287
 4715POPS   C3A94548  27.841  18.884  14.114  0.1275  0.0768  0.1699
 4715POPS   C4A94549  27.933  19.254  13.857 -0.1442 -0.0932 -0.1740
 4715POPS   C1B94550  26.835  18.362  13.402 -0.0960 -0.0537  0.1250
 4715POPS   C2B94551  26.414  18.583  13.423  0.1436 -0.1059  0.0021
 4715POPS   C3B94552  26.346  18.976  13.542 -0.1490  0.0786  0.0768
 4715POPS   C4B94553  26.190  19.341  13.733  0.1516 -0.3475  0.1295
 4716POPS   CNO94554  31.718  25.288  15.138 -0.3014  0.0541  0.1787
 4716POPS   PO494555  31.350  25.235  15.244  0.3902 -0.0025  0.0379
 4716POPS   GL194556  31.151  25.046  15.489  0.0662 -0.2030  0.0542
 4716POPS   GL294557  31.031  24.789  15.367  0.3613  0.0945  0.1128
 4716POPS   C1A94558  30.727  25.013  15.698 -0.1084  0.1306  0.0076
 4716POPS   D2A94559  30.380  24.787  15.621  0.2770 -0.3258  0.2950
 4716POPS   C3A94560  30.195  24.672  15.249  0.0161 -0.2337 -0.1262
 4716POPS   C4A94561  30.269  24.226  15.080 -0.1717  0.0342  0.1052
 4716POPS   C1B94562  30.697  24.375  15.387  0.0528 -0.0063 -0.0152
 4716POPS   C2B94563  30.435  24.053  15.560  0.1459 -0.0728 -0.1662
 4716POPS   C3B94564  30.196  23.883  15.978  0.0176  0.0237 -0.0598
 4716POPS   C4B94565  29.811  23.908  16.256  0.0615  0.1780  0.0471
 4717POPS   CNO94566   0.300  17.557  15.525 -0.0121 -0.0608  0.0738
 4717POPS   PO494567   0.013  17.319  15.604  0.0500 -0.0823 -0.1855
 4717POPS   GL194568  -0.102  17.487  15.932  0.1371  0.1269 -0.4165
 4717POPS   GL294569   0.034  17.426  16.209 -0.2186 -0.1293  0.1255
 4717POPS   C1A94570  -0.519  17.457  16.111  0.0147 -0.1185  0.0035
 4717POPS   D2A94571  -0.953  17.360  16.227  0.1037  0.2457 -0.1758
 4717POPS   C3A94572  -1.187  17.601  16.497 -0.2496  0.2327  0.2596
 4717POPS   C4A94573  -1.520  17.745  16.837  0.2703  0.1176  0.0907
 4717POPS   C1B94574   0.210  17.575  16.568  0.3151 -0.0918  0.0087
 4717POPS   C2B94575   0.093  17.601  17.017  0.1527 -0.0672 -0.0971
 4717POPS   C3B94576   0.010  17.733  17.448 -0.3020  0.3382 -0.1560
 4717POPS   C4B94577  -0.304  17.966  17.655 -0.1968 -0.2692 -0.0520
 4718POPS   CNO94578  15.951  31.462  16.059  0.1139  0.3575  0.4717
 4718POPS   PO494579  16.140  31.222  16.313 -0.2772  0.2069 -0.0382
 4718POPS   GL194580  16.383  31.330  16.608 -0.3106 -0.1017  0.4442
 4718POPS   GL294581  16.542  31.542  16.658 -0.0591  0.2523  0.2065
 4718POPS   C1A94582  16.202  31.368  17.005  0.0305  0.2223 -0.0325
 4718POPS   D2A94583  15.919  31.530  17.331 -0.1446 -0.0343  0.0496
 4718POPS   C3A94584  16.183  31.564  17.675  0.1126 -0.1125  0.0518
 4718POPS   C4A94585  16.498  31.796  18.003 -0.2458 -0.2237 -0.1159
 4718POPS   C1B94586  16.510  31.779  17.098 -0.1550 -0.0056  0.1351
 4718POPS   C2B94587  16.624  31.874  17.543  0.1534 -0.1427 -0.0122
 4718POPS   C3B94588  16.923  32.083  17.790 -0.2375  0.0343 -0.0215
 4718POPS   C4B94589  17.144  32.384  18.067  0.2842 -0.0125  0.0749
 4719POPS   CNO94590  21.507  26.187  15.408  0.0770 -0.2008 -0.0626
 4719POPS   PO494591  21.548  26.077  15.773 -0.1715 -0.2057 -0.0290
 4719POPS   GL194592  21.505  25.982  16.156  0.3220  0.3283 -0.0698
 4719POPS   GL294593  21.422  26.165  16.277  0.1486 -0.0677 -0.2904
 4719POPS   C1A94594  21.644  25.575  16.383  0.2624 -0.3021  0.1222
 4719POPS   D2A94595  21.613  25.224  16.659  0.0086  0.0524 -0.1399
 4719POPS   C3A94596  22.033  25.244  16.823  0.0681 -0.4758 -0.0946
 4719POPS   C4A94597  22.268  25.257  17.208 -0.0196 -0.0816  0.0064
 4719POPS   C1B94598  21.379  25.867  16.668 -0.1917  0.3258  0.1274
 4719POPS   C2B94599  21.400  25.972  17.087 -0.2581  0.4667 -0.0146
 4719POPS   C3B94600  21.809  26.153  17.349  0.1504 -0.1662 -0.1380
 4719POPS   C4B94601  21.874  26.331  17.739 -0.2394 -0.0936 -0.0669
 4720POPS   CNO94602  29.725  26.199  14.316 -0.1009 -0.1182 -0.2341
 4720POPS   PO494603  29.495  26.380  14.544 -0.1218  0.0456  0.0619
 4720POPS   GL194604  29.333  26.034  14.551  0.1919  0.0923 -0.0402
 4720POPS   GL294605  29.510  25.852  14.620  0.2376  0.1137 -0.4603
 4720POPS   C1A94606  28.967  25.834  14.665 -0.0757 -0.1921 -0.2038
 4720POPS   D2A94607  28.701  25.867  15.109  0.0106  0.3968  0.0753
 4720POPS   C3A94608  28.564  25.549  15.407  0.0870  0.1562  0.0236
 4720POPS   C4A94609  28.420  25.587  15.825 -0.1707 -0.0515  0.1466
 4720POPS   C1B94610  29.314  25.655  14.974  0.0490  0.2289  0.1318
 4720POPS   C2B94611  28.951  25.384  15.064 -0.0595 -0.2126  0.0286
 4720POPS   C3B94612  28.566  25.074  15.209 -0.0574  0.0174 -0.1040
 4720POPS   C4B94613  28.198  25.146  15.477 -0.0526  0.2794  0.0013
 4721POPS   CNO94614  24.558  27.095  14.012  0.1010  0.0461  0.2049
 4721POPS   PO494615  24.666  26.844  14.263  0.2506  0.2549 -0.1288
 4721POPS   GL194616  24.830  26.741  14.674  0.0423 -0.0004 -0.0996
 4721POPS   GL294617  24.887  26.459  14.628 -0.0193  0.0557  0.2685
 4721POPS   C1A94618  24.900  26.644  15.125  0.1620 -0.3033 -0.1887
 4721POPS   D2A94619  25.014  26.295  15.422  0.2617 -0.2742 -0.0905
 4721POPS   C3A94620  25.090  26.051  15.860 -0.2097  0.0303  0.1208
 4721POPS   C4A94621  25.463  26.082  16.137  0.0152 -0.1455  0.3253
 4721POPS   C1B94622  25.261  26.240  14.811  0.1165 -0.1506  0.1195
 4721POPS   C2B94623  25.474  25.872  14.970 -0.1484  0.1676 -0.0409
 4721POPS   C3B94624  25.756  25.472  15.041 -0.1604  0.2329  0.0166
 4721POPS   C4B94625  25.563  25.075  15.159  0.0719 -0.0303  0.0315
 4722POPS   CNO94626  17.095  18.519  15.522  0.2826  0.0475  0.4355
 4722POPS   PO494627  16.771  18.573  15.729  0.1683 -0.0439 -0.0396
 4722POPS   GL194628  16.839  18.781  16.035  0.3283 -0.2966  0.2699
 4722POPS   GL294629  17.002  18.942  16.057  0.0329 -0.2814 -0.2729
 4722POPS   C1A94630  16.688  18.901  16.454 -0.0893  0.0413  0.1095
 4722POPS   D2A94631  16.423  18.937  16.828 -0.1096  0.1590 -0.0622
 4722POPS   C3A94632  16.213  19.301  17.029 -0.0408  0.2970 -0.1399
 4722POPS   C4A94633  16.123  19.325  17.473 -0.1035  0.3820 -0.0077
 4722POPS   C1B94634  17.208  19.172  16.423  0.1839  0.1597 -0.1851
 4722POPS   C2B94635  17.235  19.345  16.893  0.0638 -0.1932 -0.1468
 4722POPS   C3B94636  17.155  19.289  17.335  0.0629 -0.0155 -0.2688
 4722POPS   C4B94637  17.245  19.570  17.723  0.0096  0.0695  0.0821
 4723POPS   CNO94638  17.541  20.197  20.304  0.0547 -0.1220  0.3153
 4723POPS   PO494639  17.846  20.115  20.132 -0.2220  0.0865 -0.3085
 4723POPS   GL194640  18.081  20.303  19.806  0.1211 -0.0126  0.1396
 4723POPS   GL294641  18.062  20.081  19.690 -0.0433 -0.2337 -0.1295
 4723POPS   C1A94642  18.291  20.296  19.329  0.0942 -0.1703 -0.0769
 4723POPS   D2A94643  18.247  20.284  18.854  0.3275  0.3911 -0.0103
 4723POPS   C3A94644  18.397  20.501  18.455 -0.1915  0.3949  0.2549
 4723POPS   C4A94645  18.488  20.949  18.396  0.2717 -0.0117 -0.3276
 4723POPS   C1B94646  17.901  19.872  19.340 -0.0796 -0.3570 -0.0517
 4723POPS   C2B94647  17.901  19.759  18.907  0.0811  0.0913  0.1514
 4723POPS   C3B94648  18.042  19.545  18.543 -0.0872  0.0645  0.2248
 4723POPS   C4B94649  18.221  19.647  18.107 -0.0101 -0.0728  0.2392
 4724POPS   CNO94650  30.281   0.164  20.792 -0.1160 -0.0128  0.2209
 4724POPS   PO494651  30.477   0.075  20.485 -0.2013  0.2343 -0.2696
 4724POPS   GL194652  30.494  -0.202  20.272 -0.0572 -0.3250 -0.1213
 4724POPS   GL294653  30.378  -0.500  20.361 -0.1774 -0.0160  0.1329
 4724POPS   C1A94654  30.284  -0.328  19.855 -0.1461 -0.0387 -0.1152
 4724POPS   D2A94655  30.477  -0.383  19.472  0.0151 -0.0076  0.1816
 4724POPS   C3A94656  30.440  -0.735  19.169 -0.1058 -0.0925  0.1146
 4724POPS   C4A94657  30.439  -0.971  18.833  0.0079  0.1148 -0.5476
 4724POPS   C1B94658  30.632  -0.638  20.006 -0.4759 -0.1654  0.1329
 4724POPS   C2B94659  30.600  -0.917  19.684 -0.1813  0.1566 -0.0963
 4724POPS   C3B94660  30.725  -1.211  19.423 -0.2120  0.1855 -0.2264
 4724POPS   C4B94661  30.707  -1.351  18.995 -0.0405 -0.0036 -0.0949
 4725POPS   CNO94662  25.217  19.613  17.778  0.0146 -0.1018  0.1137
 4725POPS   PO494663  24.991  19.424  17.535  0.2465  0.1321  0.2402
 4725POPS   GL194664  24.869  19.270  17.153 -0.0737  0.1174  0.3090
 4725POPS   GL294665  24.786  19.567  17.044  0.3460 -0.1272  0.1914
 4725POPS   C1A94666  25.013  19.003  16.766  0.0452  0.3250 -0.0968
 4725POPS   D2A94667  25.159  18.792  16.364 -0.0484 -0.1440 -0.2993
 4725POPS   C3A94668  24.888  18.381  16.284 -0.1302  0.0474  0.0877
 4725POPS   C4A94669  24.660  18.024  16.174  0.2281  0.0654  0.3147
 4725POPS   C1B94670  24.588  19.270  16.766 -0.0160  0.0589 -0.0238
 4725POPS   C2B94671  24.623  18.986  16.389  0.0074 -0.1509 -0.2065
 4725POPS   C3B94672  24.891  18.855  16.014 -0.2191 -0.0670  0.1513
 4725POPS   C4B94673  25.045  18.464  15.777 -0.0234  0.0249  0.0196
 4726POPS   CNO94674  21.603  27.303  20.837 -0.1708  0.0160 -0.1319
 4726POPS   PO494675  21.834  27.272  20.549 -0.0032 -0.2331  0.0887
 4726POPS   GL194676  21.715  27.204  20.211 -0.1647 -0.3102 -0.0947
 4726POPS   GL294677  21.457  27.417  20.107 -0.1018  0.0851  0.5787
 4726POPS   C1A94678  21.752  26.970  19.814 -0.1302  0.2486 -0.0350
 4726POPS   D2A94679  21.585  27.102  19.370 -0.4145  0.0420  0.0873
 4726POPS   C3A94680  21.369  27.468  19.152  0.3950 -0.2007  0.1044
 4726POPS   C4A94681  21.421  27.755  18.781  0.2982  0.0522 -0.0132
 4726POPS   C1B94682  21.757  27.558  19.795 -0.3274  0.0894  0.0204
 4726POPS   C2B94683  21.860  27.492  19.337  0.3892  0.2441 -0.0297
 4726POPS   C3B94684  21.746  27.281  18.945  0.2394  0.0870 -0.2459
 4726POPS   C4B94685  21.963  26.970  18.638  0.0898  0.0824  0.0946
 4727POPS   CNO94686  31.800  25.280  19.991 -0.1947 -0.0977 -0.2972
 4727POPS   PO494687  31.915  25.256  19.616 -0.2092  0.1336  0.0279
 4727POPS   GL194688  32.243  25.166  19.437 -0.1410  0.0993 -0.2476
 4727POPS   GL294689  32.340  25.403  19.331 -0.1701  0.0253 -0.0490
 4727POPS   C1A94690  32.345  24.794  19.177 -0.2225  0.2774 -0.0403
 4727POPS   D2A94691  32.162  24.489  18.818 -0.1770 -0.2104  0.1538
 4727POPS   C3A94692  32.058  24.551  18.370 -0.1814 -0.1257 -0.3049
 4727POPS   C4A94693  31.789  24.294  18.063  0.1144  0.2024  0.3242
 4727POPS   C1B94694  32.370  25.197  18.915 -0.1316 -0.2058 -0.0197
 4727POPS   C2B94695  32.321  24.889  18.629  0.0125  0.0993 -0.1419
 4727POPS   C3B94696  32.501  24.760  18.266  0.0302 -0.0862 -0.0465
 4727POPS   C4B94697  32.667  24.576  17.874 -0.1262  0.1856  0.0354
 4728POPS   CNO94698  16.159  20.860  19.590  0.0962 -0.2628 -0.0012
 4728POPS   PO494699  16.153  21.233  19.539  0.1222 -0.0619 -0.1964
 4728POPS   GL194700  16.317  21.157  19.178 -0.1081 -0.1108 -0.2884
 4728POPS   GL294701  16.383  21.363  18.964 -0.1101  0.0160 -0.2472
 4728POPS   C1A94702  16.307  20.746  18.956  0.1053  0.1151  0.0505
 4728POPS   D2A94703  15.876  20.603  18.765 -0.2825  0.2929  0.1023
 4728POPS   C3A94704  15.912  20.268  18.454 -0.0258  0.1017  0.0588
 4728POPS   C4A94705  16.216  20.198  18.092  0.0719 -0.0593 -0.1592
 4728POPS   C1B94706  16.433  21.243  18.529  0.0780  0.0603 -0.0413
 4728POPS   C2B94707  16.376  21.417  18.084  0.1068  0.2512 -0.1704
 4728POPS   C3B94708  16.270  21.567  17.660  0.0531 -0.0684  0.0056
 4728POPS   C4B94709  16.322  21.852  17.321 -0.0785  0.1359 -0.0185
 4729POPS   CNO94710  19.613  18.565  20.261 -0.0187  0.0307 -0.0410
 4729POPS   PO494711  19.278  18.512  20.147  0.1831  0.1034  0.3700
 4729POPS   GL194712  19.438  18.200  19.918 -0.1039 -0.1301  0.1117
 4729POPS   GL294713  19.421  18.110  19.580  0.0774  0.0915 -0.0195
 4729POPS   C1A94714  19.794  17.898  19.792  0.1095 -0.1809 -0.1451
 4729POPS   D2A94715  19.916  17.428  19.726  0.3640 -0.2173 -0.2296
 4729POPS   C3A94716  20.085  17.050  19.661 -0.0313 -0.3354  0.0586
 4729POPS   C4A94717  20.454  17.002  19.472  0.4204 -0.1145 -0.1555
 4729POPS   C1B94718  19.751  17.843  19.287  0.0821 -0.1814  0.3665
 4729POPS   C2B94719  19.677  17.634  18.895  0.1521 -0.3498  0.0383
 4729POPS   C3B94720  19.666  17.596  18.418 -0.1599  0.1591  0.1831
 4729POPS   C4B94721  19.625  17.829  18.024 -0.0893 -0.1140 -0.1225
 4730POPS   CNO94722  20.133  17.768  20.223  0.2970 -0.3722 -0.1529
 4730POPS   PO494723  20.208  18.099  20.231  0.0891 -0.1749 -0.1638
 4730POPS   GL194724  20.271  18.019  19.820  0.0628  0.1087  0.1467
 4730POPS   GL294725  20.152  18.171  19.527 -0.1121 -0.0027  0.2442
 4730POPS   C1A94726  20.210  17.691  19.455 -0.1619  0.0335  0.1844
 4730POPS   D2A94727  20.045  17.354  19.161 -0.2261 -0.1722 -0.2019
 4730POPS   C3A94728  20.452  17.254  18.994 -0.3430 -0.0128  0.3343
 4730POPS   C4A94729  20.918  17.277  18.845  0.1983  0.1989  0.2308
 4730POPS   C1B94730  20.196  18.016  19.085  0.2244 -0.2235 -0.0688
 4730POPS   C2B94731  20.136  17.664  18.742  0.3609  0.0314  0.2170
 4730POPS   C3B94732  20.121  17.521  18.282 -0.0214  0.0488 -0.2279
 4730POPS   C4B94733  20.116  17.699  17.876 -0.4386  0.0538 -0.0555
 4731POPS   CNO94734  29.395  15.877  20.563  0.4153 -0.2349  0.1498
 4731POPS   PO494735  29.673  16.028  20.347  0.2292  0.0624  0.0937
 4731POPS   GL194736  29.651  16.165  19.950 -0.2073 -0.0477  0.3898
 4731POPS   GL294737  29.611  16.379  19.841  0.0474 -0.0438  0.2516
 4731POPS   C1A94738  29.925  16.006  19.620  0.2019  0.0012 -0.1102
 4731POPS   D2A94739  30.096  15.748  19.286  0.1573 -0.1009 -0.0681
 4731POPS   C3A94740  30.020  15.695  18.843  0.0487  0.1021 -0.1360
 4731POPS   C4A94741  30.200  15.493  18.442 -0.0303  0.0434  0.0975
 4731POPS   C1B94742  29.549  16.487  19.370  0.2259  0.0656 -0.0214
 4731POPS   C2B94743  29.443  16.330  18.949  0.1255 -0.2482  0.0675
 4731POPS   C3B94744  29.121  16.283  18.624 -0.1782 -0.1736  0.2334
 4731POPS   C4B94745  28.708  16.157  18.401 -0.0746  0.1178  0.0622
 4732POPS   CNO94746  19.977  20.803  20.102  0.0726 -0.1507 -0.3209
 4732POPS   PO494747  19.747  20.682  19.816  0.0084 -0.2204 -0.0251
 4732POPS   GL194748  19.707  20.500  19.446  0.3755 -0.0100  0.1295
 4732POPS   GL294749  19.932  20.584  19.309 -0.2158 -0.1953 -0.1265
 4732POPS   C1A94750  19.387  20.388  19.145 -0.3501 -0.0192  0.1099
 4732POPS   D2A94751  19.228  20.140  18.763  0.1652 -0.0856 -0.2690
 4732POPS   C3A94752  18.869  20.130  18.452 -0.3051  0.2311  0.2771
 4732POPS   C4A94753  18.750  19.852  18.161 -0.1405 -0.7044 -0.2048
 4732POPS   C1B94754  19.957  20.462  18.863  0.2823 -0.1271  0.1768
 4732POPS   C2B94755  19.855  20.483  18.460  0.1570  0.0102  0.0167
 4732POPS   C3B94756  19.681  20.551  17.995  0.1935 -0.3577  0.0324
 4732POPS   C4B94757  19.261  20.704  17.848  0.1649  0.0705 -0.1469
 4733POPS   CNO94758  25.458  31.209  20.088  0.0875 -0.2784 -0.1062
 4733POPS   PO494759  25.801  31.045  20.037 -0.1820 -0.0732  0.0809
 4733POPS   GL194760  26.149  31.009  19.784  0.1750 -0.0165  0.1450
 4733POPS   GL294761  26.238  30.686  19.773 -0.3715  0.2355 -0.2870
 4733POPS   C1A94762  26.473  30.980  19.450 -0.0277 -0.0634  0.1069
 4733POPS   D2A94763  26.654  30.755  19.080 -0.2344  0.0438 -0.2098
 4733POPS   C3A94764  26.502  30.724  18.647  0.1177  0.1666  0.1223
 4733POPS   C4A94765  26.078  30.862  18.424  0.1510 -0.3518  0.0930
 4733POPS   C1B94766  25.921  30.789  19.463 -0.0471 -0.0584 -0.0465
 4733POPS   C2B94767  25.725  30.559  19.118  0.2103 -0.1090  0.0810
 4733POPS   C3B94768  25.577  30.129  19.021  0.3387 -0.1384 -0.0340
 4733POPS   C4B94769  25.306  29.771  18.821 -0.1349 -0.1378 -0.1423
 4734POPS   CNO94770  28.915  27.815  20.557 -0.2319  0.0874  0.2813
 4734POPS   PO494771  28.963  28.186  20.572 -0.2029 -0.2688 -0.1214
 4734POPS   GL194772  28.707  28.137  20.155  0.0711 -0.2742  0.2484
 4734POPS   GL294773  28.511  27.985  20.045 -0.3045  0.0820 -0.4929
 4734POPS   C1A94774  28.917  28.355  19.824 -0.1595  0.1951 -0.2370
 4734POPS   D2A94775  28.966  28.462  19.403 -0.1830 -0.0946 -0.1329
 4734POPS   C3A94776  29.072  28.258  18.998  0.0825  0.1397  0.1796
 4734POPS   C4A94777  28.821  28.159  18.621  0.2946  0.2068 -0.2526
 4734POPS   C1B94778  28.489  28.005  19.568 -0.1126  0.0866 -0.2268
 4734POPS   C2B94779  28.198  28.085  19.236  0.0202  0.0577  0.2994
 4734POPS   C3B94780  28.370  28.186  18.813  0.0265 -0.4958 -0.0855
 4734POPS   C4B94781  28.299  28.363  18.415 -0.4099 -0.0474 -0.2785
 4735POPS   CNO94782  26.539  22.105  12.865  0.1836  0.4655 -0.2252
 4735POPS   PO494783  26.417  21.759  13.017 -0.4766  0.0526 -0.0647
 4735POPS   GL194784  25.993  21.668  13.005  0.4037  0.3346  0.2907
 4735POPS   GL294785  25.908  21.501  13.201  0.1185 -0.1317  0.0016
 4735POPS   C1A94786  25.604  21.373  12.892  0.1625  0.0622  0.1198
 4735POPS   D2A94787  25.199  21.109  12.859  0.0166  0.1186 -0.2448
 4735POPS   C3A94788  25.074  20.801  12.636 -0.3627  0.0238  0.0309
 4735POPS   C4A94789  25.075  20.389  12.509 -0.0328  0.2197 -0.0029
 4735POPS   C1B94790  26.095  21.219  12.930  0.0312  0.3132 -0.2437
 4735POPS   C2B94791  26.470  21.007  12.740 -0.2084  0.4272  0.0699
 4735POPS   C3B94792  26.877  21.001  12.468 -0.1904  0.2276 -0.1651
 4735POPS   C4B94793  27.113  20.701  12.089 -0.2751 -0.1023 -0.1726
 4736POPS   CNO94794  32.663  25.875  20.321 -0.3714  0.0744  0.0542
 4736POPS   PO494795  32.815  25.645  20.076  0.0684 -0.1821  0.1576
 4736POPS   GL194796  32.916  25.785  19.688  0.2352 -0.2960  0.0674
 4736POPS   GL294797  32.663  25.739  19.497 -0.0190  0.0422 -0.2838
 4736POPS   C1A94798  33.214  25.737  19.338  0.1389  0.0038 -0.2414
 4736POPS   D2A94799  33.522  26.060  19.152  0.1618 -0.0010 -0.3602
 4736POPS   C3A94800  33.622  26.065  18.693 -0.1539 -0.2079  0.3420
 4736POPS   C4A94801  33.555  25.689  18.376  0.3065 -0.1299 -0.2131
 4736POPS   C1B94802  32.382  25.980  19.232 -0.2095 -0.3336 -0.0689
 4736POPS   C2B94803  32.082  26.208  18.985  0.5676  0.2363  0.1572
 4736POPS   C3B94804  31.872  26.547  18.721  0.0301 -0.0181 -0.1078
 4736POPS   C4B94805  31.749  26.980  18.863 -0.1319  0.2487  0.0215
 4737POPS   CNO94806  16.445  16.491  20.271 -0.2686  0.2760 -0.1036
 4737POPS   PO494807  16.643  16.711  19.990  0.0200  0.3398  0.0549
 4737POPS   GL194808  16.480  16.754  19.652  0.1461  0.2286  0.2520
 4737POPS   GL294809  16.172  16.782  19.725 -0.0927  0.1824 -0.0390
 4737POPS   C1A94810  16.461  16.435  19.323 -0.0913  0.1065  0.1447
 4737POPS   D2A94811  16.374  15.982  19.339  0.1230  0.0415 -0.0508
 4737POPS   C3A94812  16.104  15.714  19.135 -0.1828 -0.2594 -0.3122
 4737POPS   C4A94813  15.994  15.318  18.927  0.1010  0.0112  0.1987
 4737POPS   C1B94814  15.940  16.746  19.317  0.2492  0.1004 -0.2571
 4737POPS   C2B94815  15.793  16.692  18.916  0.1160 -0.3804 -0.1150
 4737POPS   C3B94816  15.713  16.513  18.495 -0.0487  0.3507 -0.4460
 4737POPS   C4B94817  15.740  16.052  18.233  0.0423 -0.2440 -0.1388
 4738POPS   CNO94818  18.867  24.530  20.801 -0.2466  0.1184  0.0645
 4738POPS   PO494819  18.620  24.440  20.493  0.2170 -0.2708 -0.0253
 4738POPS   GL194820  18.493  24.572  20.180 -0.1261  0.2216 -0.1050
 4738POPS   GL294821  18.451  24.893  20.201  0.0171 -0.1189 -0.0360
 4738POPS   C1A94822  18.205  24.650  19.792  0.0436  0.2440 -0.1591
 4738POPS   D2A94823  18.132  24.744  19.373 -0.2205  0.2958 -0.1109
 4738POPS   C3A94824  17.737  24.880  19.186 -0.1145  0.1203  0.1248
 4738POPS   C4A94825  17.574  24.792  18.734  0.0116 -0.0193  0.1389
 4738POPS   C1B94826  18.622  24.910  19.835  0.1801  0.2543  0.3143
 4738POPS   C2B94827  18.833  25.146  19.511 -0.1385 -0.1708  0.1588
 4738POPS   C3B94828  18.829  25.143  19.027 -0.1241 -0.1772  0.1320
 4738POPS   C4B94829  18.546  25.151  18.571 -0.2969  0.0110  0.1216
 4739POPS   CNO94830  26.948  21.806  11.703  0.2893 -0.2404  0.0092
 4739POPS   PO494831  27.144  22.124  11.666 -0.0557  0.2652  0.2311
 4739POPS   GL194832  27.460  21.948  11.459 -0.2005 -0.1185  0.2721
 4739POPS   GL294833  27.321  21.700  11.356 -0.1776 -0.0950 -0.0177
 4739POPS   C1A94834  27.798  21.669  11.541  0.1293 -0.1061 -0.0626
 4739POPS   D2A94835  27.995  21.775  12.010  0.1850 -0.0290  0.2413
 4739POPS   C3A94836  28.172  21.345  12.166 -0.4406 -0.3727  0.0485
 4739POPS   C4A94837  28.287  21.068  12.489  0.3611  0.0997 -0.1166
 4739POPS   C1B94838  27.564  21.284  11.196 -0.2045  0.0635  0.4193
 4739POPS   C2B94839  27.795  20.900  11.277  0.1511 -0.0256 -0.2601
 4739POPS   C3B94840  28.138  20.580  11.424 -0.1299  0.0334  0.1954
 4739POPS   C4B94841  28.467  20.318  11.214  0.0335 -0.1500  0.2613
 4740POPS   CNO94842  19.109  30.200  21.099 -0.2263 -0.1836 -0.2757
 4740POPS   PO494843  18.764  30.084  20.972  0.1796 -0.1615 -0.2164
 4740POPS   GL194844  18.723  30.220  20.607  0.0102  0.0666 -0.1097
 4740POPS   GL294845  19.036  30.238  20.528 -0.2549 -0.2272 -0.2173
 4740POPS   C1A94846  18.650  30.140  20.166  0.2005  0.0313  0.0885
 4740POPS   D2A94847  18.356  30.202  19.836  0.1044 -0.4895  0.1604
 4740POPS   C3A94848  18.249  30.548  19.534 -0.0141 -0.2504  0.0645
 4740POPS   C4A94849  18.367  30.914  19.300 -0.0542  0.0370  0.1199
 4740POPS   C1B94850  19.195  30.246  20.103  0.1694  0.2071 -0.0899
 4740POPS   C2B94851  19.289  30.162  19.618  0.2314 -0.0871  0.0173
 4740POPS   C3B94852  19.244  30.156  19.108 -0.1831  0.0793  0.0597
 4740POPS   C4B94853  19.248  29.950  18.725  0.1755 -0.0489  0.1626
 4741POPS   CNO94854  25.628  20.558  15.405 -0.1032  0.1645 -0.2768
 4741POPS   PO494855  25.565  20.650  15.796  0.1248  0.2096  0.1423
 4741POPS   GL194856  25.301  20.331  15.727  0.2569 -0.0101 -0.0575
 4741POPS   GL294857  24.940  20.324  15.782 -0.1825  0.1099  0.1841
 4741POPS   C1A94858  25.191  20.191  15.321  0.3277 -0.2654  0.1730
 4741POPS   D2A94859  24.865  19.998  15.025 -0.0149 -0.0813 -0.0023
 4741POPS   C3A94860  24.681  19.675  14.694 -0.1796  0.0026 -0.0101
 4741POPS   C4A94861  24.368  19.601  14.408 -0.2639 -0.2793 -0.2790
 4741POPS   C1B94862  24.727  20.402  15.430 -0.1765  0.0205 -0.0000
 4741POPS   C2B94863  24.632  20.386  14.957  0.0856  0.1289 -0.1683
 4741POPS   C3B94864  24.394  20.274  14.549  0.0496  0.0939  0.0088
 4741POPS   C4B94865  24.100  20.163  14.193  0.2864 -0.1718 -0.2416
 4742POPS   CNO94866  28.482  22.414  16.617 -0.2027  0.1820  0.1709
 4742POPS   PO494867  28.346  22.190  16.299 -0.0113  0.2458  0.2335
 4742POPS   GL194868  28.497  22.337  16.095 -0.3672  0.3275 -0.0279
 4742POPS   GL294869  28.616  22.578  16.180 -0.3321 -0.3701 -0.1399
 4742POPS   C1A94870  28.944  22.290  15.937 -0.2478  0.1302  0.0612
 4742POPS   D2A94871  29.379  22.544  15.975  0.0746  0.2398  0.4462
 4742POPS   C3A94872  29.373  23.014  15.920 -0.3475  0.0466 -0.0304
 4742POPS   C4A94873  29.520  23.179  15.519  0.2607  0.1836 -0.1558
 4742POPS   C1B94874  29.034  22.653  16.316 -0.2524 -0.0288 -0.1551
 4742POPS   C2B94875  29.470  22.828  16.400  0.0599 -0.0062 -0.2438
 4742POPS   C3B94876  29.699  23.214  16.381 -0.2518 -0.1567  0.0557
 4742POPS   C4B94877  30.112  23.469  16.363 -0.0060 -0.3074 -0.0166
 4743POPS   CNO94878  21.882  19.368  19.411 -0.1493  0.1283 -0.1720
 4743POPS   PO494879  21.875  19.035  19.220  0.0901 -0.0539 -0.4499
 4743POPS   GL194880  21.833  18.859  18.914 -0.4373  0.1571  0.1183
 4743POPS   GL294881  21.731  18.575  18.956  0.0843 -0.1076 -0.1717
 4743POPS   C1A94882  21.771  18.740  18.432  0.1843  0.0850  0.0260
 4743POPS   D2A94883  21.730  18.660  17.937  0.0516 -0.1723 -0.1857
 4743POPS   C3A94884  21.605  19.071  17.704  0.1922 -0.3555 -0.0678
 4743POPS   C4A94885  21.543  19.324  17.344  0.2231 -0.1862 -0.0126
 4743POPS   C1B94886  21.648  18.244  18.594 -0.0548  0.1527 -0.0631
 4743POPS   C2B94887  21.433  17.899  18.364  0.0253 -0.1965  0.1003
 4743POPS   C3B94888  21.165  17.740  17.980  0.2402 -0.0450 -0.2592
 4743POPS   C4B94889  21.241  17.457  17.548 -0.1378 -0.2155 -0.2520
 4744POPS   CNO94890  18.418  21.449  19.905  0.0679  0.0145 -0.0910
 4744POPS   PO494891  18.169  21.453  19.606 -0.0583 -0.0881  0.1162
 4744POPS   GL194892  18.165  21.300  19.236  0.2893  0.1354 -0.5360
 4744POPS   GL294893  18.405  21.216  19.180 -0.0631  0.0739  0.3365
 4744POPS   C1A94894  17.740  21.172  19.058 -0.2430 -0.1141 -0.2622
 4744POPS   D2A94895  17.528  20.808  18.893  0.0005 -0.2451 -0.4160
 4744POPS   C3A94896  17.718  20.682  18.449  0.0467 -0.1205  0.0850
 4744POPS   C4A94897  18.036  20.679  18.149 -0.1612  0.0130  0.0001
 4744POPS   C1B94898  18.255  21.434  18.823  0.0372 -0.1171 -0.0177
 4744POPS   C2B94899  18.278  21.596  18.406 -0.1706  0.1706 -0.0354
 4744POPS   C3B94900  18.270  21.821  18.017  0.3898 -0.2767 -0.1611
 4744POPS   C4B94901  18.404  22.258  17.933 -0.4536  0.0584 -0.1235
 4745POPS   CNO94902  25.594  27.189  20.500  0.1848 -0.1865  0.0685
 4745POPS   PO494903  25.418  27.465  20.284  0.0695 -0.0312  0.0786
 4745POPS   GL194904  25.448  27.587  19.966  0.1052 -0.4173  0.0057
 4745POPS   GL294905  25.506  27.387  19.740 -0.0092  0.1048  0.0851
 4745POPS   C1A94906  25.770  27.750  19.654  0.0797 -0.0262 -0.0384
 4745POPS   D2A94907  25.813  27.886  19.196  0.1768  0.2541 -0.0844
 4745POPS   C3A94908  25.787  27.673  18.813  0.2367 -0.0752 -0.0464
 4745POPS   C4A94909  25.856  27.725  18.358 -0.0366 -0.1657  0.1788
 4745POPS   C1B94910  25.433  27.427  19.287  0.1673 -0.0210 -0.0772
 4745POPS   C2B94911  25.454  27.301  18.862  0.0116 -0.2074  0.1674
 4745POPS   C3B94912  25.357  27.516  18.443  0.0068  0.3244 -0.0550
 4745POPS   C4B94913  25.428  27.794  18.048  0.0279  0.1126 -0.1819
 4746POPS   CNO94914  16.736  22.253  19.924 -0.0242  0.2582 -0.0348
 4746POPS   PO494915  16.967  22.549  19.834 -0.0169  0.2919  0.5125
 4746POPS   GL194916  16.967  22.649  19.447  0.1403 -0.2369  0.2689
 4746POPS   GL294917  17.261  22.814  19.467  0.0355 -0.1034 -0.4413
 4746POPS   C1A94918  16.741  22.893  19.121 -0.0919 -0.0774  0.1450
 4746POPS   D2A94919  16.792  23.140  18.751 -0.0176 -0.0955 -0.0975
 4746POPS   C3A94920  16.828  23.051  18.301  0.0341  0.0886 -0.3883
 4746POPS   C4A94921  17.106  22.938  17.946  0.0366  0.0730 -0.0640
 4746POPS   C1B94922  17.245  22.795  18.989 -0.0255 -0.1595 -0.1792
 4746POPS   C2B94923  17.359  22.431  18.784 -0.0914 -0.2775 -0.0935
 4746POPS   C3B94924  17.601  22.194  18.433  0.1471  0.3192  0.0919
 4746POPS   C4B94925  17.686  22.082  17.988  0.1619 -0.3478 -0.0358
 4747POPS   CNO94926  26.925  26.489  19.786 -0.0494 -0.0378  0.0250
 4747POPS   PO494927  27.267  26.719  19.725 -0.1671  0.1026 -0.1609
 4747POPS   GL194928  27.447  26.788  19.436  0.4037 -0.0419 -0.3748
 4747POPS   GL294929  27.688  26.886  19.389  0.0407 -0.0257  0.1866
 4747POPS   C1A94930  27.327  27.174  19.179  0.0078  0.0043 -0.0977
 4747POPS   D2A94931  27.252  27.579  18.983  0.0232  0.1458  0.3804
 4747POPS   C3A94932  27.043  27.722  18.621 -0.2800  0.0823  0.0520
 4747POPS   C4A94933  26.821  27.914  18.287  0.0432  0.2660 -0.1108
 4747POPS   C1B94934  27.736  27.365  19.407  0.0539 -0.2340  0.0667
 4747POPS   C2B94935  27.876  27.692  19.116 -0.0238  0.0686  0.2536
 4747POPS   C3B94936  27.935  27.829  18.673 -0.2465  0.1251  0.0478
 4747POPS   C4B94937  27.839  28.099  18.334  0.1054 -0.1112 -0.1079
 4748POPS   CNO94938  30.944  19.634  19.152 -0.0324 -0.0320 -0.0086
 4748POPS   PO494939  31.214  19.394  19.066  0.0819  0.2044 -0.1247
 4748POPS   GL194940  31.216  19.113  18.747 -0.1549  0.1352  0.2979
 4748POPS   GL294941  30.928  18.986  18.904 -0.2788 -0.1319  0.1818
 4748POPS   C1A94942  31.471  18.990  18.382  0.3957 -0.0816  0.0199
 4748POPS   D2A94943  31.691  18.915  17.950 -0.0337  0.3280 -0.0798
 4748POPS   C3A94944  31.429  18.914  17.608  0.0598  0.2068  0.0366
 4748POPS   C4A94945  31.332  18.666  17.197  0.2338  0.1678  0.0444
 4748POPS   C1B94946  30.916  18.872  18.430 -0.0132 -0.0834 -0.2860
 4748POPS   C2B94947  31.091  18.757  18.064  0.0438 -0.0340 -0.1868
 4748POPS   C3B94948  30.985  18.644  17.587 -0.1622 -0.0599 -0.0511
 4748POPS   C4B94949  30.762  18.573  17.190  0.2741  0.0831  0.2190
 4749POPS   CNO94950  17.694  29.829  20.868  0.0266 -0.0019 -0.1080
 4749POPS   PO494951  17.381  29.739  20.667 -0.1638 -0.0962 -0.2160
 4749POPS   GL194952  17.409  30.033  20.357 -0.2785 -0.1378  0.1926
 4749POPS   GL294953  17.674  30.066  20.404 -0.0675  0.3402  0.3712
 4749POPS   C1A94954  17.473  30.167  19.943  0.0228 -0.0039  0.1446
 4749POPS   D2A94955  17.472  30.570  19.725  0.1659 -0.0056 -0.1218
 4749POPS   C3A94956  17.408  30.625  19.231  0.3695 -0.1157 -0.1923
 4749POPS   C4A94957  17.518  30.915  18.884 -0.0175  0.0286 -0.3507
 4749POPS   C1B94958  18.117  29.952  20.227 -0.0353 -0.0332  0.0218
 4749POPS   C2B94959  18.472  29.690  19.997 -0.0404  0.2325  0.4050
 4749POPS   C3B94960  18.748  29.395  19.767  0.0753  0.0982 -0.0034
 4749POPS   C4B94961  18.567  28.996  19.666 -0.0472 -0.0402 -0.1064
 4750POPS   CNO94962  25.048  25.510  19.231  0.0641  0.0241 -0.0300
 4750POPS   PO494963  25.353  25.651  19.027  0.3610  0.2028 -0.0222
 4750POPS   GL194964  25.483  25.670  18.640 -0.1668  0.1851 -0.2221
 4750POPS   GL294965  25.717  25.815  18.508 -0.3012  0.1482 -0.2487
 4750POPS   C1A94966  25.224  25.911  18.325 -0.3303 -0.0606 -0.1306
 4750POPS   D2A94967  24.813  25.855  18.171  0.1514 -0.1997  0.1588
 4750POPS   C3A94968  24.623  25.985  17.753  0.1541  0.2007  0.3108
 4750POPS   C4A94969  24.636  25.872  17.309 -0.2948 -0.0375 -0.0127
 4750POPS   C1B94970  25.640  26.160  18.183  0.2150 -0.2912 -0.0652
 4750POPS   C2B94971  25.245  26.424  18.101 -0.0228 -0.0245  0.2916
 4750POPS   C3B94972  24.896  26.517  18.340 -0.1207  0.1126 -0.0504
 4750POPS   C4B94973  24.510  26.367  18.174 -0.0301 -0.1938 -0.0305
 4751POPS   CNO94974  25.186  19.789  17.247 -0.1654 -0.0422  0.2712
 4751POPS   PO494975  25.089  19.914  16.921  0.1223  0.2078 -0.0410
 4751POPS   GL194976  24.864  19.749  16.616 -0.1241  0.0453  0.3404
 4751POPS   GL294977  24.590  19.835  16.654 -0.0572  0.2412  0.1018
 4751POPS   C1A94978  24.685  19.430  16.311 -0.1361  0.1030 -0.2456
 4751POPS   D2A94979  24.467  19.191  15.947 -0.1602  0.2308 -0.0027
 4751POPS   C3A94980  24.343  19.424  15.532 -0.2017 -0.1069  0.4420
 4751POPS   C4A94981  24.601  19.323  15.093 -0.1407 -0.2801 -0.3528
 4751POPS   C1B94982  24.227  19.607  16.546 -0.1310  0.0743  0.2075
 4751POPS   C2B94983  23.980  19.519  16.136 -0.1018 -0.2110  0.0195
 4751POPS   C3B94984  23.881  19.157  15.851 -0.3471  0.1474  0.0342
 4751POPS   C4B94985  23.503  18.965  15.922 -0.2119 -0.1278  0.0635
 4752POPS   CNO94986  25.946  20.187  16.407 -0.1131  0.1818 -0.1448
 4752POPS   PO494987  26.138  20.026  16.718  0.0608  0.2582 -0.4928
 4752POPS   GL194988  26.253  19.645  16.573 -0.1128 -0.1295  0.0272
 4752POPS   GL294989  26.008  19.587  16.438 -0.1274 -0.1010  0.0480
 4752POPS   C1A94990  26.296  19.208  16.321  0.1134 -0.1126 -0.2103
 4752POPS   D2A94991  26.418  18.903  15.997  0.1171 -0.1152 -0.3051
 4752POPS   C3A94992  26.168  18.578  15.981 -0.2219 -0.1215  0.4041
 4752POPS   C4A94993  25.804  18.470  15.777 -0.1022 -0.1294  0.0123
 4752POPS   C1B94994  26.319  19.583  16.065 -0.1460 -0.0549  0.0193
 4752POPS   C2B94995  26.683  19.353  16.047  0.2010  0.0801 -0.1573
 4752POPS   C3B94996  26.917  18.924  16.002 -0.3219  0.1005  0.4608
 4752POPS   C4B94997  27.186  18.612  15.901 -0.1229  0.0973 -0.4718
 4753POPS   CNO94998  27.542  30.465  20.325  0.0882  0.1067 -0.0131
 4753POPS   PO494999  27.291  30.591  20.073 -0.1164  0.0150  0.0680
 4753POPS   GL195000  27.649  30.518  19.869 -0.2479 -0.2116 -0.0227
 4753POPS   GL295001  27.752  30.276  19.877 -0.3949 -0.0026 -0.0302
 4753POPS   C1A95002  27.881  30.795  19.564  0.1442  0.0896  0.0938
 4753POPS   D2A95003  27.822  31.071  19.156  0.0798  0.2662 -0.0005
 4753POPS   C3A95004  27.495  30.964  19.019  0.4142 -0.2202 -0.0025
 4753POPS   C4A95005  27.087  30.917  18.791 -0.0130  0.0721  0.0439
 4753POPS   C1B95006  27.738  30.333  19.402  0.2225  0.0310  0.2640
 4753POPS   C2B95007  27.764  30.600  18.997 -0.1342 -0.0002  0.4358
 4753POPS   C3B95008  27.563  30.660  18.609  0.0591  0.0519  0.0256
 4753POPS   C4B95009  27.204  30.797  18.325  0.2774  0.1962 -0.4262
 4754POPS   CNO95010   1.780  28.598  20.875 -0.1398  0.3224 -0.0827
 4754POPS   PO495011   1.494  28.636  20.601 -0.3245 -0.2083  0.0216
 4754POPS   GL195012   1.392  28.455  20.248 -0.2541  0.1873 -0.2574
 4754POPS   GL295013   1.513  28.676  20.066 -0.2861  0.0651 -0.2092
 4754POPS   C1A95014   1.599  28.169  19.980  0.3823  0.1580 -0.0659
 4754POPS   D2A95015   1.999  28.062  19.996  0.1820  0.1123  0.1013
 4754POPS   C3A95016   2.187  27.633  20.037  0.0141 -0.1997  0.0236
 4754POPS   C4A95017   2.425  27.443  19.693 -0.0857 -0.3276 -0.3389
 4754POPS   C1B95018   1.299  28.480  19.738 -0.0801  0.0224 -0.0930
 4754POPS   C2B95019   1.382  28.413  19.333  0.1312 -0.1271  0.1213
 4754POPS   C3B95020   1.295  28.832  19.087  0.0809 -0.1985 -0.3780
 4754POPS   C4B95021   1.389  29.265  18.844 -0.3636 -0.1209 -0.0638
 4755POPS   CNO95022  18.383  16.866  20.071  0.2738  0.1827 -0.1830
 4755POPS   PO495023  18.456  17.159  19.844  0.0923 -0.0468  0.1836
 4755POPS   GL195024  18.240  17.176  19.532 -0.1276 -0.0530 -0.0236
 4755POPS   GL295025  18.210  16.853  19.485 -0.0284 -0.0262 -0.1427
 4755POPS   C1A95026  18.355  17.197  19.078 -0.2981  0.3191  0.2732
 4755POPS   D2A95027  18.496  17.319  18.676 -0.1628 -0.1265  0.0151
 4755POPS   C3A95028  18.858  17.662  18.700 -0.3610 -0.0172  0.1135
 4755POPS   C4A95029  18.789  18.178  18.592 -0.0322  0.2857 -0.0659
 4755POPS   C1B95030  17.976  16.920  19.041  0.1507 -0.1053 -0.1905
 4755POPS   C2B95031  17.915  16.634  18.663 -0.0198  0.4196 -0.0263
 4755POPS   C3B95032  17.741  16.268  18.474 -0.1390  0.0776  0.0876
 4755POPS   C4B95033  17.379  16.062  18.337  0.2352 -0.0819 -0.1821
 4756POPS   CNO95034  29.050  18.404  19.842  0.2748  0.0225  0.2886
 4756POPS   PO495035  29.109  18.208  19.512  0.1949 -0.1129  0.0708
 4756POPS   GL195036  29.311  17.846  19.336 -0.0039 -0.1268  0.1430
 4756POPS   GL295037  29.279  17.518  19.390 -0.2402  0.1138 -0.0221
 4756POPS   C1A95038  29.472  17.865  18.894  0.0892  0.1302  0.0496
 4756POPS   D2A95039  29.789  17.969  18.572 -0.0429  0.1391  0.0081
 4756POPS   C3A95040  29.983  17.832  18.159 -0.3282 -0.2098  0.0757
 4756POPS   C4A95041  30.146  17.744  17.717  0.0678 -0.1276  0.0446
 4756POPS   C1B95042  29.481  17.325  19.032 -0.2284  0.2249  0.1550
 4756POPS   C2B95043  29.528  17.258  18.576 -0.1459 -0.0023  0.2594
 4756POPS   C3B95044  29.556  17.018  18.256 -0.1260 -0.0043 -0.2479
 4756POPS   C4B95045  29.314  16.774  17.941  0.3082 -0.1150  0.2153
 4757POPS   CNO95046  25.601  16.435  19.593 -0.0136 -0.1964  0.0590
 4757POPS   PO495047  25.365  16.469  19.284 -0.2969 -0.0405 -0.1639
 4757POPS   GL195048  25.307  16.111  19.100  0.1254  0.0501  0.0942
 4757POPS   GL295049  25.273  15.861  19.115 -0.2653 -0.0201  0.0916
 4757POPS   C1A95050  25.394  16.061  18.646 -0.2816  0.0256 -0.2630
 4757POPS   D2A95051  25.421  16.333  18.314 -0.3128  0.5471 -0.2691
 4757POPS   C3A95052  25.297  15.984  17.991  0.2952  0.0669  0.1744
 4757POPS   C4A95053  25.228  15.539  17.806  0.1965 -0.0791 -0.1622
 4757POPS   C1B95054  25.151  15.612  18.727  0.0587  0.3325  0.0195
 4757POPS   C2B95055  25.011  15.467  18.289  0.0378 -0.3587  0.0732
 4757POPS   C3B95056  24.881  15.141  17.947 -0.1670 -0.4397  0.0404
 4757POPS   C4B95057  24.595  15.051  17.626  0.0702  0.1002 -0.0163
 4758POPS   CNO95058  16.765  26.873  20.852 -0.0753  0.2362 -0.3685
 4758POPS   PO495059  17.123  26.877  20.691 -0.1104 -0.2871 -0.1404
 4758POPS   GL195060  17.227  26.872  20.319 -0.0763 -0.0749  0.1290
 4758POPS   GL295061  17.122  26.608  20.249 -0.0025  0.3463 -0.2628
 4758POPS   C1A95062  17.601  26.725  20.075  0.0734  0.0775 -0.0596
 4758POPS   D2A95063  17.810  26.762  19.656 -0.1422  0.0847  0.0233
 4758POPS   C3A95064  18.095  27.043  19.436  0.1282 -0.1594 -0.0272
 4758POPS   C4A95065  18.315  26.963  19.068 -0.2986  0.0936 -0.0664
 4758POPS   C1B95066  17.024  26.750  19.821 -0.4151 -0.0710  0.0272
 4758POPS   C2B95067  16.951  26.826  19.402 -0.1180  0.2172 -0.0324
 4758POPS   C3B95068  17.006  27.049  18.992 -0.3979  0.3025 -0.0513
 4758POPS   C4B95069  16.871  26.948  18.602 -0.0991 -0.0946 -0.0931
 4759POPS   CNO95070  30.791  23.159  19.001  0.0639 -0.1904 -0.2372
 4759POPS   PO495071  30.669  23.505  19.084 -0.0773 -0.4346 -0.1204
 4759POPS   GL195072  30.918  23.554  18.730 -0.3994 -0.0829 -0.1590
 4759POPS   GL295073  30.695  23.726  18.591  0.2146  0.0732 -0.3194
 4759POPS   C1A95074  30.827  23.416  18.288  0.1277 -0.0210 -0.0761
 4759POPS   D2A95075  30.865  23.188  17.894 -0.1027 -0.0246 -0.0108
 4759POPS   C3A95076  31.023  23.347  17.507 -0.1512 -0.4140  0.5131
 4759POPS   C4A95077  31.066  23.796  17.304 -0.1798  0.0942 -0.2936
 4759POPS   C1B95078  31.082  23.841  18.400 -0.0495 -0.0502  0.0691
 4759POPS   C2B95079  31.568  23.868  18.447 -0.0172 -0.1852 -0.0138
 4759POPS   C3B95080  31.795  24.198  18.621 -0.0701 -0.1043 -0.0040
 4759POPS   C4B95081  32.061  24.035  18.910  0.1844  0.1385  0.2164
 4760POPS   CNO95082  25.513  23.039  15.253  0.1059 -0.0713  0.3474
 4760POPS   PO495083  25.674  23.030  14.909  0.0844  0.1786  0.1102
 4760POPS   GL195084  25.445  23.329  14.629 -0.3864  0.0074  0.4455
 4760POPS   GL295085  25.187  23.144  14.714  0.1670  0.0931 -0.1228
 4760POPS   C1A95086  25.280  23.757  14.519 -0.3281 -0.1458  0.1388
 4760POPS   D2A95087  25.268  24.193  14.267 -0.0540  0.0429  0.1221
 4760POPS   C3A95088  25.169  24.550  14.444 -0.0816  0.2706  0.2164
 4760POPS   C4A95089  24.855  24.574  14.741 -0.2983 -0.1127 -0.1651
 4760POPS   C1B95090  24.882  23.379  14.446  0.2331 -0.1858 -0.0096
 4760POPS   C2B95091  24.567  23.548  14.099  0.0842 -0.0271 -0.3836
 4760POPS   C3B95092  24.411  23.892  13.773 -0.2076  0.1231 -0.0403
 4760POPS   C4B95093  24.399  24.328  13.613 -0.1359 -0.2471  0.0060
 4761POPS   CNO95094  22.954  27.710  20.659  0.1608  0.1841  0.0137
 4761POPS   PO495095  22.849  27.871  20.366  0.1562  0.0287 -0.0943
 4761POPS   GL195096  22.837  28.031  19.966  0.4665 -0.1172  0.0856
 4761POPS   GL295097  23.058  28.202  19.985  0.0378 -0.1656  0.0447
 4761POPS   C1A95098  22.665  27.905  19.550  0.1468 -0.0733  0.0759
 4761POPS   D2A95099  22.441  27.509  19.322  0.1049  0.0400 -0.2718
 4761POPS   C3A95100  22.700  27.621  18.951  0.0355 -0.2431  0.2808
 4761POPS   C4A95101  22.865  27.766  18.501 -0.2488  0.3182  0.0905
 4761POPS   C1B95102  23.134  27.984  19.616 -0.0500 -0.1346  0.1290
 4761POPS   C2B95103  23.417  27.840  19.289 -0.1692 -0.0476  0.0924
 4761POPS   C3B95104  23.468  28.013  18.885 -0.1948 -0.2434 -0.0117
 4761POPS   C4B95105  23.597  27.995  18.451 -0.1170 -0.0386  0.2049
 4762POPS   CNO95106  24.883  24.668  18.512 -0.1990 -0.0600  0.1709
 4762POPS   PO495107  25.018  24.992  18.431  0.1835  0.1712  0.0692
 4762POPS   GL195108  25.022  25.116  18.085 -0.0641  0.1607  0.0955
 4762POPS   GL295109  25.151  25.424  18.053  0.0124  0.0111 -0.2230
 4762POPS   C1A95110  25.258  25.116  17.676 -0.2417 -0.4268  0.1246
 4762POPS   D2A95111  25.371  25.155  17.229 -0.0260 -0.2238  0.7265
 4762POPS   C3A95112  25.119  24.942  16.831  0.0384 -0.0748  0.1830
 4762POPS   C4A95113  24.880  24.781  16.503  0.0739  0.2617 -0.0609
 4762POPS   C1B95114  24.940  25.565  17.640 -0.1106 -0.1642  0.6040
 4762POPS   C2B95115  24.934  25.437  17.204  0.3814  0.0408 -0.2853
 4762POPS   C3B95116  24.961  25.661  16.810 -0.2199 -0.1287  0.2432
 4762POPS   C4B95117  25.258  26.003  16.729  0.4986 -0.2721  0.0713
 4763POPS   CNO95118  28.991  27.284  20.708 -0.2134 -0.0639 -0.1199
 4763POPS   PO495119  29.329  27.405  20.690 -0.0784 -0.2156 -0.2675
 4763POPS   GL195120  29.147  27.470  20.316  0.1889  0.1147 -0.2357
 4763POPS   GL295121  29.355  27.404  20.098 -0.1804 -0.1554  0.0825
 4763POPS   C1A95122  28.825  27.614  20.004  0.1884 -0.4003  0.2041
 4763POPS   D2A95123  28.392  27.521  19.818 -0.0185  0.2257  0.0544
 4763POPS   C3A95124  28.325  27.503  19.357  0.1146 -0.1441 -0.2781
 4763POPS   C4A95125  28.358  27.620  18.873 -0.2798 -0.0228 -0.0171
 4763POPS   C1B95126  29.264  27.699  19.729 -0.1412 -0.2369  0.0203
 4763POPS   C2B95127  28.977  27.951  19.516  0.0173 -0.1722  0.0011
 4763POPS   C3B95128  28.783  27.788  19.153 -0.0166  0.1506  0.2511
 4763POPS   C4B95129  28.838  27.642  18.725 -0.0007  0.0070 -0.2255
 4764POPS   CNO95130  19.689  17.522  20.233 -0.4989 -0.2959 -0.1656
 4764POPS   PO495131  19.343  17.383  20.354 -0.2942  0.1459 -0.0733
 4764POPS   GL195132  19.298  17.302  19.909  0.5044  0.0408 -0.0873
 4764POPS   GL295133  19.519  17.127  19.770  0.0557  0.0964  0.0085
 4764POPS   C1A95134  19.464  17.576  19.580 -0.3667 -0.1079  0.0461
 4764POPS   D2A95135  19.221  17.745  19.216  0.1518 -0.1926  0.0833
 4764POPS   C3A95136  19.281  17.905  18.745  0.1969 -0.0149  0.0861
 4764POPS   C4A95137  19.202  17.809  18.286  0.2083  0.0918  0.0501
 4764POPS   C1B95138  19.646  17.189  19.346  0.2162  0.1248 -0.2409
 4764POPS   C2B95139  19.608  17.090  18.836  0.0838  0.1100  0.0734
 4764POPS   C3B95140  19.341  16.862  18.455 -0.2172  0.1944  0.0246
 4764POPS   C4B95141  19.050  16.914  18.093  0.0005 -0.1721 -0.2146
 4765POPS   CNO95142  27.174  21.193  16.214 -0.1505 -0.0370  0.0899
 4765POPS   PO495143  27.147  20.811  16.191 -0.2933 -0.0253 -0.2488
 4765POPS   GL195144  27.304  20.668  15.831 -0.1787 -0.2857  0.0656
 4765POPS   GL295145  27.155  20.431  15.844  0.0756 -0.0130  0.0654
 4765POPS   C1A95146  27.569  20.407  15.533 -0.0299  0.1162 -0.2618
 4765POPS   D2A95147  27.979  20.310  15.341 -0.0332 -0.1755  0.2874
 4765POPS   C3A95148  28.455  20.164  15.307 -0.0972 -0.2471  0.0094
 4765POPS   C4A95149  28.789  20.222  15.000  0.2292 -0.1187  0.1668
 4765POPS   C1B95150  27.113  20.154  15.447 -0.0464  0.0509 -0.0840
 4765POPS   C2B95151  27.287  19.706  15.421 -0.2091  0.0840  0.0225
 4765POPS   C3B95152  27.103  19.271  15.629  0.1243 -0.1090  0.0927
 4765POPS   C4B95153  26.974  18.850  15.492 -0.1680  0.2468  0.0117
 4766POPS   CNO95154  31.385  28.658  20.276 -0.0921  0.0405 -0.3635
 4766POPS   PO495155  31.050  28.641  20.392  0.0707 -0.1251 -0.2371
 4766POPS   GL195156  31.078  28.456  20.057 -0.0028 -0.0173  0.1248
 4766POPS   GL295157  30.796  28.295  19.977  0.2905  0.1789  0.2680
 4766POPS   C1A95158  31.362  28.490  19.669  0.1318  0.1147  0.0361
 4766POPS   D2A95159  31.607  28.692  19.396  0.2827  0.0478  0.2861
 4766POPS   C3A95160  31.614  28.413  19.010  0.2988  0.0926  0.0407
 4766POPS   C4A95161  31.441  28.054  18.862  0.1304 -0.0066  0.1631
 4766POPS   C1B95162  30.902  28.605  19.593 -0.1848 -0.1076  0.1546
 4766POPS   C2B95163  30.810  28.735  19.189 -0.0486 -0.1777 -0.1141
 4766POPS   C3B95164  30.777  28.954  18.792  0.0451 -0.3278  0.0028
 4766POPS   C4B95165  30.616  29.105  18.416  0.1641 -0.0491 -0.0009
 4767POPS   CNO95166  26.677  19.672  18.356  0.3068 -0.0669  0.0983
 4767POPS   PO495167  26.609  19.357  18.104 -0.1674  0.1527 -0.2014
 4767POPS   GL195168  26.705  18.999  17.794  0.2024  0.2280 -0.3291
 4767POPS   GL295169  26.696  18.701  17.940  0.1184  0.2801 -0.0088
 4767POPS   C1A95170  26.397  18.856  17.459  0.0222  0.2686 -0.0241
 4767POPS   D2A95171  26.172  18.556  17.270 -0.0590  0.0258  0.2300
 4767POPS   C3A95172  25.948  18.177  17.314 -0.0488  0.0382  0.1428
 4767POPS   C4A95173  25.913  17.712  17.508  0.1429  0.1502 -0.0817
 4767POPS   C1B95174  27.071  18.592  17.600 -0.2688  0.3208 -0.2839
 4767POPS   C2B95175  27.187  18.234  17.321 -0.0148 -0.0193 -0.0290
 4767POPS   C3B95176  27.432  18.013  17.050  0.0360 -0.0299  0.2977
 4767POPS   C4B95177  27.399  18.040  16.616 -0.1915 -0.2717 -0.4117
 4768POPS   CNO95178  26.535  21.625  14.258 -0.0199  0.4691 -0.0195
 4768POPS   PO495179  26.410  21.406  13.953 -0.2241 -0.1123  0.0971
 4768POPS   GL195180  26.196  21.026  13.864  0.0047 -0.0725  0.0204
 4768POPS   GL295181  26.299  20.808  14.043  0.1341 -0.1346 -0.4579
 4768POPS   C1A95182  25.984  21.054  13.428  0.3822  0.3062 -0.0112
 4768POPS   D2A95183  25.597  21.030  13.190  0.0222 -0.0619  0.1441
 4768POPS   C3A95184  25.448  20.626  13.039  0.0372  0.0851 -0.1691
 4768POPS   C4A95185  25.283  20.220  12.942 -0.0722  0.1532  0.0124
 4768POPS   C1B95186  26.192  20.576  13.739 -0.0180 -0.1769  0.1962
 4768POPS   C2B95187  26.219  20.270  13.394 -0.3291  0.1101  0.0195
 4768POPS   C3B95188  26.437  19.855  13.288  0.1117 -0.0057  0.1443
 4768POPS   C4B95189  26.617  19.459  13.075 -0.0779  0.0123 -0.0198
 4769POPS   CNO95190  19.948  27.848  20.833 -0.0192  0.1357  0.1815
 4769POPS   PO495191  20.252  27.609  20.863  0.2344 -0.1590 -0.0831
 4769POPS   GL195192  20.270  27.640  20.416 -0.0760  0.2594 -0.1195
 4769POPS   GL295193  20.035  27.686  20.350  0.1661 -0.0214  0.0961
 4769POPS   C1A95194  20.396  27.494  19.969  0.1405 -0.1033 -0.2898
 4769POPS   D2A95195  20.698  27.677  19.727  0.0933 -0.0522  0.1924
 4769POPS   C3A95196  20.969  27.962  19.972 -0.1639  0.1436 -0.0053
 4769POPS   C4A95197  21.005  28.318  20.206  0.0703  0.1083 -0.1797
 4769POPS   C1B95198  19.973  27.810  19.925  0.5264  0.1661  0.0286
 4769POPS   C2B95199  19.623  27.997  19.671 -0.1460 -0.2173  0.2225
 4769POPS   C3B95200  19.383  28.195  19.269 -0.1315 -0.1858  0.2238
 4769POPS   C4B95201  19.192  28.232  18.878  0.2883 -0.2456  0.0100
 4770POPS   CNO95202  30.789  31.278  20.658  0.1706  0.2126 -0.2648
 4770POPS   PO495203  30.428  31.395  20.685  0.1493  0.0856 -0.0536
 4770POPS   GL195204  30.349  31.620  20.355 -0.0828 -0.0387 -0.2674
 4770POPS   GL295205  30.112  31.434  20.211  0.0390 -0.0109 -0.3489
 4770POPS   C1A95206  30.269  31.908  20.018  0.0376  0.0097  0.0887
 4770POPS   D2A95207  30.091  32.114  19.628  0.2425  0.2111  0.1743
 4770POPS   C3A95208  29.950  31.996  19.221  0.1379 -0.0084  0.1874
 4770POPS   C4A95209  29.928  31.829  18.810  0.0095 -0.0198 -0.0530
 4770POPS   C1B95210  30.338  31.205  19.799 -0.2060 -0.0829 -0.1574
 4770POPS   C2B95211  30.492  31.148  19.343 -0.0736  0.0290  0.2171
 4770POPS   C3B95212  30.611  30.981  18.913  0.0634 -0.1563 -0.0230
 4770POPS   C4B95213  30.904  30.612  18.829  0.1503 -0.1016 -0.1459
 4771POPS   CNO95214  28.866  24.185  18.672  0.1738 -0.1881  0.0588
 4771POPS   PO495215  28.618  24.329  18.385  0.0169  0.3632 -0.1743
 4771POPS   GL195216  28.771  24.610  18.042 -0.1009  0.2919 -0.1636
 4771POPS   GL295217  28.760  24.757  17.816 -0.1842  0.0617 -0.1111
 4771POPS   C1A95218  29.110  24.941  18.117 -0.2739 -0.2072 -0.1405
 4771POPS   D2A95219  29.338  25.316  17.995  0.2144 -0.1745 -0.0518
 4771POPS   C3A95220  29.327  25.767  17.857 -0.2164  0.0740  0.0120
 4771POPS   C4A95221  29.547  26.061  17.553  0.1562  0.2060  0.2941
 4771POPS   C1B95222  29.065  25.120  17.635 -0.1147  0.0828  0.2272
 4771POPS   C2B95223  29.245  25.486  17.395  0.1173 -0.0756  0.0431
 4771POPS   C3B95224  29.463  25.627  17.029  0.0885 -0.2101  0.1074
 4771POPS   C4B95225  29.739  25.422  16.732  0.0215 -0.2205  0.1192
 4772POPS   CNO95226  18.847  21.156  20.056  0.1391  0.2964  0.0312
 4772POPS   PO495227  18.987  20.997  19.737  0.0053  0.2133  0.0119
 4772POPS   GL195228  18.834  20.903  19.420 -0.4304 -0.1696 -0.1468
 4772POPS   GL295229  19.007  20.853  19.173  0.1839 -0.1622 -0.3221
 4772POPS   C1A95230  18.519  20.722  19.087 -0.1223  0.2391  0.1374
 4772POPS   D2A95231  18.102  20.817  18.954  0.3096 -0.0101  0.0389
 4772POPS   C3A95232  17.914  21.133  18.594  0.0182  0.1208 -0.2013
 4772POPS   C4A95233  18.059  21.253  18.137  0.1974 -0.1622 -0.1709
 4772POPS   C1B95234  18.895  20.974  18.732  0.0909  0.2891  0.3201
 4772POPS   C2B95235  19.026  21.130  18.301  0.2539  0.0967 -0.2808
 4772POPS   C3B95236  18.967  21.191  17.836 -0.1421 -0.1439  0.0580
 4772POPS   C4B95237  18.982  21.248  17.413 -0.0798  0.3744  0.0161
 4773POPS   CNO95238  23.142  23.264  18.584 -0.2127 -0.1688  0.0118
 4773POPS   PO495239  22.805  23.365  18.692 -0.2201 -0.0202  0.2724
 4773POPS   GL195240  22.384  23.364  18.599 -0.1448 -0.1081 -0.0078
 4773POPS   GL295241  22.388  23.057  18.691  0.2769  0.0746 -0.1635
 4773POPS   C1A95242  21.977  23.269  18.484  0.1295  0.1402  0.0387
 4773POPS   D2A95243  21.614  23.350  18.187  0.0230  0.0125  0.3813
 4773POPS   C3A95244  21.713  23.579  17.812  0.0090 -0.1266  0.0541
 4773POPS   C4A95245  22.054  23.782  17.546  0.0300 -0.3148  0.0494
 4773POPS   C1B95246  22.354  23.051  18.180  0.0393 -0.1174 -0.0896
 4773POPS   C2B95247  22.308  22.809  17.815  0.0119 -0.2150 -0.2235
 4773POPS   C3B95248  22.151  22.888  17.367  0.2538  0.1338 -0.1579
 4773POPS   C4B95249  22.269  22.906  16.886 -0.2137  0.0264 -0.2567
 4774SAP2    C195250  22.960  17.916  10.488  0.0361  0.4058 -0.0605
 4774SAP2    C295251  22.764  17.857  10.675  0.1777  0.0998 -0.0009
 4774SAP2    C395252  22.951  18.136  10.671  0.0463  0.1934  0.2024
 4774SAP2    C495253  22.892  17.970  10.612  0.2096  0.1484 -0.5205
 4774SAP2   PO495254  22.878  17.831  10.195  0.0299  0.0967 -0.2534
 4774SAP2    P495255  22.850  18.254  10.895  0.1125  0.3098 -0.1082
 4774SAP2    P595256  22.790  17.842  10.994  0.3446  0.1086 -0.0316
 4774SAP2   GL195257  22.634  17.886   9.986  0.4155 -0.4092  0.0550
 4774SAP2   GL295258  22.678  18.198   9.903 -0.1377  0.1001 -0.1658
 4774SAP2   D1A95259  22.492  17.892   9.556 -0.4318 -0.0520 -0.0558
 4774SAP2   D2A95260  22.985  17.949   9.493 -0.0128 -0.1189  0.2020
 4774SAP2   D3A95261  23.165  18.346   9.256  0.1655  0.0932  0.0826
 4774SAP2   D4A95262  23.109  18.483   9.703  0.0811  0.0596 -0.1595
 4774SAP2   C5A95263  22.811  18.889   9.589 -0.0869 -0.2292 -0.1153
 4774SAP2   C1B95264  22.716  18.377   9.470  0.2583 -0.1752  0.4732
 4774SAP2   C2B95265  22.812  18.673   9.104 -0.1023 -0.2223  0.1025
 4774SAP2   C3B95266  22.902  18.960   8.702 -0.0650 -0.2102 -0.1162
 4774SAP2   C4B95267  23.060  19.275   8.392 -0.1845 -0.3425 -0.1727
 4775SAP2    C195268  31.700  23.186  10.583  0.0944 -0.1152 -0.1743
 4775SAP2    C295269  31.884  23.375  10.668 -0.0397 -0.0729  0.0291
 4775SAP2    C395270  31.956  23.057  10.585  0.1257 -0.0559  0.1039
 4775SAP2    C495271  31.846  23.206  10.612 -0.5930 -0.1916  0.2172
 4775SAP2   PO495272  31.504  23.372  10.398 -0.0595 -0.0782  0.2473
 4775SAP2    P495273  32.255  23.092  10.680 -0.0054 -0.2330 -0.1780
 4775SAP2    P595274  32.054  23.329  10.892  0.1092 -0.3344  0.0212
 4775SAP2   GL195275  31.191  23.255  10.426  0.0915 -0.0066  0.1879
 4775SAP2   GL295276  30.996  23.479  10.354  0.0192 -0.5915 -0.2908
 4775SAP2   D1A95277  31.001  22.860  10.405 -0.1701 -0.0154  0.0075
 4775SAP2   D2A95278  30.919  22.677   9.963 -0.0562 -0.1500  0.3118
 4775SAP2   D3A95279  30.983  23.014   9.584  0.0555 -0.1954 -0.1759
 4775SAP2   D4A95280  31.051  23.459   9.784 -0.0914  0.0005 -0.0798
 4775SAP2   C5A95281  30.591  23.372   9.778  0.0499 -0.1769  0.3594
 4775SAP2   C1B95282  30.584  23.241  10.261  0.0341 -0.1080 -0.2852
 4775SAP2   C2B95283  30.151  23.097  10.118 -0.1583  0.0595 -0.1226
 4775SAP2   C3B95284  29.776  22.919  10.037  0.0851 -0.0667  0.0618
 4775SAP2   C4B95285  29.692  22.490  10.081  0.0827  0.2359  0.0688
 4776SAP2    C195286  30.276  18.947  11.059  0.0560  0.0736 -0.2427
 4776SAP2    C295287  30.495  18.996  10.897  0.1501 -0.2756 -0.2295
 4776SAP2    C395288  30.410  18.696  11.023 -0.1195 -0.0742  0.0852
 4776SAP2    C495289  30.394  18.880  10.993 -0.6998  0.5340 -0.3161
 4776SAP2   PO495290  29.998  19.160  10.998  0.1654 -0.0494 -0.1982
 4776SAP2    P495291  30.641  18.566  10.987  0.0081  0.0410 -0.1564
 4776SAP2    P595292  30.787  18.989  10.931 -0.0503 -0.2455 -0.1010
 4776SAP2   GL195293  29.796  19.202  10.751  0.1120 -0.1793  0.0852
 4776SAP2   GL295294  29.786  19.454  10.716  0.2127 -0.3224 -0.4566
 4776SAP2   D1A95295  29.391  19.419  10.919 -0.0526  0.0317  0.0415
 4776SAP2   D2A95296  29.369  19.639  11.319 -0.4224 -0.1641  0.0030
 4776SAP2   D3A95297  28.958  19.485  11.227 -0.0970 -0.0325 -0.2690
 4776SAP2   D4A95298  29.088  19.213  11.541 -0.1122  0.1808 -0.1101
 4776SAP2   C5A95299  29.168  19.061  11.141  0.1104 -0.2027 -0.1317
 4776SAP2   C1B95300  29.547  19.804  10.521  0.0632  0.3016  0.0769
 4776SAP2   C2B95301  29.153  20.040  10.381 -0.1189 -0.4863 -0.0502
 4776SAP2   C3B95302  28.896  20.326  10.195  0.2006  0.0120  0.0825
 4776SAP2   C4B95303  28.955  20.602   9.808  0.2665  0.0947 -0.0014
 4777SAP2    C195304  21.230  18.544  10.328  0.2721 -0.0500  0.0444
 4777SAP2    C295305  21.218  18.350  10.525 -0.1004 -0.1590 -0.0766
 4777SAP2    C395306  21.014  18.616  10.501  0.3225  0.1850  0.0127
 4777SAP2    C495307  21.154  18.504  10.451 -0.2211  0.1244 -0.2403
 4777SAP2   PO495308  21.279  18.366  10.043  0.0199  0.1851  0.0512
 4777SAP2    P495309  20.836  18.674  10.713 -0.1999 -0.1117 -0.0298
 4777SAP2    P595310  21.261  18.404  10.846 -0.0073 -0.1821  0.0388
 4777SAP2   GL195311  21.319  18.453   9.663 -0.2123 -0.0263 -0.0147
 4777SAP2   GL295312  21.566  18.607   9.745  0.1695  0.0263 -0.1516
 4777SAP2   D1A95313  21.431  18.538   9.198  0.1315  0.0280 -0.2689
 4777SAP2   D2A95314  21.362  18.266   8.839  0.0716  0.2037 -0.1160
 4777SAP2   D3A95315  21.484  18.682   8.676  0.0725 -0.1566  0.0438
 4777SAP2   D4A95316  21.841  18.668   8.304 -0.0292 -0.2581  0.2862
 4777SAP2   C5A95317  22.115  19.074   8.471 -0.0336  0.0784  0.0992
 4777SAP2   C1B95318  21.796  18.870   9.389 -0.1005  0.2870 -0.1383
 4777SAP2   C2B95319  21.965  19.229   9.099 -0.0618  0.0723  0.3449
 4777SAP2   C3B95320  22.300  19.564   9.047  0.0657 -0.0682 -0.0140
 4777SAP2   C4B95321  22.724  19.713   9.174  0.0376 -0.2602  0.1641
 4778SAP2    C195322  19.206  17.832   9.016  0.0481 -0.0238  0.1035
 4778SAP2    C295323  18.996  17.844   9.196 -0.1415  0.0838 -0.1201
 4778SAP2    C395324  19.264  18.046   9.198 -0.0826  0.0063  0.1109
 4778SAP2    C495325  19.155  17.907   9.137  0.2349 -0.4589  0.0982
 4778SAP2   PO495326  19.113  17.788   8.756  0.0362  0.3288  0.0651
 4778SAP2    P495327  19.161  18.205   9.516  0.0857  0.1702  0.0895
 4778SAP2    P595328  19.010  17.727   9.444 -0.1861 -0.1792  0.2149
 4778SAP2   GL195329  19.381  17.854   8.466 -0.2182  0.3898 -0.0307
 4778SAP2   GL295330  19.295  18.081   8.369 -0.0389 -0.1718  0.2546
 4778SAP2   D1A95331  19.143  17.536   8.273 -0.0828 -0.1445  0.1008
 4778SAP2   D2A95332  18.911  17.803   7.961  0.0451  0.2557  0.0777
 4778SAP2   D3A95333  18.703  17.804   8.334 -0.1169 -0.3218  0.0548
 4778SAP2   D4A95334  18.258  17.912   8.175 -0.2129 -0.0875 -0.0091
 4778SAP2   C5A95335  18.162  18.008   7.767  0.0659  0.2042 -0.0090
 4778SAP2   C1B95336  19.467  17.914   8.001 -0.0832 -0.1246  0.0689
 4778SAP2   C2B95337  19.763  17.836   7.680  0.1120  0.1527  0.0010
 4778SAP2   C3B95338  19.812  17.757   7.205 -0.2598  0.0380  0.1779
 4778SAP2   C4B95339  19.905  17.640   6.730 -0.1880  0.0567  0.1890
 4779SAP2    C195340  23.880  18.183  10.824  0.2034 -0.0538 -0.0617
 4779SAP2    C295341  23.715  17.965  10.864 -0.1353  0.1591 -0.2560
 4779SAP2    C395342  23.757  18.218  11.080  0.0252  0.0527 -0.1604
 4779SAP2    C495343  23.784  18.122  10.923  0.5778 -1.2001  0.0563
 4779SAP2   PO495344  23.851  18.364  10.559  0.0604  0.1187 -0.0092
 4779SAP2    P495345  23.594  18.069  11.279  0.1429 -0.3189 -0.0147
 4779SAP2    P595346  23.631  17.711  11.093  0.0215  0.1455  0.0726
 4779SAP2   GL195347  24.054  18.452  10.416  0.1495  0.0504 -0.1272
 4779SAP2   GL295348  24.048  18.260  10.205 -0.2573  0.3244 -0.2182
 4779SAP2   D1A95349  24.495  18.569  10.393  0.5250 -0.0575  0.1654
 4779SAP2   D2A95350  24.270  18.873  10.161  0.2078 -0.0235 -0.0744
 4779SAP2   D3A95351  24.043  18.829   9.787  0.2711 -0.0796 -0.1515
 4779SAP2   D4A95352  24.324  19.228   9.795  0.2307 -0.3149  0.3129
 4779SAP2   C5A95353  24.417  19.375   9.370 -0.2656 -0.2948 -0.0788
 4779SAP2   C1B95354  24.355  18.397   9.946  0.0765  0.0959  0.0390
 4779SAP2   C2B95355  24.514  18.655   9.589 -0.2225 -0.0706 -0.0076
 4779SAP2   C3B95356  24.625  18.884   9.266  0.1439 -0.2380 -0.3116
 4779SAP2   C4B95357  24.855  19.119   8.935  0.2222  0.2054 -0.0882
 4780SAP2    C195358  19.952  17.604   9.361  0.0669 -0.0612 -0.0673
 4780SAP2    C295359  19.808  17.378   9.432 -0.1684  0.0245 -0.2595
 4780SAP2    C395360  19.824  17.662   9.611  0.0235 -0.0963 -0.0812
 4780SAP2    C495361  19.861  17.548   9.468 -0.7305 -0.2410 -0.2522
 4780SAP2   PO495362  19.956  17.693   9.027 -0.1084  0.3108 -0.1368
 4780SAP2    P495363  19.658  17.599   9.835 -0.0237  0.1052  0.0476
 4780SAP2    P595364  19.737  17.155   9.721 -0.1392  0.2071  0.0872
 4780SAP2   GL195365  20.160  17.782   8.808  0.2102 -0.0719  0.1497
 4780SAP2   GL295366  20.134  17.480   8.699  0.1900  0.0423 -0.3923
 4780SAP2   D1A95367  19.882  17.904   8.455 -0.1066 -0.0344 -0.2468
 4780SAP2   D2A95368  19.946  17.619   8.069 -0.1552 -0.0732 -0.2051
 4780SAP2   D3A95369  20.325  17.741   8.312  0.2992 -0.2503 -0.3853
 4780SAP2   D4A95370  20.439  17.736   7.880  0.0676  0.0232  0.1633
 4780SAP2   C5A95371  20.195  17.666   7.500 -0.0893  0.1320 -0.1201
 4780SAP2   C1B95372  20.061  17.171   8.345  0.1124  0.0736 -0.0856
 4780SAP2   C2B95373  20.091  17.141   7.926  0.0645  0.3843  0.0610
 4780SAP2   C3B95374  20.368  17.228   7.629 -0.1480 -0.1657 -0.1795
 4780SAP2   C4B95375  20.749  17.483   7.552  0.2356 -0.0665 -0.1158
 4781SAP2    C195376  18.271  26.808   8.797 -0.0524 -0.0239 -0.1045
 4781SAP2    C295377  18.194  26.969   9.009  0.1554 -0.1572  0.0762
 4781SAP2    C395378  18.479  27.002   8.834 -0.0481 -0.0027 -0.2353
 4781SAP2    C495379  18.315  26.926   8.880  0.9538 -0.8663  0.1113
 4781SAP2   PO495380  17.968  26.774   8.671  0.1478  0.2297 -0.2034
 4781SAP2    P495381  18.549  27.264   8.947  0.1830  0.4081  0.1394
 4781SAP2    P595382  18.158  27.049   9.298  0.0502  0.1319 -0.4559
 4781SAP2   GL195383  17.981  26.640   8.406  0.1544  0.0191 -0.0754
 4781SAP2   GL295384  17.895  26.435   8.217 -0.1903 -0.1286  0.1285
 4781SAP2   D1A95385  17.876  26.871   7.950  0.0090 -0.2014 -0.1131
 4781SAP2   D2A95386  17.418  26.930   7.823 -0.1233  0.2580 -0.0488
 4781SAP2   D3A95387  17.386  26.654   8.178 -0.0945  0.0027 -0.2342
 4781SAP2   D4A95388  17.331  26.180   8.272 -0.0685  0.0025 -0.1199
 4781SAP2   C5A95389  17.271  26.037   7.860  0.1308 -0.0863 -0.1901
 4781SAP2   C1B95390  17.639  26.378   7.873 -0.0310  0.1135  0.1484
 4781SAP2   C2B95391  17.562  26.256   7.460 -0.1220 -0.0263  0.2662
 4781SAP2   C3B95392  17.468  25.999   7.091  0.2408 -0.1351  0.1877
 4781SAP2   C4B95393  17.734  25.844   6.737 -0.1077  0.1005 -0.0253
 4782SAP2    C195394  22.274  26.777  10.649 -0.1130  0.1577 -0.1589
 4782SAP2    C295395  22.029  26.897  10.603 -0.2060  0.0008 -0.0822
 4782SAP2    C395396  22.224  26.951  10.871 -0.1755  0.0940 -0.1226
 4782SAP2    C495397  22.176  26.875  10.707  0.4220 -0.1473 -0.6678
 4782SAP2   PO495398  22.497  26.690  10.445 -0.1945 -0.0294  0.0828
 4782SAP2    P495399  21.987  27.163  11.041 -0.2151 -0.4142  0.0395
 4782SAP2    P595400  21.774  26.911  10.762  0.5137 -0.2127  0.3286
 4782SAP2   GL195401  22.673  26.464  10.469 -0.0011  0.2477  0.1279
 4782SAP2   GL295402  22.748  26.249  10.673  0.0513 -0.4241  0.0667
 4782SAP2   D1A95403  22.402  26.204  10.257 -0.1199 -0.1767 -0.2338
 4782SAP2   D2A95404  22.470  25.807  10.021 -0.0994 -0.0277 -0.0138
 4782SAP2   D3A95405  22.570  25.416   9.823  0.2119  0.0499  0.2579
 4782SAP2   D4A95406  22.733  25.765   9.539 -0.0491 -0.0263  0.0108
 4782SAP2   C5A95407  23.099  25.502   9.797 -0.0435 -0.2276 -0.1784
 4782SAP2   C1B95408  23.023  26.181  10.378 -0.0043 -0.2246 -0.1272
 4782SAP2   C2B95409  23.192  25.776  10.279  0.1957  0.0401  0.1292
 4782SAP2   C3B95410  23.311  25.310  10.306  0.1709  0.0482 -0.1068
 4782SAP2   C4B95411  23.611  24.957  10.319 -0.2088 -0.0741 -0.0987
 4783SAP2    C195412  28.792  30.816   8.760  0.1265  0.0669 -0.1302
 4783SAP2    C295413  28.930  30.893   8.987  0.0633  0.1244 -0.1109
 4783SAP2    C395414  28.626  30.750   8.984  0.1016  0.0436 -0.1556
 4783SAP2    C495415  28.783  30.820   8.910 -0.5765 -0.5495  0.0745
 4783SAP2   PO495416  29.057  30.723   8.514  0.0493  0.1730  0.1875
 4783SAP2    P495417  28.631  30.661   9.304 -0.2735  0.3516 -0.1231
 4783SAP2    P595418  28.934  31.126   9.211  0.5436 -0.1961  0.0544
 4783SAP2   GL195419  28.991  30.652   8.165 -0.0270 -0.3378 -0.2086
 4783SAP2   GL295420  29.222  30.626   8.024 -0.2014  0.2337 -0.1214
 4783SAP2   D1A95421  28.746  30.294   8.009  0.3167 -0.2658 -0.2912
 4783SAP2   D2A95422  28.503  30.490   7.675  0.1328 -0.1804  0.2445
 4783SAP2   D3A95423  28.441  30.835   7.374 -0.0197 -0.1378  0.1937
 4783SAP2   D4A95424  28.033  30.661   7.401 -0.3346 -0.1569 -0.0133
 4783SAP2   C5A95425  28.231  30.280   7.346  0.0983 -0.2252 -0.1863
 4783SAP2   C1B95426  29.027  30.498   7.647  0.1397 -0.1073 -0.2824
 4783SAP2   C2B95427  28.886  30.469   7.259 -0.0005  0.2222 -0.0359
 4783SAP2   C3B95428  28.574  30.558   6.931  0.2338 -0.2534  0.1442
 4783SAP2   C4B95429  28.315  30.739   6.610  0.4580  0.1997  0.0710
 4784SAP2    C195430  20.789  19.968  10.199  0.3327 -0.3826 -0.0505
 4784SAP2    C295431  20.528  19.876  10.196  0.1863  0.0138 -0.0489
 4784SAP2    C395432  20.714  19.925  10.472  0.1499  0.0331 -0.0278
 4784SAP2    C495433  20.677  19.923  10.289  0.1754 -0.6190  0.1309
 4784SAP2   PO495434  20.815  20.223  10.013 -0.0529 -0.2255 -0.1832
 4784SAP2    P495435  20.567  19.904  10.819 -0.0421  0.1947 -0.3130
 4784SAP2    P595436  20.240  19.800  10.438 -0.0560  0.1975  0.0691
 4784SAP2   GL195437  20.825  20.343   9.744 -0.0625 -0.1498 -0.2870
 4784SAP2   GL295438  20.698  20.613   9.646 -0.1656 -0.1585  0.3139
 4784SAP2   D1A95439  21.256  20.538   9.710  0.1586  0.1335 -0.2045
 4784SAP2   D2A95440  21.287  20.483   9.286 -0.1134  0.1174 -0.1371
 4784SAP2   D3A95441  21.163  20.915   9.443  0.2662 -0.1230 -0.0285
 4784SAP2   D4A95442  21.272  21.250   9.670 -0.3400  0.2629 -0.0417
 4784SAP2   C5A95443  21.467  21.433   9.278  0.1543 -0.0785 -0.0157
 4784SAP2   C1B95444  20.795  20.724   9.209  0.1142  0.2098 -0.3054
 4784SAP2   C2B95445  20.726  20.610   8.772 -0.0200  0.1258 -0.1967
 4784SAP2   C3B95446  20.914  20.704   8.387 -0.1981  0.1255 -0.0770
 4784SAP2   C4B95447  20.785  20.818   7.950 -0.1198 -0.1372  0.1479
 4785SAP2    C195448  22.191  18.280  10.286  0.3119  0.2992  0.0823
 4785SAP2    C295449  22.010  18.097  10.388  0.3743  0.0708 -0.2023
 4785SAP2    C395450  22.141  18.356  10.558 -0.0919  0.1487  0.0561
 4785SAP2    C495451  22.114  18.245  10.411  0.3870  0.6065  0.3180
 4785SAP2   PO495452  22.020  18.350   9.979  0.1517  0.5349 -0.1439
 4785SAP2    P495453  22.011  18.293  10.800  0.3982  0.1658  0.4899
 4785SAP2    P595454  21.973  17.916  10.638 -0.2025  0.2475 -0.0312
 4785SAP2   GL195455  22.264  18.375   9.769  0.0769 -0.3647  0.1625
 4785SAP2   GL295456  22.349  18.716   9.735  0.0259 -0.0949 -0.0230
 4785SAP2   D1A95457  21.957  18.401   9.419  0.2575  0.0657  0.0998
 4785SAP2   D2A95458  21.892  18.597   9.001 -0.0530 -0.0144  0.0591
 4785SAP2   D3A95459  22.304  18.553   8.850 -0.1972 -0.0092 -0.0477
 4785SAP2   D4A95460  22.320  18.636   8.398  0.2463  0.0134  0.1395
 4785SAP2   C5A95461  22.571  18.999   8.257  0.0645 -0.0977  0.2283
 4785SAP2   C1B95462  22.282  18.798   9.289  0.2126  0.1703 -0.0270
 4785SAP2   C2B95463  22.472  18.988   8.873  0.0981  0.5303  0.1350
 4785SAP2   C3B95464  22.634  19.370   8.623  0.1980  0.2234 -0.2985
 4785SAP2   C4B95465  22.521  19.824   8.703 -0.0855 -0.0398  0.2544
 4786SAP2    C195466  20.662  24.752  10.371 -0.2489 -0.0972  0.2813
 4786SAP2    C295467  20.461  24.937  10.324  0.0246  0.1126 -0.1211
 4786SAP2    C395468  20.658  24.930  10.596 -0.2767  0.1319  0.1033
 4786SAP2    C495469  20.593  24.873  10.430 -0.4966 -0.4649 -0.2107
 4786SAP2   PO495470  20.809  24.700  10.075  0.2094  0.0521 -0.2248
 4786SAP2    P495471  20.570  25.116  10.790 -0.0343  0.2294  0.3009
 4786SAP2    P595472  20.218  24.968  10.472 -0.3355  0.0836 -0.1053
 4786SAP2   GL195473  20.738  24.401  10.155 -0.1421 -0.0718  0.2553
 4786SAP2   GL295474  20.630  24.325   9.913 -0.0928 -0.0540 -0.0808
 4786SAP2   D1A95475  21.222  24.329  10.105 -0.2093 -0.4118  0.2253
 4786SAP2   D2A95476  21.209  24.441  10.525  0.1277  0.1977  0.1589
 4786SAP2   D3A95477  21.495  24.703  10.266  0.3546  0.2366 -0.0512
 4786SAP2   D4A95478  21.233  24.977   9.993 -0.1150  0.0903 -0.0032
 4786SAP2   C5A95479  21.499  24.783   9.696 -0.0177 -0.3149  0.1624
 4786SAP2   C1B95480  20.867  24.067   9.720  0.0646  0.1353  0.0947
 4786SAP2   C2B95481  21.254  24.115   9.508 -0.1474  0.2433  0.1462
 4786SAP2   C3B95482  21.636  24.290   9.465 -0.1354 -0.0444  0.1890
 4786SAP2   C4B95483  21.936  24.446   9.205  0.2669  0.1746  0.3663
 4787SAP2    C195484  23.321  32.242   4.630  0.1147  0.1987  0.0590
 4787SAP2    C295485  23.194  32.488   4.609 -0.4488 -0.0723  0.1116
 4787SAP2    C395486  23.221  32.261   4.363  0.1152  0.0497  0.0475
 4787SAP2    C495487  23.245  32.330   4.534 -0.9666  0.1203  0.0087
 4787SAP2   PO495488  23.140  32.150   4.937  0.1381 -0.2659 -0.0931
 4787SAP2    P495489  23.105  32.413   4.155 -0.1144 -0.1108  0.3086
 4787SAP2    P595490  23.156  32.729   4.354 -0.1396  0.0355  0.1798
 4787SAP2   GL195491  23.263  31.937   5.172 -0.0740 -0.0230  0.2190
 4787SAP2   GL295492  23.305  31.667   5.006  0.2135  0.1418 -0.1767
 4787SAP2   D1A95493  22.941  32.169   5.429 -0.2007 -0.1414 -0.0657
 4787SAP2   D2A95494  23.286  32.227   5.732 -0.0299  0.0201  0.1943
 4787SAP2   D3A95495  23.439  32.646   5.715 -0.2801 -0.2000  0.3346
 4787SAP2   D4A95496  23.044  32.791   5.437  0.0775  0.2726  0.2687
 4787SAP2   C5A95497  23.152  33.217   5.563  0.2478  0.0335  0.2601
 4787SAP2   C1B95498  23.432  31.320   5.250  0.1487  0.0196  0.0126
 4787SAP2   C2B95499  23.709  30.986   5.312 -0.1311 -0.0292 -0.1143
 4787SAP2   C3B95500  24.160  30.942   5.495 -0.0977  0.0878  0.1035
 4787SAP2   C4B95501  24.590  31.075   5.654  0.5331 -0.1647  0.0220
 4788SAP2    C195502  28.925  27.677   4.569 -0.0228  0.1669  0.0305
 4788SAP2    C295503  28.844  27.448   4.437  0.0532  0.2635 -0.1887
 4788SAP2    C395504  29.158  27.568   4.443  0.0979  0.1418  0.2697
 4788SAP2    C495505  28.976  27.564   4.483 -0.5326  0.1939  0.0726
 4788SAP2   PO495506  28.758  27.636   4.854  0.0466 -0.2783  0.0148
 4788SAP2    P495507  29.311  27.438   4.226  0.3041  0.2630  0.0218
 4788SAP2    P595508  28.791  27.431   4.128 -0.2236  0.0803  0.1874
 4788SAP2   GL195509  28.930  27.565   5.130  0.0285 -0.3059  0.1244
 4788SAP2   GL295510  29.098  27.505   5.327 -0.0532 -0.1491  0.2193
 4788SAP2   D1A95511  28.872  28.030   5.168 -0.0667 -0.3729  0.1683
 4788SAP2   D2A95512  28.599  28.025   5.579  0.0962 -0.3299 -0.3947
 4788SAP2   D3A95513  28.319  28.240   5.917 -0.0209  0.0117  0.0876
 4788SAP2   D4A95514  28.185  27.808   6.122 -0.0043  0.0229 -0.2336
 4788SAP2   C5A95515  28.249  27.861   6.605  0.1454  0.0142  0.1078
 4788SAP2   C1B95516  29.083  27.797   5.690  0.2837  0.2300  0.3838
 4788SAP2   C2B95517  28.874  28.071   6.021  0.0112  0.1134  0.0021
 4788SAP2   C3B95518  28.652  28.285   6.341  0.1901 -0.0037  0.1594
 4788SAP2   C4B95519  28.242  28.382   6.452  0.2824  0.1336 -0.2200
 4789SAP2    C195520  23.934  21.659   6.993  0.1331 -0.0954 -0.0491
 4789SAP2    C295521  24.208  21.662   6.953  0.1143  0.2933 -0.1879
 4789SAP2    C395522  24.013  21.934   6.986 -0.2675  0.0244 -0.1549
 4789SAP2    C495523  24.052  21.752   6.977  0.6834  0.0627  0.1541
 4789SAP2   PO495524  23.899  21.425   7.145 -0.0295  0.0407  0.0865
 4789SAP2    P495525  24.039  22.191   6.890  0.0744  0.0875  0.1734
 4789SAP2    P595526  24.382  21.802   6.769 -0.1270  0.2583  0.1622
 4789SAP2   GL195527  23.744  21.483   7.362 -0.0984 -0.1815  0.2414
 4789SAP2   GL295528  23.717  21.247   7.611 -0.0808 -0.1546  0.0843
 4789SAP2   D1A95529  23.411  21.186   7.174  0.3618  0.1049 -0.2740
 4789SAP2   D2A95530  22.894  21.198   7.215 -0.0931 -0.3086  0.1767
 4789SAP2   D3A95531  22.753  21.000   6.836 -0.1717  0.0427  0.3548
 4789SAP2   D4A95532  22.311  20.904   6.919  0.0140 -0.1998 -0.4118
 4789SAP2   C5A95533  22.518  20.885   7.290 -0.1256  0.0918  0.1077
 4789SAP2   C1B95534  23.438  21.014   7.835  0.0336  0.1887 -0.0458
 4789SAP2   C2B95535  23.031  20.892   7.975 -0.2294 -0.0277  0.3698
 4789SAP2   C3B95536  22.720  21.071   8.309 -0.1143 -0.3418 -0.0727
 4789SAP2   C4B95537  22.882  21.193   8.737  0.0974 -0.1049  0.1621
 4790SAP2    C195538  24.692  26.039   5.664 -0.0251 -0.1054  0.0726
 4790SAP2    C295539  24.622  26.219   5.466 -0.1273 -0.0252  0.1807
 4790SAP2    C395540  24.622  25.885   5.433  0.1370 -0.0064 -0.0448
 4790SAP2    C495541  24.645  26.048   5.521 -0.0644 -0.0857 -0.0053
 4790SAP2   PO495542  24.639  26.166   5.980  0.4362 -0.0966 -0.2892
 4790SAP2    P495543  24.591  25.903   5.133  0.2125 -0.0029 -0.3285
 4790SAP2    P595544  24.879  26.187   5.237  0.0613 -0.2404 -0.1616
 4790SAP2   GL195545  24.438  26.422   6.178  0.1305  0.0717 -0.2624
 4790SAP2   GL295546  24.691  26.395   6.294  0.0871  0.1560  0.0243
 4790SAP2   D1A95547  24.168  26.152   6.452 -0.2363  0.0608  0.0312
 4790SAP2   D2A95548  24.046  25.964   6.868 -0.0358  0.2618 -0.3086
 4790SAP2   D3A95549  23.672  26.284   6.920 -0.0638 -0.0026 -0.0630
 4790SAP2   D4A95550  23.653  26.068   6.507  0.0524 -0.4630  0.2037
 4790SAP2   C5A95551  23.256  26.211   6.324  0.2068  0.0193 -0.4057
 4790SAP2   C1B95552  24.566  26.221   6.670  0.3671 -0.5517  0.1105
 4790SAP2   C2B95553  24.465  26.031   7.079  0.3241  0.0850  0.5201
 4790SAP2   C3B95554  24.389  26.172   7.516  0.0073 -0.0655  0.2868
 4790SAP2   C4B95555  24.391  26.232   7.963 -0.0414  0.2115 -0.1201
 4791SAP2    C195556  25.304  25.673   6.391  0.1720 -0.0810  0.0501
 4791SAP2    C295557  25.561  25.672   6.287  0.0824  0.1228 -0.1834
 4791SAP2    C395558  25.293  25.529   6.143  0.0699 -0.1302  0.0830
 4791SAP2    C495559  25.386  25.625   6.274  0.2242  0.2890  0.5837
 4791SAP2   PO495560  25.365  25.999   6.523  0.0298 -0.0006 -0.0216
 4791SAP2    P495561  25.304  25.436   5.859  0.3752 -0.0866  0.5789
 4791SAP2    P595562  25.723  25.394   6.232  0.1161  0.1134 -0.0239
 4791SAP2   GL195563  25.450  26.039   6.766  0.0139  0.2955 -0.3080
 4791SAP2   GL295564  25.626  25.963   6.975 -0.0372 -0.0878 -0.1182
 4791SAP2   D1A95565  24.999  26.123   6.847 -0.0551  0.2258  0.3020
 4791SAP2   D2A95566  25.260  26.525   6.801 -0.3040  0.0449 -0.1752
 4791SAP2   D3A95567  25.031  26.583   7.204 -0.2464  0.0483 -0.2591
 4791SAP2   D4A95568  24.640  26.512   7.062  0.3279 -0.1318  0.0033
 4791SAP2   C5A95569  24.427  26.967   7.000 -0.1958  0.0806  0.1055
 4791SAP2   C1B95570  25.593  26.338   7.248 -0.2552 -0.3359  0.1884
 4791SAP2   C2B95571  25.747  26.612   7.567  0.3651 -0.1539  0.3530
 4791SAP2   C3B95572  25.998  26.988   7.572  0.0383  0.0129 -0.0163
 4791SAP2   C4B95573  26.109  27.301   7.892  0.2545  0.0974 -0.0535
 4792SAP2    C195574  28.174  22.117   7.240  0.0889  0.1716 -0.3598
 4792SAP2    C295575  27.969  22.256   7.115 -0.0094  0.1908 -0.1815
 4792SAP2    C395576  27.932  21.970   7.288  0.1124  0.2039 -0.1324
 4792SAP2    C495577  28.025  22.114   7.214  0.0683 -0.0264  1.1143
 4792SAP2   PO495578  28.360  22.397   7.356  0.1077 -0.1022 -0.0773
 4792SAP2    P495579  27.620  22.064   7.338  0.1375 -0.2126 -0.1097
 4792SAP2    P595580  27.771  22.236   6.939 -0.0050  0.1598  0.0962
 4792SAP2   GL195581  28.424  22.488   7.703 -0.1742  0.0511  0.0897
 4792SAP2   GL295582  28.493  22.329   7.803  0.2846  0.0056 -0.0054
 4792SAP2   D1A95583  28.635  22.827   7.923 -0.1200 -0.2150 -0.1183
 4792SAP2   D2A95584  29.004  22.692   7.724  0.0231 -0.0705  0.1324
 4792SAP2   D3A95585  29.288  22.505   8.061 -0.1754  0.1878  0.1641
 4792SAP2   D4A95586  29.447  22.687   8.436  0.0395  0.3813 -0.2180
 4792SAP2   C5A95587  29.612  23.076   8.558  0.3695 -0.1015  0.0798
 4792SAP2   C1B95588  28.879  22.222   7.979  0.0471 -0.0644  0.1673
 4792SAP2   C2B95589  29.260  21.950   8.020 -0.0073 -0.0020  0.0227
 4792SAP2   C3B95590  29.641  21.877   8.238  0.1457 -0.3180  0.2254
 4792SAP2   C4B95591  30.080  21.955   8.369  0.2509  0.1690  0.2031
 4793SAP2    C195592  26.755  15.887   4.744 -0.1869 -0.2203 -0.1261
 4793SAP2    C295593  26.538  15.971   4.595 -0.1135 -0.1268 -0.1821
 4793SAP2    C395594  26.742  15.717   4.515 -0.1839 -0.1958 -0.1446
 4793SAP2    C495595  26.678  15.858   4.618  0.1460 -0.6590  0.1146
 4793SAP2   PO495596  26.650  15.942   5.043  0.0889  0.4192  0.0417
 4793SAP2    P495597  26.531  15.674   4.226 -0.1354  0.0377  0.1530
 4793SAP2    P595598  26.219  15.915   4.438 -0.1005 -0.2123 -0.0980
 4793SAP2   GL195599  26.890  15.869   5.265 -0.1206 -0.1751  0.3133
 4793SAP2   GL295600  26.771  15.650   5.419 -0.1980 -0.1945 -0.4131
 4793SAP2   D1A95601  27.214  15.850   5.626 -0.0138 -0.1400 -0.0204
 4793SAP2   D2A95602  26.849  16.181   5.657  0.3025 -0.0979 -0.0928
 4793SAP2   D3A95603  26.490  16.504   5.755 -0.1432 -0.0441 -0.0118
 4793SAP2   D4A95604  26.853  16.515   6.014  0.2044 -0.3008  0.0410
 4793SAP2   C5A95605  26.700  16.986   5.844  0.2591  0.1625  0.1654
 4793SAP2   C1B95606  26.752  15.301   5.649 -0.0278  0.2476  0.3371
 4793SAP2   C2B95607  26.613  15.252   6.072 -0.2389 -0.0136 -0.0228
 4793SAP2   C3B95608  26.859  15.383   6.466  0.1240  0.0991  0.1486
 4793SAP2   C4B95609  26.840  15.313   6.954 -0.1089 -0.0476 -0.1576
 4794SAP2    C195610  26.237  22.095  10.340 -0.0258 -0.0467 -0.1550
 4794SAP2    C295611  26.451  22.264  10.293  0.0279 -0.0635  0.0210
 4794SAP2    C395612  26.261  22.265  10.570  0.0398 -0.3025  0.0317
 4794SAP2    C495613  26.316  22.208  10.401  0.1083 -0.4639  0.2493
 4794SAP2   PO495614  26.358  21.813  10.282  0.0275 -0.2484  0.0182
 4794SAP2    P495615  26.443  22.532  10.729  0.3556  0.1204 -0.0972
 4794SAP2    P595616  26.490  22.551  10.192 -0.1147  0.1207 -0.2752
 4794SAP2   GL195617  26.227  21.484  10.267  0.1510 -0.0497  0.4059
 4794SAP2   GL295618  26.327  21.379  10.465 -0.1071  0.3034  0.0847
 4794SAP2   D1A95619  26.413  21.143  10.048 -0.1724 -0.0536  0.0741
 4794SAP2   D2A95620  26.749  21.137  10.413  0.4143 -0.3308  0.2223
 4794SAP2   D3A95621  26.949  20.741  10.596  0.0253 -0.3009  0.0354
 4794SAP2   D4A95622  26.521  20.586  10.660 -0.0270 -0.1161 -0.3192
 4794SAP2   C5A95623  26.709  20.222  10.897 -0.0622 -0.0881 -0.3439
 4794SAP2   C1B95624  26.525  21.067  10.786 -0.0859 -0.2058 -0.0514
 4794SAP2   C2B95625  26.558  20.705  11.119 -0.0432 -0.0429 -0.2911
 4794SAP2   C3B95626  26.381  20.403  11.447 -0.0309  0.2097 -0.1063
 4794SAP2   C4B95627  25.921  20.375  11.565  0.0667  0.0134  0.0493
 4795SAP2    C195628  19.133  27.630   3.718 -0.0201 -0.2134 -0.0724
 4795SAP2    C295629  19.103  27.759   3.475 -0.1426 -0.0621  0.0215
 4795SAP2    C395630  19.222  27.447   3.515  0.2261  0.0429 -0.2030
 4795SAP2    C495631  19.153  27.612   3.570 -0.1423  0.1995  0.0320
 4795SAP2   PO495632  18.922  27.711   3.944 -0.3822 -0.0808 -0.2435
 4795SAP2    P495633  19.382  27.354   3.265 -0.1731 -0.1834 -0.1596
 4795SAP2    P595634  19.494  27.849   3.432 -0.1557  0.2997 -0.0248
 4795SAP2   GL195635  19.118  27.615   4.252  0.0712  0.0145  0.1584
 4795SAP2   GL295636  19.289  27.329   4.288 -0.0891  0.0180  0.1756
 4795SAP2   D1A95637  18.868  27.640   4.673  0.4001 -0.1680  0.3517
 4795SAP2   D2A95638  18.981  28.057   4.876  0.0846 -0.2228 -0.2359
 4795SAP2   D3A95639  18.852  28.382   4.512 -0.0580 -0.0349 -0.0951
 4795SAP2   D4A95640  18.685  27.984   4.335  0.2057  0.1938  0.0355
 4795SAP2   C5A95641  18.290  28.105   4.542 -0.0137  0.0267  0.2058
 4795SAP2   C1B95642  19.490  27.750   4.477  0.1595 -0.1240  0.0003
 4795SAP2   C2B95643  19.396  28.156   4.640 -0.1751 -0.0717 -0.0201
 4795SAP2   C3B95644  19.408  28.585   4.691  0.0279  0.0460  0.0452
 4795SAP2   C4B95645  19.263  28.926   4.940  0.0196 -0.1121  0.1833
 4796SAP2    C195646  22.027  23.848   5.961  0.0979  0.0544 -0.1631
 4796SAP2    C295647  21.822  23.991   5.839  0.2933  0.1997 -0.3279
 4796SAP2    C395648  21.947  23.698   5.730  0.2056  0.1341 -0.2535
 4796SAP2    C495649  21.932  23.846   5.843 -0.6335  0.7723  0.3718
 4796SAP2   PO495650  21.957  23.917   6.286 -0.0639 -0.0178 -0.1440
 4796SAP2    P495651  21.845  23.582   5.476 -0.0716 -0.0560  0.2371
 4796SAP2    P595652  21.737  24.064   5.532  0.2830  0.1911  0.3559
 4796SAP2   GL195653  21.718  23.926   6.326  0.1996 -0.0961 -0.2683
 4796SAP2   GL295654  21.713  24.228   6.364 -0.0847  0.0324  0.0591
 4796SAP2   D1A95655  21.248  23.888   6.386 -0.3580 -0.0407  0.0476
 4796SAP2   D2A95656  21.236  24.121   6.846 -0.3663  0.1079  0.1826
 4796SAP2   D3A95657  20.852  24.114   7.043 -0.1188  0.4067 -0.2595
 4796SAP2   D4A95658  21.012  24.499   7.198  0.0317 -0.0202 -0.0112
 4796SAP2   C5A95659  21.273  24.223   7.485 -0.0620  0.2201  0.1223
 4796SAP2   C1B95660  21.824  24.307   6.786 -0.1985  0.2890 -0.2829
 4796SAP2   C2B95661  22.136  24.475   7.153  0.1446 -0.0707 -0.0757
 4796SAP2   C3B95662  21.940  24.796   7.436 -0.1223  0.0235  0.2004
 4796SAP2   C4B95663  21.834  25.169   7.624 -0.2676  0.1061  0.0978
 4797SAP2    C195664  27.809  28.007   4.658  0.2205  0.1605  0.0911
 4797SAP2    C295665  27.575  27.869   4.606  0.1513  0.2334  0.2060
 4797SAP2    C395666  27.855  27.851   4.422  0.0527  0.1536  0.0618
 4797SAP2    C495667  27.746  27.909   4.562  0.2211  0.2811 -0.0735
 4797SAP2   PO495668  27.889  27.957   4.991  0.1432 -0.0355 -0.0964
 4797SAP2    P495669  27.767  27.739   4.174  0.1946  0.4117 -0.0442
 4797SAP2    P595670  27.374  27.968   4.376  0.2287 -0.1513  0.2950
 4797SAP2   GL195671  27.759  28.177   5.142 -0.1125  0.2085 -0.1131
 4797SAP2   GL295672  27.679  28.217   5.406 -0.0853 -0.0020  0.1254
 4797SAP2   D1A95673  28.152  28.214   5.438 -0.1912 -0.1905  0.0480
 4797SAP2   D2A95674  27.899  28.619   5.293  0.1239 -0.0791 -0.2211
 4797SAP2   D3A95675  27.972  28.651   5.741 -0.1176  0.1059 -0.0944
 4797SAP2   D4A95676  28.411  28.812   5.830  0.1308  0.0129  0.3693
 4797SAP2   C5A95677  28.470  28.832   6.218 -0.0911  0.0381 -0.0865
 4797SAP2   C1B95678  27.448  28.566   5.607  0.2088 -0.0584 -0.1286
 4797SAP2   C2B95679  27.531  28.792   5.987  0.1019 -0.3631  0.0132
 4797SAP2   C3B95680  27.337  29.114   6.284  0.0187  0.2393 -0.0416
 4797SAP2   C4B95681  27.042  29.366   6.522  0.2130  0.4386 -0.1280
 4798SAP2    C195682  23.508  21.649   6.850 -0.3176 -0.1177 -0.0930
 4798SAP2    C295683  23.358  21.627   6.618 -0.1796  0.0535 -0.2008
 4798SAP2    C395684  23.645  21.463   6.680 -0.1791  0.0617 -0.1816
 4798SAP2    C495685  23.504  21.580   6.716  0.4268  0.0783  0.5091
 4798SAP2   PO495686  23.209  21.661   7.058 -0.0263 -0.0283  0.0023
 4798SAP2    P495687  23.686  21.373   6.351 -0.1247 -0.1481  0.0151
 4798SAP2    P595688  23.405  21.833   6.411  0.1827  0.1545 -0.1172
 4798SAP2   GL195689  23.051  21.692   7.338  0.0468 -0.0072  0.1486
 4798SAP2   GL295690  22.799  21.688   7.339  0.1026  0.1073 -0.3493
 4798SAP2   D1A95691  23.128  21.337   7.613 -0.0531 -0.0685  0.0149
 4798SAP2   D2A95692  22.941  21.375   7.997  0.1442 -0.1877 -0.0648
 4798SAP2   D3A95693  22.985  21.846   7.816 -0.0855  0.1790  0.2611
 4798SAP2   D4A95694  22.556  21.978   7.722 -0.1414  0.1304  0.1315
 4798SAP2   C5A95695  22.572  22.172   8.132  0.0792  0.1229  0.1571
 4798SAP2   C1B95696  22.593  21.367   7.646  0.0937 -0.0532  0.2663
 4798SAP2   C2B95697  22.441  21.127   7.969  0.2330  0.1286  0.0357
 4798SAP2   C3B95698  22.045  20.824   7.892  0.0928 -0.0991  0.0455
 4798SAP2   C4B95699  21.792  20.499   8.124 -0.0797 -0.3439  0.0681
 4799SAP2    C195700  28.594  22.627   6.913  0.2421 -0.1511 -0.1759
 4799SAP2    C295701  28.699  22.862   6.811  0.1175 -0.1832 -0.3823
 4799SAP2    C395702  28.394  22.830   6.948  0.2275 -0.1732 -0.1306
 4799SAP2    C495703  28.562  22.773   6.891  0.2310 -0.4559  0.3662
 4799SAP2   PO495704  28.849  22.443   7.061  0.1657 -0.1338 -0.1365
 4799SAP2    P495705  28.246  23.084   6.911 -0.3406 -0.0739 -0.1861
 4799SAP2    P595706  28.551  23.011   6.567  0.3497 -0.1551 -0.0439
 4799SAP2   GL195707  29.014  22.484   7.297  0.1434  0.0328 -0.1745
 4799SAP2   GL295708  28.843  22.315   7.473 -0.1126  0.0435  0.2113
 4799SAP2   D1A95709  29.439  22.399   7.170  0.0914  0.0731  0.0597
 4799SAP2   D2A95710  29.811  22.129   7.273 -0.1371 -0.0772  0.3869
 4799SAP2   D3A95711  30.008  22.066   7.607  0.0375  0.0800  0.1989
 4799SAP2   D4A95712  30.166  22.495   7.738 -0.0558  0.0867 -0.2517
 4799SAP2   C5A95713  30.304  22.413   8.176 -0.3080  0.1284  0.3580
 4799SAP2   C1B95714  29.274  22.233   7.613  0.1769 -0.1786 -0.1256
 4799SAP2   C2B95715  29.511  21.886   7.596 -0.2289 -0.0935  0.0881
 4799SAP2   C3B95716  29.850  21.673   7.843 -0.4293  0.0227  0.1743
 4799SAP2   C4B95717  30.024  21.429   8.145  0.3454 -0.1040 -0.4235
 4800SAP2    C195718  32.523  32.130  15.874 -0.0221 -0.2401  0.1880
 4800SAP2    C295719  32.777  32.152  15.766 -0.1536 -0.0242 -0.0911
 4800SAP2    C395720  32.531  31.958  15.645 -0.1372 -0.2014  0.1540
 4800SAP2    C495721  32.610  32.080  15.761 -0.1370  0.1553  0.6699
 4800SAP2   PO495722  32.406  32.386  15.911  0.0181  0.4107 -0.2459
 4800SAP2    P495723  32.729  31.872  15.442 -0.1443 -0.0033  0.0725
 4800SAP2    P595724  33.025  31.976  15.841  0.2806 -0.0562 -0.0857
 4800SAP2   GL195725  32.331  32.326  16.204 -0.0644 -0.2844  0.0091
 4800SAP2   GL295726  32.443  32.505  16.437  0.4963 -0.1692  0.4277
 4800SAP2   D1A95727  32.377  32.066  16.594 -0.0564  0.0543  0.2008
 4800SAP2   D2A95728  32.664  32.367  16.810 -0.0130  0.1062 -0.1770
 4800SAP2   D3A95729  32.735  32.253  17.221 -0.1924  0.3584  0.0744
 4800SAP2   D4A95730  32.992  32.283  17.592 -0.0486 -0.1933 -0.0938
 4800SAP2   C5A95731  32.942  32.230  18.035  0.1107 -0.1738  0.0782
 4800SAP2   C1B95732  32.397  32.834  16.706  0.0005 -0.2477 -0.0358
 4800SAP2   C2B95733  32.159  33.087  16.985 -0.0610  0.0468 -0.1391
 4800SAP2   C3B95734  31.995  32.983  17.346 -0.1574 -0.1524  0.0990
 4800SAP2   C4B95735  31.755  33.002  17.719  0.1427  0.1285 -0.2234
 4801SAP2    C195736  31.856  21.944  11.764  0.0093 -0.1472 -0.1124
 4801SAP2    C295737  32.107  21.847  11.699  0.0225  0.0065 -0.3026
 4801SAP2    C395738  32.027  22.172  11.727 -0.0449 -0.0457  0.2237
 4801SAP2    C495739  31.997  21.987  11.730 -0.5007 -0.5279  0.3179
 4801SAP2   PO495740  31.773  21.746  11.973  0.1043 -0.1486  0.1359
 4801SAP2    P495741  32.326  22.301  11.677 -0.2771 -0.1194 -0.2031
 4801SAP2    P595742  32.291  21.831  11.487 -0.0075 -0.0769  0.0013
 4801SAP2   GL195743  31.487  21.835  11.922  0.2228 -0.2227  0.0820
 4801SAP2   GL295744  31.294  21.945  11.704 -0.1820  0.1553 -0.0084
 4801SAP2   D1A95745  31.279  22.148  12.139 -0.0572 -0.3138  0.0246
 4801SAP2   D2A95746  31.220  21.918  12.607  0.1571  0.0096  0.1973
 4801SAP2   D3A95747  30.923  22.140  12.756  0.0735  0.3753  0.0499
 4801SAP2   D4A95748  31.151  22.308  13.173 -0.0014 -0.2599  0.0328
 4801SAP2   C5A95749  30.737  22.318  13.259  0.2669 -0.0361 -0.1018
 4801SAP2   C1B95750  30.794  21.953  11.733  0.1993 -0.1098  0.3611
 4801SAP2   C2B95751  30.342  22.020  11.592  0.3039 -0.1899 -0.1320
 4801SAP2   C3B95752  29.992  22.038  11.305  0.2854 -0.1425 -0.0213
 4801SAP2   C4B95753  29.623  21.725  11.191 -0.0442  0.1306  0.1698
 4802SAP2    C195754  19.841  22.306  15.161 -0.0368 -0.0866 -0.1560
 4802SAP2    C295755  19.728  22.555  15.118  0.0086 -0.0349  0.0139
 4802SAP2    C395756  19.678  22.283  14.926 -0.2981  0.0205  0.0103
 4802SAP2    C495757  19.749  22.381  15.068 -0.8863 -0.7376 -0.1766
 4802SAP2   PO495758  19.821  22.268  15.489 -0.1281 -0.0388 -0.1919
 4802SAP2    P495759  19.487  22.353  14.759  0.0094  0.2970 -0.0043
 4802SAP2    P595760  19.745  22.741  14.932  0.0325 -0.4770 -0.0583
 4802SAP2   GL195761  19.902  21.977  15.597 -0.3714 -0.2285  0.2230
 4802SAP2   GL295762  20.147  21.944  15.830  0.2484  0.0755 -0.3978
 4802SAP2   D1A95763  19.718  21.859  16.057  0.0296 -0.2177  0.1791
 4802SAP2   D2A95764  19.936  21.494  15.966 -0.0735 -0.0593 -0.4952
 4802SAP2   D3A95765  20.362  21.553  16.141 -0.1466 -0.1777  0.1656
 4802SAP2   D4A95766  20.164  21.685  16.558 -0.1867 -0.0336 -0.0556
 4802SAP2   C5A95767  20.521  21.406  16.743  0.1731 -0.0742 -0.4322
 4802SAP2   C1B95768  20.261  22.015  16.230 -0.1756 -0.2776  0.1999
 4802SAP2   C2B95769  20.247  22.358  16.554 -0.0234 -0.2120  0.0500
 4802SAP2   C3B95770  20.138  22.255  16.995  0.0324 -0.0388  0.0975
 4802SAP2   C4B95771  20.022  22.107  17.469 -0.2381 -0.0531 -0.1355
 4803SAP2    C195772  21.540  27.099   9.513 -0.0522  0.0072 -0.0211
 4803SAP2    C295773  21.544  27.033   9.782  0.0496 -0.0797 -0.0433
 4803SAP2    C395774  21.308  27.219   9.631 -0.0204 -0.0501  0.1012
 4803SAP2    C495775  21.464  27.117   9.642  0.9365 -0.0971 -0.0988
 4803SAP2   PO495776  21.559  26.847   9.350  0.2136  0.1417 -0.1660
 4803SAP2    P495777  21.109  27.274   9.845  0.0646 -0.2383  0.2383
 4803SAP2    P595778  21.559  27.279  10.021  0.0573  0.1806  0.1000
 4803SAP2   GL195779  21.618  26.723   9.050  0.4449  0.0876 -0.5069
 4803SAP2   GL295780  21.383  26.507   9.022 -0.1778 -0.0041  0.2647
 4803SAP2   D1A95781  21.885  26.430   8.805  0.0925  0.0584 -0.0384
 4803SAP2   D2A95782  21.558  26.473   8.515  0.0741 -0.0326  0.2177
 4803SAP2   D3A95783  21.580  26.240   8.141  0.0640 -0.1760 -0.2291
 4803SAP2   D4A95784  22.015  26.313   8.283  0.3134 -0.0899 -0.2026
 4803SAP2   C5A95785  22.234  26.249   7.884  0.2303 -0.0016 -0.0518
 4803SAP2   C1B95786  21.146  26.676   8.638 -0.0218  0.2161  0.2254
 4803SAP2   C2B95787  21.164  26.486   8.230  0.1087 -0.1739  0.0257
 4803SAP2   C3B95788  21.076  26.071   8.017 -0.0987 -0.0306 -0.0164
 4803SAP2   C4B95789  21.134  25.690   7.796  0.1390  0.1487  0.1474
 4804SAP2    C195790  18.730  22.157  15.181 -0.0384 -0.0284  0.0276
 4804SAP2    C295791  18.483  22.280  15.162 -0.1981 -0.3681 -0.1843
 4804SAP2    C395792  18.688  22.215  14.904 -0.0091 -0.3354 -0.0445
 4804SAP2    C495793  18.634  22.217  15.082  0.0124  0.4407  0.4037
 4804SAP2   PO495794  18.627  21.865  15.389  0.0935 -0.3011 -0.1170
 4804SAP2    P495795  18.549  22.414  14.685  0.0544  0.1615  0.0843
 4804SAP2    P595796  18.413  22.540  15.157 -0.2138  0.2242 -0.0514
 4804SAP2   GL195797  18.484  22.035  15.526  0.0781 -0.0763 -0.0623
 4804SAP2   GL295798  18.286  22.149  15.748 -0.1692 -0.4345 -0.0488
 4804SAP2   D1A95799  18.714  21.992  15.985  0.4798 -0.2112  0.1618
 4804SAP2   D2A95800  19.018  22.260  16.175  0.1855  0.1002 -0.2430
 4804SAP2   D3A95801  18.749  22.550  16.455 -0.2926 -0.1423  0.0093
 4804SAP2   D4A95802  18.743  22.473  16.882  0.2904 -0.1194  0.1517
 4804SAP2   C5A95803  18.340  22.311  16.685  0.2553  0.1933  0.1305
 4804SAP2   C1B95804  18.198  21.963  16.150 -0.0281  0.0805  0.5435
 4804SAP2   C2B95805  18.070  21.884  16.608  0.2344 -0.1462 -0.2729
 4804SAP2   C3B95806  17.879  21.665  16.958  0.1929 -0.2948 -0.0216
 4804SAP2   C4B95807  17.700  21.308  17.160  0.0242 -0.2258 -0.0667
 4805SAP2    C195808  32.604   0.462  15.828  0.2804  0.1592  0.1603
 4805SAP2    C295809  32.559   0.677  15.659  0.1251  0.1372  0.1724
 4805SAP2    C395810  32.614   0.360  15.560  0.1214  0.1401  0.1609
 4805SAP2    C495811  32.592   0.500  15.682 -0.7555  0.1221 -0.3411
 4805SAP2   PO495812  32.421   0.550  16.112 -0.3078  0.2078  0.3306
 4805SAP2    P495813  32.503   0.325  15.251  0.1843 -0.0649 -0.4477
 4805SAP2    P595814  32.724   0.757  15.367  0.0244  0.1376 -0.0933
 4805SAP2   GL195815  32.179   0.468  16.323  0.1273  0.0311 -0.1337
 4805SAP2   GL295816  32.298   0.453  16.593  0.1026 -0.3557 -0.0520
 4805SAP2   D1A95817  31.996   0.779  16.572 -0.0176  0.3222 -0.2777
 4805SAP2   D2A95818  32.293   0.872  16.942  0.2345 -0.1891  0.0283
 4805SAP2   D3A95819  32.385   0.583  17.304  0.0186  0.0727 -0.3160
 4805SAP2   D4A95820  32.468   0.916  17.575  0.0123 -0.0989 -0.0100
 4805SAP2   C5A95821  32.497   1.128  18.040  0.0255 -0.4604  0.0190
 4805SAP2   C1B95822  32.706   0.422  16.925 -0.0684 -0.0281  0.0471
 4805SAP2   C2B95823  32.906   0.412  17.328 -0.1420 -0.2880  0.0774
 4805SAP2   C3B95824  33.059   0.431  17.788  0.0323 -0.0060  0.2637
 4805SAP2   C4B95825  33.272   0.751  18.063  0.0157 -0.0978  0.0798
 4806SAP2    C195826  17.693  21.845  15.195  0.0088  0.2356  0.0217
 4806SAP2    C295827  17.825  21.928  14.966  0.0629  0.3326  0.0871
 4806SAP2    C395828  17.585  21.693  14.978 -0.1448  0.5281 -0.1140
 4806SAP2    C495829  17.701  21.822  15.046  0.6052  0.2414  0.0617
 4806SAP2   PO495830  17.597  22.030  15.417 -0.0182  0.0207  0.1208
 4806SAP2    P495831  17.468  21.594  14.693 -0.1490 -0.0455  0.1750
 4806SAP2    P595832  17.951  21.785  14.636 -0.1373  0.0188 -0.2378
 4806SAP2   GL195833  17.649  21.821  15.670 -0.1735 -0.0875  0.1026
 4806SAP2   GL295834  17.412  21.845  15.860 -0.3402  0.0712  0.0039
 4806SAP2   D1A95835  17.789  22.207  15.852  0.1690 -0.1518  0.3197
 4806SAP2   D2A95836  18.109  22.497  16.048 -0.2450 -0.0546  0.1590
 4806SAP2   D3A95837  17.893  22.436  16.471  0.1215  0.0711  0.0731
 4806SAP2   D4A95838  17.789  22.870  16.326 -0.0392 -0.0292  0.2098
 4806SAP2   C5A95839  17.580  22.951  16.760  0.0756 -0.1565 -0.4251
 4806SAP2   C1B95840  17.694  21.877  16.229 -0.0679  0.0012 -0.2492
 4806SAP2   C2B95841  17.576  22.038  16.678 -0.0940  0.1737 -0.0436
 4806SAP2   C3B95842  17.832  22.143  17.045 -0.0495  0.3222 -0.1644
 4806SAP2   C4B95843  18.207  22.433  17.187  0.2421 -0.0788 -0.4474
 4807SAP2    C195844  25.806  27.909  14.586 -0.0425  0.0047  0.0903
 4807SAP2    C295845  25.703  27.932  14.330 -0.0504 -0.4065  0.0494
 4807SAP2    C395846  25.998  28.056  14.433 -0.1539 -0.0321 -0.0883
 4807SAP2    C495847  25.836  27.966  14.450  0.0707  0.2869  0.2118
 4807SAP2   PO495848  25.770  27.580  14.688  0.2112  0.2947  0.2286
 4807SAP2    P495849  26.121  28.149  14.170 -0.0320  0.1566 -0.1117
 4807SAP2    P595850  25.620  28.077  14.147 -0.1989  0.1386 -0.1526
 4807SAP2   GL195851  25.683  27.280  14.543 -0.1243 -0.6251  0.2100
 4807SAP2   GL295852  25.491  27.218  14.444 -0.2096 -0.0326 -0.1156
 4807SAP2   D1A95853  25.764  26.995  14.930 -0.1982 -0.2082  0.0117
 4807SAP2   D2A95854  26.150  26.792  15.031  0.0934 -0.2201 -0.0624
 4807SAP2   D3A95855  25.902  26.566  15.362  0.1117 -0.4769  0.0972
 4807SAP2   D4A95856  25.795  26.149  15.277  0.1238 -0.0554  0.1524
 4807SAP2   C5A95857  25.483  26.036  15.556  0.0104  0.1261 -0.3552
 4807SAP2   C1B95858  25.628  26.769  14.453 -0.2152 -0.0710  0.0937
 4807SAP2   C2B95859  25.812  26.393  14.226 -0.0086 -0.3572 -0.2032
 4807SAP2   C3B95860  25.769  25.975  14.073  0.3989 -0.1107 -0.1466
 4807SAP2   C4B95861  25.861  25.504  14.095 -0.3450 -0.0870 -0.2156
 4808SAP2    C195862  25.082  27.740  14.992 -0.0995  0.2058 -0.0774
 4808SAP2    C295863  25.005  27.875  14.763 -0.3761  0.2488  0.0375
 4808SAP2    C395864  25.062  28.017  15.062 -0.0483  0.1885  0.0069
 4808SAP2    C495865  25.050  27.877  14.939  0.3714 -0.8978 -0.1921
 4808SAP2   PO495866  25.261  27.511  14.841  0.1037 -0.2524 -0.2400
 4808SAP2    P495867  24.997  28.346  15.107  0.1141 -0.1666 -0.1665
 4808SAP2    P595868  24.874  28.142  14.589  0.0221  0.0562 -0.2378
 4808SAP2   GL195869  25.352  27.217  14.919  0.0006  0.0275  0.4101
 4808SAP2   GL295870  25.425  27.175  15.231 -0.0140  0.0088  0.2075
 4808SAP2   D1A95871  25.289  26.779  14.853  0.0166  0.0217 -0.3208
 4808SAP2   D2A95872  25.420  26.569  15.233 -0.0775  0.0584 -0.1987
 4808SAP2   D3A95873  25.715  26.467  14.898 -0.0353  0.1687 -0.0270
 4808SAP2   D4A95874  25.697  26.107  14.609 -0.2387  0.1237  0.5519
 4808SAP2   C5A95875  25.554  25.720  14.528  0.3297 -0.1753  0.0898
 4808SAP2   C1B95876  25.130  26.936  15.509  0.3090 -0.0717  0.0152
 4808SAP2   C2B95877  24.802  26.668  15.727 -0.1657 -0.2631  0.2611
 4808SAP2   C3B95878  24.593  26.279  15.914  0.1336 -0.2344  0.0211
 4808SAP2   C4B95879  24.326  26.213  16.248 -0.0684  0.1989  0.1720
 4809SAP2    C195880  30.417  26.565  14.598 -0.1324  0.2908 -0.1058
 4809SAP2    C295881  30.300  26.751  14.428 -0.4537  0.0570 -0.1495
 4809SAP2    C395882  30.572  26.568  14.357 -0.3407  0.2580 -0.2432
 4809SAP2    C495883  30.430  26.628  14.461 -0.1514 -0.8910 -0.7832
 4809SAP2   PO495884  30.077  26.439  14.680 -0.4303 -0.0588 -0.1739
 4809SAP2    P495885  30.633  26.570  14.115 -0.0387  0.1619  0.2831
 4809SAP2    P595886  30.436  26.977  14.258 -0.0640  0.1754  0.1371
 4809SAP2   GL195887  29.922  26.185  14.839 -0.0977  0.0935  0.3552
 4809SAP2   GL295888  30.012  25.915  14.719  0.2756 -0.2810 -0.0745
 4809SAP2   D1A95889  29.557  26.354  15.085 -0.0842  0.0337  0.2040
 4809SAP2   D2A95890  29.127  26.267  14.883  0.0775 -0.0731  0.1515
 4809SAP2   D3A95891  29.095  26.031  15.285 -0.0049 -0.0154  0.4192
 4809SAP2   D4A95892  28.768  26.272  15.498 -0.2578 -0.0964  0.0635
 4809SAP2   C5A95893  28.528  26.645  15.461  0.1685  0.0376 -0.1518
 4809SAP2   C1B95894  29.811  25.583  14.944  0.0061 -0.3975  0.0685
 4809SAP2   C2B95895  29.550  25.236  15.145 -0.0414  0.2416  0.0259
 4809SAP2   C3B95896  29.189  24.978  15.290  0.0760 -0.1087 -0.2233
 4809SAP2   C4B95897  29.033  24.544  15.492 -0.0578 -0.0502  0.0316
 4810SAP2    C195898  22.957  18.630  12.120  0.1584 -0.1911 -0.2698
 4810SAP2    C295899  22.868  18.508  11.888 -0.3806 -0.0538 -0.1492
 4810SAP2    C395900  22.673  18.603  12.145  0.1183  0.3779  0.0898
 4810SAP2    C495901  22.833  18.580  12.051  0.1590 -1.2695  0.6662
 4810SAP2   PO495902  23.153  18.915  11.987 -0.0280 -0.1137  0.1090
 4810SAP2    P495903  22.424  18.437  12.062  0.0389  0.4729  0.0175
 4810SAP2    P595904  22.860  18.194  11.936 -0.2087 -0.0974  0.1850
 4810SAP2   GL195905  23.228  18.886  12.282 -0.3038  0.0762 -0.0824
 4810SAP2   GL295906  23.539  19.002  12.222 -0.0089 -0.0997 -0.0028
 4810SAP2   D1A95907  23.192  19.362  12.279  0.0301 -0.0258  0.1519
 4810SAP2   D2A95908  23.648  19.493  12.284  0.0275  0.2569 -0.0085
 4810SAP2   D3A95909  23.890  19.867  12.314 -0.1631 -0.2142 -0.2553
 4810SAP2   D4A95910  24.248  20.003  12.034 -0.0810  0.1710  0.1473
 4810SAP2   C5A95911  24.394  19.576  12.090 -0.0293  0.0726 -0.0066
 4810SAP2   C1B95912  23.743  19.019  12.641  0.0870 -0.0115  0.1947
 4810SAP2   C2B95913  23.751  19.247  13.026  0.1240 -0.2290  0.0307
 4810SAP2   C3B95914  23.936  19.660  13.204  0.2029  0.0059  0.0575
 4810SAP2   C4B95915  24.227  20.043  13.411  0.1787  0.1821 -0.2753
 4811SAP2    C195916  28.781  17.819  12.307  0.0005  0.1115  0.1132
 4811SAP2    C295917  28.973  17.748  12.494 -0.0939  0.2031  0.2472
 4811SAP2    C395918  28.849  17.545  12.256  0.3787  0.2261 -0.0314
 4811SAP2    C495919  28.867  17.704  12.352 -0.1164 -0.3669  0.1889
 4811SAP2   PO495920  28.782  18.137  12.259 -0.0537 -0.0818  0.2563
 4811SAP2    P495921  28.962  17.253  12.317  0.1600  0.1758  0.1420
 4811SAP2    P595922  28.979  17.553  12.757 -0.0314 -0.0143 -0.1851
 4811SAP2   GL195923  28.826  18.346  12.527  0.2753  0.0226  0.0757
 4811SAP2   GL295924  28.686  18.544  12.670 -0.0469  0.0226  0.1848
 4811SAP2   D1A95925  28.918  18.658  12.139 -0.1669  0.4078 -0.1630
 4811SAP2   D2A95926  28.624  18.951  12.239  0.1124  0.1670  0.2012
 4811SAP2   D3A95927  28.463  19.398  12.215 -0.2318  0.0156 -0.0176
 4811SAP2   D4A95928  28.817  19.319  11.895  0.0734  0.0983 -0.1339
 4811SAP2   C5A95929  28.659  19.611  11.599 -0.2548  0.1289  0.2717
 4811SAP2   C1B95930  28.598  18.938  12.900 -0.0162  0.1266 -0.0636
 4811SAP2   C2B95931  28.358  19.271  12.959 -0.0597 -0.1241  0.2714
 4811SAP2   C3B95932  28.054  19.589  13.088  0.1257  0.0182 -0.0056
 4811SAP2   C4B95933  27.787  19.929  13.088 -0.1446 -0.2321  0.0889
 4812SAP2    C195934  19.072  30.482  16.301  0.0054 -0.2399  0.0599
 4812SAP2    C295935  19.014  30.642  16.083 -0.0383 -0.2335  0.0761
 4812SAP2    C395936  18.846  30.364  16.169 -0.2258 -0.0592  0.2850
 4812SAP2    C495937  18.977  30.496  16.184  0.1840 -0.5225 -0.0900
 4812SAP2   PO495938  19.116  30.687  16.538 -0.0492 -0.2098 -0.1094
 4812SAP2    P495939  18.635  30.441  15.970  0.2126  0.3051 -0.1816
 4812SAP2    P595940  19.076  30.534  15.799  0.0154 -0.2903 -0.3549
 4812SAP2   GL195941  19.132  30.685  16.894  0.0001 -0.1603  0.0807
 4812SAP2   GL295942  19.010  30.517  17.043 -0.0616  0.1678 -0.1005
 4812SAP2   D1A95943  18.862  30.967  17.225  0.2148  0.2526 -0.7503
 4812SAP2   D2A95944  19.031  30.973  17.662  0.0532  0.0299 -0.0771
 4812SAP2   D3A95945  19.473  31.002  17.718 -0.3160  0.1070 -0.1037
 4812SAP2   D4A95946  19.819  31.120  17.578  0.3156 -0.0707  0.3921
 4812SAP2   C5A95947  20.079  31.068  17.959  0.1346 -0.3969  0.0496
 4812SAP2   C1B95948  19.120  30.177  17.357  0.0478 -0.2455 -0.0548
 4812SAP2   C2B95949  19.137  30.067  17.782  0.2963  0.1191 -0.1796
 4812SAP2   C3B95950  19.248  30.218  18.207  0.0419 -0.0403  0.0160
 4812SAP2   C4B95951  19.540  30.353  18.543  0.0330 -0.0556 -0.0963
 4813SAP2    C195952  25.358  21.880  16.003 -0.0054  0.2200  0.1783
 4813SAP2    C295953  25.591  21.970  15.883 -0.0648  0.2118  0.0557
 4813SAP2    C395954  25.575  21.739  16.126  0.0369  0.0182 -0.1183
 4813SAP2    C495955  25.508  21.863  16.004  0.0282  0.1140 -0.7705
 4813SAP2   PO495956  25.157  21.790  15.778 -0.0070  0.0738 -0.0530
 4813SAP2    P495957  25.858  21.625  16.124 -0.2347  0.1911 -0.1333
 4813SAP2    P595958  25.833  22.119  16.061  0.0948  0.0437 -0.1227
 4813SAP2   GL195959  24.864  21.614  15.734 -0.0756  0.1376  0.0138
 4813SAP2   GL295960  24.662  21.442  15.938 -0.1165  0.0381  0.0912
 4813SAP2   D1A95961  24.770  21.592  15.292 -0.2371 -0.0465  0.0081
 4813SAP2   D2A95962  24.776  21.293  14.972 -0.0750 -0.2412 -0.2547
 4813SAP2   D3A95963  24.345  21.232  14.845 -0.2246  0.1001  0.0700
 4813SAP2   D4A95964  24.236  21.487  14.425 -0.0356  0.0134  0.2389
 4813SAP2   C5A95965  23.984  21.308  14.039 -0.0534 -0.0527 -0.1586
 4813SAP2   C1B95966  24.327  21.468  15.656  0.0787 -0.0901 -0.0255
 4813SAP2   C2B95967  23.991  21.221  15.478 -0.2167  0.2114 -0.0669
 4813SAP2   C3B95968  23.802  20.817  15.427  0.0050 -0.2555  0.1549
 4813SAP2   C4B95969  23.427  20.645  15.591  0.0054  0.0001  0.0638
 4814SAP2    C195970  18.814  18.072  20.459  0.1616  0.3080  0.0609
 4814SAP2    C295971  18.682  18.205  20.663 -0.0907 -0.1581  0.2190
 4814SAP2    C395972  18.918  17.970  20.706  0.3804  0.2445 -0.0553
 4814SAP2    C495973  18.805  18.082  20.609  0.7220  0.2998 -0.2728
 4814SAP2   PO495974  18.847  18.247  20.213 -0.2418 -0.1332 -0.0111
 4814SAP2    P495975  18.905  17.987  20.999  0.1774 -0.3558 -0.2874
 4814SAP2    P595976  18.498  18.235  20.877  0.1922  0.0538 -0.1327
 4814SAP2   GL195977  19.012  18.166  19.967 -0.0808 -0.1964  0.1605
 4814SAP2   GL295978  18.771  18.186  19.730  0.0505 -0.0786  0.0356
 4814SAP2   D1A95979  19.111  18.556  19.666 -0.1885  0.0188  0.0619
 4814SAP2   D2A95980  18.667  18.569  19.399  0.2509  0.0288  0.1561
 4814SAP2   D3A95981  18.519  18.517  18.990  0.2393 -0.1043  0.2305
 4814SAP2   D4A95982  18.602  18.671  18.536  0.2199 -0.1099  0.0776
 4814SAP2   C5A95983  18.852  18.908  18.260  0.0423  0.3182  0.0600
 4814SAP2   C1B95984  18.904  18.094  19.308 -0.1571 -0.0692 -0.0425
 4814SAP2   C2B95985  19.161  18.331  19.030  0.0122 -0.3486  0.1232
 4814SAP2   C3B95986  19.341  18.373  18.595 -0.1026 -0.3224  0.0533
 4814SAP2   C4B95987  19.479  18.447  18.111  0.0068  0.2697 -0.2163
 4815SAP2    C195988  29.863  23.064  18.906 -0.2247 -0.0482  0.0635
 4815SAP2    C295989  29.593  23.009  18.873 -0.2703  0.1936  0.0139
 4815SAP2    C395990  29.743  23.078  19.166 -0.2185 -0.1484  0.0720
 4815SAP2    C495991  29.733  23.051  18.981 -0.3620 -0.0175 -0.3364
 4815SAP2   PO495992  29.917  23.220  18.604 -0.1255 -0.0830  0.1743
 4815SAP2    P495993  29.502  23.150  19.316 -0.1622 -0.0318 -0.2043
 4815SAP2    P595994  29.315  22.944  18.906 -0.1373  0.1553 -0.1032
 4815SAP2   GL195995  30.246  23.114  18.444  0.2144 -0.2706  0.2579
 4815SAP2   GL295996  30.401  23.149  18.684  0.2305  0.2603  0.1184
 4815SAP2   D1A95997  30.390  23.228  18.002  0.1261 -0.1691  0.0308
 4815SAP2   D2A95998  30.266  23.558  18.321 -0.2144  0.1763  0.0598
 4815SAP2   D3A95999  30.550  23.737  17.996  0.4074 -0.0726 -0.4535
 4815SAP2   D4A96000  30.368  24.190  17.986 -0.1117  0.2862 -0.0000
 4815SAP2   C5A96001  30.280  24.428  17.658 -0.0913 -0.0912  0.3506
 4815SAP2   C1B96002  30.779  23.009  18.474  0.0293 -0.1444  0.0105
 4815SAP2   C2B96003  31.110  22.799  18.192 -0.0697  0.0593 -0.0164
 4815SAP2   C3B96004  31.527  22.645  18.153 -0.1556 -0.0117  0.0289
 4815SAP2   C4B96005  31.816  22.363  17.934 -0.0768  0.1083  0.1627
 4816SAP2    C196006  19.842  22.332  20.141  0.2270 -0.1272  0.1670
 4816SAP2    C296007  19.736  22.264  20.388  0.2123 -0.0072  0.1944
 4816SAP2    C396008  20.060  22.237  20.302  0.2244 -0.0102  0.2409
 4816SAP2    C496009  19.879  22.277  20.277  0.2202 -0.5623 -0.1113
 4816SAP2   PO496010  19.709  22.617  20.031 -0.0900 -0.2431 -0.1715
 4816SAP2    P496011  20.152  22.062  20.523 -0.0407  0.1958 -0.0271
 4816SAP2    P596012  19.666  21.975  20.452  0.0366 -0.0523 -0.1522
 4816SAP2   GL196013  19.846  22.780  19.750 -0.0907 -0.0354  0.0621
 4816SAP2   GL296014  19.777  22.682  19.473  0.0144 -0.3019  0.0259
 4816SAP2   D1A96015  20.049  23.170  19.618  0.0452 -0.0819  0.2128
 4816SAP2   D2A96016  19.719  23.141  19.369 -0.1673 -0.0723 -0.0072
 4816SAP2   D3A96017  19.483  23.373  19.147 -0.2410  0.1524  0.0014
 4816SAP2   D4A96018  19.839  23.536  19.057  0.3299 -0.3203 -0.1560
 4816SAP2   C5A96019  20.280  23.515  19.225  0.1463 -0.0692 -0.0795
 4816SAP2   C1B96020  19.958  22.627  19.091 -0.2026  0.1426 -0.0364
 4816SAP2   C2B96021  19.792  22.672  18.644 -0.2011 -0.3330 -0.2500
 4816SAP2   C3B96022  19.843  22.986  18.269 -0.2523  0.2388  0.0592
 4816SAP2   C4B96023  19.863  23.482  18.282  0.0211 -0.2119  0.0860
 4817SAP2    C196024  19.871  21.214  19.895 -0.2973  0.1240  0.0756
 4817SAP2    C296025  19.994  21.359  20.097  0.0734  0.0262 -0.0727
 4817SAP2    C396026  20.151  21.155  19.881 -0.3729 -0.1946 -0.1997
 4817SAP2    C496027  20.005  21.243  19.958  0.1135 -0.4747 -0.2935
 4817SAP2   PO496028  19.666  21.378  19.704 -0.0039  0.3815  0.0134
 4817SAP2    P496029  20.399  21.139  20.011  0.0098  0.1261  0.3334
 4817SAP2    P596030  20.146  21.226  20.368 -0.0323 -0.0410  0.3587
 4817SAP2   GL196031  19.717  21.492  19.418 -0.0488  0.3815 -0.1062
 4817SAP2   GL296032  19.737  21.283  19.252 -0.0669 -0.0587 -0.3047
 4817SAP2   D1A96033  19.442  21.817  19.109  0.1120 -0.0279 -0.0265
 4817SAP2   D2A96034  19.359  21.389  18.891 -0.0790  0.0188 -0.0626
 4817SAP2   D3A96035  19.169  21.581  18.511  0.0830  0.0488 -0.2298
 4817SAP2   D4A96036  19.165  22.023  18.453 -0.0773 -0.1462  0.1365
 4817SAP2   C5A96037  19.193  21.873  18.029  0.0462 -0.0100 -0.2199
 4817SAP2   C1B96038  19.594  20.923  19.026 -0.1078 -0.2185  0.0561
 4817SAP2   C2B96039  19.381  20.683  18.727 -0.0598 -0.1703 -0.3389
 4817SAP2   C3B96040  19.401  20.361  18.328 -0.2774  0.0439 -0.3676
 4817SAP2   C4B96041  19.271  19.918  18.239  0.0814  0.0291 -0.1023
 4818SAP2    C196042  29.928  18.075  19.813 -0.3038 -0.0239 -0.1472
 4818SAP2    C296043  29.861  18.005  20.072  0.0503 -0.2252 -0.1038
 4818SAP2    C396044  29.960  18.310  19.974  0.0418 -0.1804  0.0241
 4818SAP2    C496045  29.917  18.130  19.953 -0.1221  0.1062  0.5886
 4818SAP2   PO496046  29.741  17.886  19.616  0.2004  0.0340  0.3795
 4818SAP2    P496047  29.896  18.459  20.229  0.1646  0.0226  0.1339
 4818SAP2    P596048  29.899  18.052  20.425 -0.1797  0.0554  0.4030
 4818SAP2   GL196049  30.030  17.904  19.398 -0.0883 -0.5029  0.1262
 4818SAP2   GL296050  29.998  17.600  19.333  0.2046 -0.0520 -0.4076
 4818SAP2   D1A96051  30.014  18.144  19.020  0.2604  0.1584 -0.1281
 4818SAP2   D2A96052  30.264  17.844  18.813 -0.0151  0.0053 -0.3974
 4818SAP2   D3A96053  30.437  17.642  19.189 -0.1632  0.3251  0.1949
 4818SAP2   D4A96054  30.403  17.265  19.450  0.2243  0.1350  0.0705
 4818SAP2   C5A96055  30.662  17.155  19.094 -0.0848 -0.2972  0.0181
 4818SAP2   C1B96056  29.848  17.579  18.918 -0.1736 -0.0772  0.1792
 4818SAP2   C2B96057  29.965  17.487  18.527 -0.1443 -0.2483  0.3177
 4818SAP2   C3B96058  30.117  17.052  18.338  0.0854  0.0050  0.0905
 4818SAP2   C4B96059  30.351  16.862  18.029  0.0822  0.0004  0.2929
 4819SAP2    C196060  23.566  18.940  19.125 -0.0682 -0.1343 -0.1575
 4819SAP2    C296061  23.782  19.071  19.009 -0.0654 -0.0092 -0.0148
 4819SAP2    C396062  23.754  18.994  19.335 -0.3158  0.1401  0.0017
 4819SAP2    C496063  23.701  19.002  19.156  0.0189  0.5560  0.0106
 4819SAP2   PO496064  23.538  18.719  18.880 -0.3147 -0.2049 -0.0777
 4819SAP2    P496065  23.997  19.047  19.572  0.1491  0.1481  0.0257
 4819SAP2    P596066  24.023  19.230  19.047  0.0246 -0.1596 -0.2060
 4819SAP2   GL196067  23.652  18.723  18.570 -0.0100 -0.2565 -0.1097
 4819SAP2   GL296068  23.806  18.489  18.515 -0.0898  0.0257 -0.4855
 4819SAP2   D1A96069  23.270  18.662  18.360 -0.0501 -0.2376  0.2014
 4819SAP2   D2A96070  23.048  18.733  17.971  0.2625 -0.0862  0.1747
 4819SAP2   D3A96071  22.613  18.874  17.864  0.1908 -0.1797  0.3748
 4819SAP2   D4A96072  22.564  18.596  17.499  0.1372 -0.0569  0.2419
 4819SAP2   C5A96073  22.289  18.411  17.132 -0.0050  0.0966  0.0674
 4819SAP2   C1B96074  23.636  18.377  18.127  0.4600  0.0152 -0.1187
 4819SAP2   C2B96075  23.392  18.460  17.711  0.3938  0.0666 -0.0543
 4819SAP2   C3B96076  23.321  18.261  17.242  0.0547 -0.0358 -0.2950
 4819SAP2   C4B96077  23.251  18.216  16.775  0.1803  0.0262 -0.1191
 4820SAP2    C196078  26.615  22.877  13.952  0.1204  0.1179 -0.1258
 4820SAP2    C296079  26.391  22.719  13.909  0.0496  0.2206 -0.1363
 4820SAP2    C396080  26.584  22.712  14.184 -0.0175  0.1928 -0.0900
 4820SAP2    C496081  26.530  22.769  14.015 -0.3736 -0.5594  0.1427
 4820SAP2   PO496082  26.617  23.185  13.850  0.0650  0.0952 -0.1013
 4820SAP2    P496083  26.449  22.545  14.418  0.3315  0.2454 -0.0572
 4820SAP2    P596084  26.348  22.342  13.951 -0.0228 -0.0221 -0.1623
 4820SAP2   GL196085  26.893  23.296  13.966  0.0550  0.1574  0.0139
 4820SAP2   GL296086  27.203  23.391  13.856  0.1483  0.1616  0.1570
 4820SAP2   D1A96087  26.860  23.735  13.850  0.0952  0.1574 -0.0652
 4820SAP2   D2A96088  27.027  23.796  13.432  0.0080 -0.2838 -0.2745
 4820SAP2   D3A96089  27.415  23.792  13.653  0.1462  0.3062  0.0782
 4820SAP2   D4A96090  27.314  24.218  13.793  0.2274  0.4779 -0.0007
 4820SAP2   C5A96091  26.921  24.202  14.020 -0.0882  0.1433 -0.0074
 4820SAP2   C1B96092  27.316  23.763  14.191 -0.4543  0.1154  0.0495
 4820SAP2   C2B96093  27.728  23.991  14.309 -0.0034 -0.1008  0.2366
 4820SAP2   C3B96094  28.131  24.183  14.126 -0.0888 -0.1614  0.0664
 4820SAP2   C4B96095  28.311  24.250  13.709 -0.0351  0.0302 -0.0859
 4821SAP2    C196096  26.600  27.486  20.420 -0.2540  0.0341  0.3191
 4821SAP2    C296097  26.539  27.227  20.496 -0.1828 -0.0095  0.2286
 4821SAP2    C396098  26.693  27.454  20.689  0.2140 -0.1943  0.1411
 4821SAP2    C496099  26.611  27.389  20.535  0.2184  0.1203 -0.1219
 4821SAP2   PO496100  26.366  27.586  20.261  0.0910 -0.0032  0.0873
 4821SAP2    P496101  26.853  27.342  20.879 -0.2375 -0.1500 -0.2067
 4821SAP2    P596102  26.548  26.952  20.607  0.3347 -0.1076  0.0536
 4821SAP2   GL196103  26.365  27.872  20.085  0.4584  0.0863  0.1644
 4821SAP2   GL296104  26.281  27.784  19.753  0.0573 -0.0949 -0.3799
 4821SAP2   D1A96105  26.742  28.075  19.928 -0.3984 -0.1570 -0.4283
 4821SAP2   D2A96106  26.710  27.824  19.527 -0.1092 -0.2221 -0.0377
 4821SAP2   D3A96107  26.618  28.227  19.305  0.2007  0.0056 -0.1380
 4821SAP2   D4A96108  26.988  28.092  19.023 -0.0529  0.0610  0.0817
 4821SAP2   C5A96109  26.743  27.746  19.041  0.0767  0.2676 -0.0957
 4821SAP2   C1B96110  26.286  27.611  19.370 -0.0191 -0.1949  0.3515
 4821SAP2   C2B96111  26.228  27.863  18.988 -0.3764  0.0908 -0.0788
 4821SAP2   C3B96112  26.582  28.030  18.692 -0.2064  0.1092 -0.0460
 4821SAP2   C4B96113  26.924  28.320  18.571  0.2459  0.1783 -0.0297
 4822SAP2    C196114  25.373  21.972  15.027 -0.2003  0.1977  0.1385
 4822SAP2    C296115  25.590  22.144  15.021 -0.0048 -0.0268  0.4550
 4822SAP2    C396116  25.601  21.815  14.956 -0.3802  0.0679 -0.1707
 4822SAP2    C496117  25.521  21.977  15.001 -0.8539  0.1626 -0.4551
 4822SAP2   PO496118  25.168  22.139  14.812  0.0533  0.1011  0.0549
 4822SAP2    P496119  25.909  21.842  14.817  0.2182 -0.1178  0.3843
 4822SAP2    P596120  25.826  22.258  15.184  0.0400  0.0479  0.3130
 4822SAP2   GL196121  24.907  22.052  14.937 -0.0693  0.1307 -0.2429
 4822SAP2   GL296122  24.856  21.781  14.858 -0.0104 -0.3680 -0.0226
 4822SAP2   D1A96123  24.515  22.039  15.195 -0.1513 -0.0825  0.0185
 4822SAP2   D2A96124  24.158  21.808  15.294  0.0245 -0.0292 -0.0404
 4822SAP2   D3A96125  23.948  21.476  14.977  0.1254  0.0194 -0.1602
 4822SAP2   D4A96126  23.526  21.276  14.985 -0.0685 -0.1530  0.2355
 4822SAP2   C5A96127  23.407  20.897  15.183 -0.0266 -0.1762  0.2421
 4822SAP2   C1B96128  24.384  21.811  14.803 -0.4813 -0.0367 -0.1272
 4822SAP2   C2B96129  24.035  21.945  14.603 -0.0390  0.3997 -0.1541
 4822SAP2   C3B96130  23.698  22.005  14.238 -0.0143 -0.3146  0.3419
 4822SAP2   C4B96131  23.377  22.247  13.996 -0.0053  0.0962  0.0002
 4823SAP2    C196132  28.628  16.330  20.446 -0.0256 -0.1805 -0.0210
 4823SAP2    C296133  28.469  16.454  20.636 -0.0701  0.3716 -0.3962
 4823SAP2    C396134  28.730  16.253  20.702 -0.2152  0.3722  0.2363
 4823SAP2    C496135  28.609  16.346  20.595 -0.2303  0.7743  0.1717
 4823SAP2   PO496136  28.779  16.526  20.252  0.2872 -0.0669  0.1764
 4823SAP2    P496137  28.676  16.272  21.006  0.1177 -0.0778 -0.1313
 4823SAP2    P596138  28.310  16.286  20.813  0.0606  0.3763 -0.0486
 4823SAP2   GL196139  28.781  16.530  19.889 -0.2191 -0.0668 -0.0736
 4823SAP2   GL296140  28.694  16.811  19.837 -0.0199  0.0943  0.0313
 4823SAP2   D1A96141  28.553  16.172  19.709  0.1197 -0.0300  0.1625
 4823SAP2   D2A96142  28.363  16.247  19.233 -0.0907  0.2312 -0.2398
 4823SAP2   D3A96143  28.697  16.212  18.928 -0.1342  0.1962  0.1628
 4823SAP2   D4A96144  28.938  16.396  19.316  0.1362 -0.0892  0.0176
 4823SAP2   C5A96145  29.015  16.662  18.966  0.2520 -0.0255  0.1941
 4823SAP2   C1B96146  28.613  16.783  19.372  0.0655  0.1200 -0.0178
 4823SAP2   C2B96147  28.517  16.647  18.979 -0.2071  0.0392 -0.1813
 4823SAP2   C3B96148  28.438  16.607  18.521 -0.0453  0.1080  0.0977
 4823SAP2   C4B96149  28.461  16.480  18.069  0.0576 -0.1205  0.0798
 4824SAP2    C196150  27.050  21.939  14.180 -0.0051 -0.2069  0.1349
 4824SAP2    C296151  27.170  22.072  14.391 -0.1091  0.2299 -0.0706
 4824SAP2    C396152  26.856  21.953  14.391 -0.0246 -0.0009  0.1047
 4824SAP2    C496153  27.025  21.988  14.321 -0.4549  0.0702  0.3806
 4824SAP2   PO496154  27.289  21.749  14.026 -0.0539  0.2277  0.4264
 4824SAP2    P496155  26.807  21.994  14.703 -0.0146  0.0360 -0.3968
 4824SAP2    P596156  27.050  22.307  14.715  0.1338  0.1113 -0.2741
 4824SAP2   GL196157  27.441  21.417  14.051  0.0294  0.2774 -0.0128
 4824SAP2   GL296158  27.748  21.498  14.121  0.0691 -0.0370 -0.2731
 4824SAP2   D1A96159  27.576  21.373  13.611  0.3350 -0.0153  0.2374
 4824SAP2   D2A96160  27.481  20.972  13.840 -0.0730  0.1675  0.2472
 4824SAP2   D3A96161  27.958  21.087  13.738  0.1773  0.2401 -0.0652
 4824SAP2   D4A96162  28.038  20.644  13.903 -0.1782  0.1886  0.1439
 4824SAP2   C5A96163  27.570  20.529  13.826  0.0425  0.1449 -0.1559
 4824SAP2   C1B96164  27.814  21.058  14.203 -0.2103 -0.1734  0.0000
 4824SAP2   C2B96165  27.871  20.715  14.456 -0.0507 -0.0112  0.0429
 4824SAP2   C3B96166  27.682  20.327  14.335 -0.1049 -0.3020  0.0553
 4824SAP2   C4B96167  27.282  20.092  14.360 -0.4208 -0.0370 -0.1678
 4825SAP2    C196168  27.737  28.070  20.672 -0.0755  0.1037  0.2087
 4825SAP2    C296169  27.614  27.948  20.888 -0.0816 -0.0304  0.1308
 4825SAP2    C396170  27.674  28.277  20.859 -0.2052  0.0060  0.2752
 4825SAP2    C496171  27.675  28.098  20.806  0.2116 -0.0405 -0.1448
 4825SAP2   PO496172  27.702  27.943  20.370 -0.1160  0.3116 -0.1372
 4825SAP2    P496173  27.725  28.315  21.173  0.0255  0.0950  0.2818
 4825SAP2    P596174  27.624  27.837  21.162  0.2117 -0.3939  0.0175
 4825SAP2   GL196175  27.779  28.009  20.061  0.0974  0.2758 -0.2211
 4825SAP2   GL296176  27.580  27.818  19.913 -0.0300 -0.2395 -0.3043
 4825SAP2   D1A96177  28.014  27.783  19.668  0.1623  0.1154  0.0726
 4825SAP2   D2A96178  28.082  28.219  19.803  0.2995  0.3223 -0.0577
 4825SAP2   D3A96179  27.902  28.479  19.467  0.1671  0.4071  0.0785
 4825SAP2   D4A96180  27.485  28.542  19.526  0.2154 -0.0113  0.0957
 4825SAP2   C5A96181  27.373  28.515  19.058 -0.0459 -0.0187 -0.0621
 4825SAP2   C1B96182  27.641  28.090  19.585 -0.0550  0.3296  0.0226
 4825SAP2   C2B96183  27.526  28.034  19.087 -0.1712 -0.0533 -0.0405
 4825SAP2   C3B96184  27.433  28.121  18.663 -0.0172  0.0301  0.1992
 4825SAP2   C4B96185  27.339  28.364  18.223 -0.1331  0.4201 -0.2182
  32.84023  32.84023  23.78985
